   34   34    1    1
  0.4871006E+02  0.5858456E-09  0.1015953E-08  0.2803268E-08  0.5000000E-15
  1.000000000000000E-004
  CAR 
 unknown system                          
    266      8    192
 
  0.1276756E-14  0.1276756E-14  0.1276756E-14  0.5555556E-01
      1        -56.976865   1.000000
      2        -56.935297   1.000000
      3        -56.917024   1.000000
      4        -56.825664   1.000000
      5        -56.611053   1.000000
      6        -56.581299   1.000000
      7        -56.430787   1.000000
      8        -56.380436   1.000000
      9        -56.368795   1.000000
     10        -56.329792   1.000000
     11        -56.168812   1.000000
     12        -56.136831   1.000000
     13        -56.080407   1.000000
     14        -56.071879   1.000000
     15        -56.025130   1.000000
     16        -55.989911   1.000000
     17        -33.354571   1.000000
     18        -33.335193   1.000000
     19        -33.265103   1.000000
     20        -33.244379   1.000000
     21        -33.222154   1.000000
     22        -33.165966   1.000000
     23        -33.159345   1.000000
     24        -33.146975   1.000000
     25        -33.123643   1.000000
     26        -33.094292   1.000000
     27        -33.090515   1.000000
     28        -32.987118   1.000000
     29        -32.978960   1.000000
     30        -32.948088   1.000000
     31        -32.865945   1.000000
     32        -32.805077   1.000000
     33        -32.801693   1.000000
     34        -32.783657   1.000000
     35        -32.761568   1.000000
     36        -32.757402   1.000000
     37        -32.728297   1.000000
     38        -32.702612   1.000000
     39        -32.701811   1.000000
     40        -32.679990   1.000000
     41        -32.668372   1.000000
     42        -32.653616   1.000000
     43        -32.639824   1.000000
     44        -32.578227   1.000000
     45        -32.574071   1.000000
     46        -32.569312   1.000000
     47        -32.521234   1.000000
     48        -32.513235   1.000000
     49        -32.502133   1.000000
     50        -32.447233   1.000000
     51        -32.419092   1.000000
     52        -32.412838   1.000000
     53        -32.404091   1.000000
     54        -32.382227   1.000000
     55        -32.380850   1.000000
     56        -32.353357   1.000000
     57        -32.324366   1.000000
     58        -32.311620   1.000000
     59        -32.290731   1.000000
     60        -32.265603   1.000000
     61        -32.261561   1.000000
     62        -32.201457   1.000000
     63        -32.179600   1.000000
     64        -32.141013   1.000000
     65        -14.570224   1.000000
     66        -14.472647   1.000000
     67        -14.455373   1.000000
     68        -14.445090   1.000000
     69        -14.358500   1.000000
     70        -14.194031   1.000000
     71        -14.148625   1.000000
     72        -14.108859   1.000000
     73        -14.101206   1.000000
     74        -14.049773   1.000000
     75         -8.526104   1.000000
     76         -7.611887   1.000000
     77         -6.995394   1.000000
     78         -6.512311   1.000000
     79         -6.427599   1.000000
     80         -6.012755   1.000000
     81         -5.447765   1.000000
     82         -4.995833   1.000000
     83         -4.654801   1.000000
     84         -4.339818   1.000000
     85         -4.016698   1.000000
     86         -3.766266   1.000000
     87         -3.765120   1.000000
     88         -3.714196   1.000000
     89         -3.370481   1.000000
     90         -3.312754   1.000000
     91         -3.208008   1.000000
     92         -2.918597   1.000000
     93         -2.839922   1.000000
     94         -2.677462   1.000000
     95         -2.499371   1.000000
     96         -2.414010   1.000000
     97         -2.405717   1.000000
     98         -2.187283   1.000000
     99         -2.008981   1.000000
    100         -1.954753   1.000000
    101         -1.822500   1.000000
    102         -1.801000   1.000000
    103         -1.757865   1.000000
    104         -1.595874   1.000000
    105         -1.465669   1.000000
    106         -1.314209   1.000000
    107         -1.273532   1.000000
    108         -1.141027   1.000000
    109         -1.070495   1.000000
    110         -0.990701   1.000000
    111         -0.918606   1.000000
    112         -0.821569   1.000000
    113         -0.682732   1.000000
    114         -0.667002   1.000000
    115         -0.570940   1.000000
    116         -0.527521   1.000000
    117         -0.413494   1.000000
    118         -0.302432   1.000000
    119         -0.281411   1.000000
    120         -0.172670   1.000000
    121         -0.135555   1.000000
    122         -0.073253   1.000000
    123         -0.031527   1.000000
    124          0.030277   1.000000
    125          0.056800   1.000000
    126          0.142421   1.000000
    127          0.196526   1.000001
    128          0.225202   1.000005
    129          0.286792   1.000211
    130          0.336190   1.002149
    131          0.364833   1.006340
    132          0.498049   0.972316
    133          0.534882   0.790134
    134          0.567024   0.540438
    135          0.568246   0.530127
    136          0.588393   0.361768
    137          0.676191  -0.029097
    138          0.723607  -0.026843
    139          0.794976  -0.003526
    140          0.805619  -0.002314
    141          0.864131  -0.000143
    142          0.901158  -0.000016
    143          0.929511  -0.000003
    144          1.018214  -0.000000
    145          1.067667  -0.000000
    146          1.076977  -0.000000
    147          1.142109  -0.000000
    148          1.189788  -0.000000
    149          1.204557  -0.000000
    150          1.233291  -0.000000
    151          1.262244  -0.000000
    152          1.284492  -0.000000
    153          1.347451  -0.000000
    154          1.400776  -0.000000
    155          1.492887  -0.000000
    156          1.510673  -0.000000
    157          1.528884  -0.000000
    158          1.608114  -0.000000
    159          1.641330  -0.000000
    160          1.686008  -0.000000
    161          1.786008  -0.000000
    162          1.838931  -0.000000
    163          1.868225  -0.000000
    164          1.990108  -0.000000
    165          2.047808  -0.000000
    166          2.117230  -0.000000
    167          2.122001  -0.000000
    168          2.162938  -0.000000
    169          2.185236  -0.000000
    170          2.207515  -0.000000
    171          2.248441  -0.000000
    172          2.272716  -0.000000
    173          2.300865  -0.000000
    174          2.314359  -0.000000
    175          2.345646  -0.000000
    176          2.379420  -0.000000
    177          2.400788  -0.000000
    178          2.408222  -0.000000
    179          2.498834  -0.000000
    180          2.551972  -0.000000
    181          2.626848   0.000000
    182          2.653404   0.000000
    183          2.783903   0.000000
    184          2.786129   0.000000
    185          2.816074   0.000000
    186          2.935339   0.000000
    187          2.938900   0.000000
    188          3.028601   0.000000
    189          3.138381   0.000000
    190          3.266222   0.000000
    191          3.296910   0.000000
    192          3.383604   0.000000
 
  0.1666667E+00  0.1276756E-14  0.1276756E-14  0.1111111E+00
      1        -56.976864   1.000000
      2        -56.935296   1.000000
      3        -56.917023   1.000000
      4        -56.825663   1.000000
      5        -56.610906   1.000000
      6        -56.581150   1.000000
      7        -56.430590   1.000000
      8        -56.380212   1.000000
      9        -56.368586   1.000000
     10        -56.329478   1.000000
     11        -56.168974   1.000000
     12        -56.136996   1.000000
     13        -56.080617   1.000000
     14        -56.072214   1.000000
     15        -56.025374   1.000000
     16        -55.990140   1.000000
     17        -33.354578   1.000000
     18        -33.335189   1.000000
     19        -33.265100   1.000000
     20        -33.244389   1.000000
     21        -33.222150   1.000000
     22        -33.165973   1.000000
     23        -33.159354   1.000000
     24        -33.146972   1.000000
     25        -33.123636   1.000000
     26        -33.094289   1.000000
     27        -33.090512   1.000000
     28        -32.987110   1.000000
     29        -32.979002   1.000000
     30        -32.948203   1.000000
     31        -32.865853   1.000000
     32        -32.804847   1.000000
     33        -32.789884   1.000000
     34        -32.772197   1.000000
     35        -32.761337   1.000000
     36        -32.757659   1.000000
     37        -32.728148   1.000000
     38        -32.702155   1.000000
     39        -32.688898   1.000000
     40        -32.679878   1.000000
     41        -32.668154   1.000000
     42        -32.653376   1.000000
     43        -32.639652   1.000000
     44        -32.560949   1.000000
     45        -32.556083   1.000000
     46        -32.553239   1.000000
     47        -32.521271   1.000000
     48        -32.513340   1.000000
     49        -32.502222   1.000000
     50        -32.447226   1.000000
     51        -32.419154   1.000000
     52        -32.413347   1.000000
     53        -32.404395   1.000000
     54        -32.382225   1.000000
     55        -32.381208   1.000000
     56        -32.365693   1.000000
     57        -32.324564   1.000000
     58        -32.323769   1.000000
     59        -32.290985   1.000000
     60        -32.278935   1.000000
     61        -32.261796   1.000000
     62        -32.220800   1.000000
     63        -32.197459   1.000000
     64        -32.157605   1.000000
     65        -14.570123   1.000000
     66        -14.472649   1.000000
     67        -14.455547   1.000000
     68        -14.445210   1.000000
     69        -14.358301   1.000000
     70        -14.193981   1.000000
     71        -14.148627   1.000000
     72        -14.108968   1.000000
     73        -14.101327   1.000000
     74        -14.049620   1.000000
     75         -8.419894   1.000000
     76         -7.514377   1.000000
     77         -6.895811   1.000000
     78         -6.403800   1.000000
     79         -6.353273   1.000000
     80         -6.023599   1.000000
     81         -5.531470   1.000000
     82         -4.991224   1.000000
     83         -4.940183   1.000000
     84         -4.687803   1.000000
     85         -4.381866   1.000000
     86         -4.163932   1.000000
     87         -3.963379   1.000000
     88         -3.890148   1.000000
     89         -3.608089   1.000000
     90         -3.416413   1.000000
     91         -3.083327   1.000000
     92         -2.909952   1.000000
     93         -2.758207   1.000000
     94         -2.600266   1.000000
     95         -2.386251   1.000000
     96         -2.130896   1.000000
     97         -2.038140   1.000000
     98         -1.952511   1.000000
     99         -1.877460   1.000000
    100         -1.866696   1.000000
    101         -1.716305   1.000000
    102         -1.649725   1.000000
    103         -1.557481   1.000000
    104         -1.507229   1.000000
    105         -1.420082   1.000000
    106         -1.234274   1.000000
    107         -1.197448   1.000000
    108         -1.093856   1.000000
    109         -1.035129   1.000000
    110         -1.006273   1.000000
    111         -0.882354   1.000000
    112         -0.799913   1.000000
    113         -0.761926   1.000000
    114         -0.636916   1.000000
    115         -0.564757   1.000000
    116         -0.477513   1.000000
    117         -0.414894   1.000000
    118         -0.302836   1.000000
    119         -0.169239   1.000000
    120         -0.154302   1.000000
    121         -0.092862   1.000000
    122         -0.043158   1.000000
    123          0.039478   1.000000
    124          0.114043   1.000000
    125          0.176009   1.000000
    126          0.219639   1.000004
    127          0.246604   1.000021
    128          0.285251   1.000194
    129          0.301678   1.000450
    130          0.360761   1.005505
    131          0.381113   1.010672
    132          0.434894   1.032839
    133          0.528830   0.829137
    134          0.551214   0.670257
    135          0.571373   0.503686
    136          0.623999   0.118111
    137          0.718132  -0.029256
    138          0.751337  -0.014613
    139          0.762214  -0.010765
    140          0.821261  -0.001187
    141          0.896452  -0.000022
    142          0.942709  -0.000001
    143          0.986440  -0.000000
    144          1.023174  -0.000000
    145          1.062083  -0.000000
    146          1.095072  -0.000000
    147          1.123606  -0.000000
    148          1.164572  -0.000000
    149          1.185324  -0.000000
    150          1.250952  -0.000000
    151          1.268456  -0.000000
    152          1.307907  -0.000000
    153          1.374785  -0.000000
    154          1.396181  -0.000000
    155          1.410089  -0.000000
    156          1.465989  -0.000000
    157          1.515439  -0.000000
    158          1.543335  -0.000000
    159          1.641688  -0.000000
    160          1.678346  -0.000000
    161          1.697930  -0.000000
    162          1.745955  -0.000000
    163          1.815413  -0.000000
    164          1.858354  -0.000000
    165          1.891732  -0.000000
    166          1.922768  -0.000000
    167          1.996439  -0.000000
    168          2.012636  -0.000000
    169          2.081196  -0.000000
    170          2.113114  -0.000000
    171          2.137138  -0.000000
    172          2.157763  -0.000000
    173          2.216135  -0.000000
    174          2.243537  -0.000000
    175          2.301316  -0.000000
    176          2.351467  -0.000000
    177          2.394206  -0.000000
    178          2.457680  -0.000000
    179          2.521045  -0.000000
    180          2.575022   0.000000
    181          2.632154   0.000000
    182          2.638817   0.000000
    183          2.700397   0.000000
    184          2.722996   0.000000
    185          2.876809   0.000000
    186          2.914725   0.000000
    187          3.003804   0.000000
    188          3.101002   0.000000
    189          3.144310   0.000000
    190          3.291996   0.000000
    191          3.361712   0.000000
    192          3.404661   0.000000
 
  0.3333333E+00  0.1276756E-14  0.1276756E-14  0.1111111E+00
      1        -56.976864   1.000000
      2        -56.935296   1.000000
      3        -56.917023   1.000000
      4        -56.825663   1.000000
      5        -56.610614   1.000000
      6        -56.580855   1.000000
      7        -56.430198   1.000000
      8        -56.379766   1.000000
      9        -56.368168   1.000000
     10        -56.328850   1.000000
     11        -56.169301   1.000000
     12        -56.137330   1.000000
     13        -56.081042   1.000000
     14        -56.072887   1.000000
     15        -56.025865   1.000000
     16        -55.990602   1.000000
     17        -33.354595   1.000000
     18        -33.335188   1.000000
     19        -33.265097   1.000000
     20        -33.244413   1.000000
     21        -33.222148   1.000000
     22        -33.165992   1.000000
     23        -33.159374   1.000000
     24        -33.146969   1.000000
     25        -33.123625   1.000000
     26        -33.094286   1.000000
     27        -33.090507   1.000000
     28        -32.987096   1.000000
     29        -32.979051   1.000000
     30        -32.948363   1.000000
     31        -32.865604   1.000000
     32        -32.804361   1.000000
     33        -32.764140   1.000000
     34        -32.760869   1.000000
     35        -32.757805   1.000000
     36        -32.747425   1.000000
     37        -32.727825   1.000000
     38        -32.701202   1.000000
     39        -32.679985   1.000000
     40        -32.667669   1.000000
     41        -32.660499   1.000000
     42        -32.652863   1.000000
     43        -32.639216   1.000000
     44        -32.521229   1.000000
     45        -32.520166   1.000000
     46        -32.517950   1.000000
     47        -32.513465   1.000000
     48        -32.510270   1.000000
     49        -32.502286   1.000000
     50        -32.446881   1.000000
     51        -32.419213   1.000000
     52        -32.414424   1.000000
     53        -32.404811   1.000000
     54        -32.393049   1.000000
     55        -32.381821   1.000000
     56        -32.381772   1.000000
     57        -32.350393   1.000000
     58        -32.324815   1.000000
     59        -32.308714   1.000000
     60        -32.291372   1.000000
     61        -32.268196   1.000000
     62        -32.262264   1.000000
     63        -32.239497   1.000000
     64        -32.195652   1.000000
     65        -14.569921   1.000000
     66        -14.472653   1.000000
     67        -14.455893   1.000000
     68        -14.445448   1.000000
     69        -14.357904   1.000000
     70        -14.193882   1.000000
     71        -14.148630   1.000000
     72        -14.109183   1.000000
     73        -14.101568   1.000000
     74        -14.049315   1.000000
     75         -8.126695   1.000000
     76         -7.264283   1.000000
     77         -6.692980   1.000000
     78         -6.498234   1.000000
     79         -6.097086   1.000000
     80         -6.031421   1.000000
     81         -5.490736   1.000000
     82         -5.434294   1.000000
     83         -5.179287   1.000000
     84         -4.972339   1.000000
     85         -4.729765   1.000000
     86         -4.647483   1.000000
     87         -4.506694   1.000000
     88         -4.229835   1.000000
     89         -3.877307   1.000000
     90         -3.539503   1.000000
     91         -3.268314   1.000000
     92         -3.221391   1.000000
     93         -2.663310   1.000000
     94         -2.288410   1.000000
     95         -2.197296   1.000000
     96         -2.018596   1.000000
     97         -1.908371   1.000000
     98         -1.712442   1.000000
     99         -1.686201   1.000000
    100         -1.576100   1.000000
    101         -1.482057   1.000000
    102         -1.401640   1.000000
    103         -1.335889   1.000000
    104         -1.211931   1.000000
    105         -1.166755   1.000000
    106         -1.104057   1.000000
    107         -0.999106   1.000000
    108         -0.969810   1.000000
    109         -0.828939   1.000000
    110         -0.808348   1.000000
    111         -0.757581   1.000000
    112         -0.671421   1.000000
    113         -0.598768   1.000000
    114         -0.483507   1.000000
    115         -0.406863   1.000000
    116         -0.333677   1.000000
    117         -0.250304   1.000000
    118         -0.208479   1.000000
    119         -0.134338   1.000000
    120         -0.099967   1.000000
    121          0.008384   1.000000
    122          0.036624   1.000000
    123          0.132914   1.000000
    124          0.197966   1.000001
    125          0.244552   1.000019
    126          0.314172   1.000818
    127          0.352123   1.004023
    128          0.372670   1.008219
    129          0.396274   1.016205
    130          0.428300   1.030422
    131          0.461520   1.032773
    132          0.509851   0.928604
    133          0.555398   0.636826
    134          0.574538   0.476915
    135          0.593202   0.323469
    136          0.673707  -0.026986
    137          0.683825  -0.033523
    138          0.765868  -0.009640
    139          0.814549  -0.001592
    140          0.855917  -0.000221
    141          0.896844  -0.000022
    142          0.952259  -0.000001
    143          0.971083  -0.000000
    144          0.993243  -0.000000
    145          1.032775  -0.000000
    146          1.101605  -0.000000
    147          1.117642  -0.000000
    148          1.143177  -0.000000
    149          1.155972  -0.000000
    150          1.174729  -0.000000
    151          1.185417  -0.000000
    152          1.233550  -0.000000
    153          1.291111  -0.000000
    154          1.325566  -0.000000
    155          1.349915  -0.000000
    156          1.376887  -0.000000
    157          1.398997  -0.000000
    158          1.471777  -0.000000
    159          1.494794  -0.000000
    160          1.548838  -0.000000
    161          1.562741  -0.000000
    162          1.584976  -0.000000
    163          1.622183  -0.000000
    164          1.666376  -0.000000
    165          1.682639  -0.000000
    166          1.744294  -0.000000
    167          1.795561  -0.000000
    168          1.813041  -0.000000
    169          1.850884  -0.000000
    170          1.912999  -0.000000
    171          1.963396  -0.000000
    172          2.079199  -0.000000
    173          2.087025  -0.000000
    174          2.140870  -0.000000
    175          2.161713  -0.000000
    176          2.237576  -0.000000
    177          2.252937  -0.000000
    178          2.299105  -0.000000
    179          2.390231  -0.000000
    180          2.439258  -0.000000
    181          2.499477  -0.000000
    182          2.627785   0.000000
    183          2.678110   0.000000
    184          2.842008   0.000000
    185          2.933532   0.000000
    186          2.996996   0.000000
    187          3.100516   0.000000
    188          3.192377   0.000000
    189          3.219681   0.000000
    190          3.301323   0.000000
    191          3.391066   0.000000
    192          3.504486   0.000000
 
  0.5000000E+00  0.1276756E-14  0.1276756E-14  0.5555556E-01
      1        -56.976864   1.000000
      2        -56.935296   1.000000
      3        -56.917023   1.000000
      4        -56.825663   1.000000
      5        -56.610467   1.000000
      6        -56.580707   1.000000
      7        -56.430001   1.000000
      8        -56.379542   1.000000
      9        -56.367959   1.000000
     10        -56.328535   1.000000
     11        -56.169465   1.000000
     12        -56.137497   1.000000
     13        -56.081254   1.000000
     14        -56.073224   1.000000
     15        -56.026110   1.000000
     16        -55.990833   1.000000
     17        -33.354604   1.000000
     18        -33.335186   1.000000
     19        -33.265095   1.000000
     20        -33.244424   1.000000
     21        -33.222145   1.000000
     22        -33.166000   1.000000
     23        -33.159384   1.000000
     24        -33.146968   1.000000
     25        -33.123621   1.000000
     26        -33.094285   1.000000
     27        -33.090504   1.000000
     28        -32.987089   1.000000
     29        -32.979057   1.000000
     30        -32.948413   1.000000
     31        -32.865459   1.000000
     32        -32.804112   1.000000
     33        -32.760633   1.000000
     34        -32.757766   1.000000
     35        -32.749840   1.000000
     36        -32.733859   1.000000
     37        -32.727653   1.000000
     38        -32.700710   1.000000
     39        -32.679938   1.000000
     40        -32.667400   1.000000
     41        -32.652619   1.000000
     42        -32.644766   1.000000
     43        -32.638925   1.000000
     44        -32.520962   1.000000
     45        -32.513388   1.000000
     46        -32.502197   1.000000
     47        -32.496271   1.000000
     48        -32.494455   1.000000
     49        -32.479816   1.000000
     50        -32.446238   1.000000
     51        -32.419196   1.000000
     52        -32.414979   1.000000
     53        -32.408565   1.000000
     54        -32.404550   1.000000
     55        -32.381915   1.000000
     56        -32.381153   1.000000
     57        -32.365273   1.000000
     58        -32.326066   1.000000
     59        -32.324469   1.000000
     60        -32.300689   1.000000
     61        -32.291573   1.000000
     62        -32.266699   1.000000
     63        -32.261859   1.000000
     64        -32.218453   1.000000
     65        -14.569819   1.000000
     66        -14.472655   1.000000
     67        -14.456066   1.000000
     68        -14.445567   1.000000
     69        -14.357706   1.000000
     70        -14.193832   1.000000
     71        -14.148631   1.000000
     72        -14.109291   1.000000
     73        -14.101688   1.000000
     74        -14.049164   1.000000
     75         -7.863501   1.000000
     76         -7.197992   1.000000
     77         -6.813565   1.000000
     78         -6.442142   1.000000
     79         -5.844127   1.000000
     80         -5.813570   1.000000
     81         -5.684075   1.000000
     82         -5.488240   1.000000
     83         -5.401734   1.000000
     84         -5.355386   1.000000
     85         -4.935754   1.000000
     86         -4.771026   1.000000
     87         -4.420599   1.000000
     88         -4.241457   1.000000
     89         -4.143382   1.000000
     90         -3.902888   1.000000
     91         -3.302574   1.000000
     92         -2.946137   1.000000
     93         -2.684436   1.000000
     94         -2.626879   1.000000
     95         -2.097756   1.000000
     96         -2.013743   1.000000
     97         -1.866036   1.000000
     98         -1.694946   1.000000
     99         -1.638054   1.000000
    100         -1.513616   1.000000
    101         -1.482750   1.000000
    102         -1.234859   1.000000
    103         -1.212123   1.000000
    104         -1.193584   1.000000
    105         -1.124621   1.000000
    106         -1.072410   1.000000
    107         -0.784636   1.000000
    108         -0.752520   1.000000
    109         -0.699602   1.000000
    110         -0.607393   1.000000
    111         -0.542440   1.000000
    112         -0.405765   1.000000
    113         -0.396609   1.000000
    114         -0.322408   1.000000
    115         -0.293126   1.000000
    116         -0.212969   1.000000
    117         -0.207158   1.000000
    118         -0.075979   1.000000
    119         -0.025562   1.000000
    120         -0.010961   1.000000
    121          0.057315   1.000000
    122          0.120946   1.000000
    123          0.125457   1.000000
    124          0.202805   1.000001
    125          0.285637   1.000198
    126          0.314779   1.000841
    127          0.360058   1.005370
    128          0.387527   1.012841
    129          0.397409   1.016673
    130          0.418301   1.026064
    131          0.474272   1.022378
    132          0.548991   0.687640
    133          0.580364   0.427894
    134          0.599191   0.277623
    135          0.658252  -0.004744
    136          0.695308  -0.035442
    137          0.731363  -0.023272
    138          0.758957  -0.011839
    139          0.793143  -0.003781
    140          0.797365  -0.003216
    141          0.853946  -0.000245
    142          0.874239  -0.000081
    143          0.896155  -0.000022
    144          0.942743  -0.000001
    145          0.985944  -0.000000
    146          1.041218  -0.000000
    147          1.048760  -0.000000
    148          1.065243  -0.000000
    149          1.100596  -0.000000
    150          1.159431  -0.000000
    151          1.178465  -0.000000
    152          1.186748  -0.000000
    153          1.253878  -0.000000
    154          1.279740  -0.000000
    155          1.321637  -0.000000
    156          1.358489  -0.000000
    157          1.363853  -0.000000
    158          1.384375  -0.000000
    159          1.417538  -0.000000
    160          1.520641  -0.000000
    161          1.542304  -0.000000
    162          1.561915  -0.000000
    163          1.578562  -0.000000
    164          1.614725  -0.000000
    165          1.680402  -0.000000
    166          1.688682  -0.000000
    167          1.732101  -0.000000
    168          1.733406  -0.000000
    169          1.746313  -0.000000
    170          1.854633  -0.000000
    171          1.867003  -0.000000
    172          1.883342  -0.000000
    173          1.902201  -0.000000
    174          2.005270  -0.000000
    175          2.063321  -0.000000
    176          2.102291  -0.000000
    177          2.159768  -0.000000
    178          2.212988  -0.000000
    179          2.315172  -0.000000
    180          2.430663  -0.000000
    181          2.451492  -0.000000
    182          2.556686  -0.000000
    183          2.693553   0.000000
    184          2.721406   0.000000
    185          2.949802   0.000000
    186          3.112546   0.000000
    187          3.193112   0.000000
    188          3.247859   0.000000
    189          3.290003   0.000000
    190          3.399515   0.000000
    191          3.503386   0.000000
    192          3.564395   0.000000
 
  0.1276756E-14  0.3333333E+00  0.8368306E-14  0.1111111E+00
      1        -56.976865   1.000000
      2        -56.935297   1.000000
      3        -56.917023   1.000000
      4        -56.825664   1.000000
      5        -56.611052   1.000000
      6        -56.581298   1.000000
      7        -56.430786   1.000000
      8        -56.380436   1.000000
      9        -56.368795   1.000000
     10        -56.329792   1.000000
     11        -56.168811   1.000000
     12        -56.136830   1.000000
     13        -56.080406   1.000000
     14        -56.071879   1.000000
     15        -56.025130   1.000000
     16        -55.989910   1.000000
     17        -33.354570   1.000000
     18        -33.335190   1.000000
     19        -33.265102   1.000000
     20        -33.244379   1.000000
     21        -33.222152   1.000000
     22        -33.165965   1.000000
     23        -33.159344   1.000000
     24        -33.146973   1.000000
     25        -33.123644   1.000000
     26        -33.094294   1.000000
     27        -33.090516   1.000000
     28        -32.987121   1.000000
     29        -32.978956   1.000000