       N       E                     dE             d eps       ncg     rms          rms(c)
DAV:   1     0.238111469340E+04    0.23811E+04   -0.13076E+05  3200   0.126E+03
DAV:   2     0.741046391255E+02   -0.23070E+04   -0.22435E+04  3392   0.375E+02
DAV:   3    -0.184702350070E+03   -0.25881E+03   -0.25341E+03  6016   0.111E+02
DAV:   4    -0.220715933970E+03   -0.36014E+02   -0.35725E+02  4736   0.339E+01
DAV:   5    -0.224390671259E+03   -0.36747E+01   -0.36744E+01  4992   0.970E+00    0.403E+01
DAV:   6    -0.292038677857E+03   -0.67648E+02   -0.81006E+02  5120   0.450E+01    0.927E+01
DAV:   7    -0.205298867113E+03    0.86740E+02   -0.52642E+02  5120   0.544E+01    0.400E+01
DAV:   8    -0.191967183055E+03    0.13332E+02   -0.17128E+02  4608   0.272E+01    0.282E+01
DAV:   9    -0.183488857754E+03    0.84783E+01   -0.62316E+01  4608   0.148E+01    0.165E+01
DAV:  10    -0.182230234941E+03    0.12586E+01   -0.41072E+01  4608   0.864E+00    0.152E+01
DAV:  11    -0.179193577891E+03    0.30367E+01   -0.26277E+01  4608   0.633E+00    0.110E+01
DAV:  12    -0.177982498442E+03    0.12111E+01   -0.10872E+01  4608   0.604E+00    0.849E+00
DAV:  13    -0.177463439368E+03    0.51906E+00   -0.72010E+00  4608   0.529E+00    0.699E+00
DAV:  14    -0.177360076773E+03    0.10336E+00   -0.48529E+00  4608   0.392E+00    0.688E+00
DAV:  15    -0.177503793616E+03   -0.14372E+00   -0.51538E+00  4608   0.319E+00    0.770E+00
DAV:  16    -0.177342831450E+03    0.16096E+00   -0.38016E+00  4608   0.319E+00    0.543E+00
DAV:  17    -0.177131960434E+03    0.21087E+00   -0.15335E+00  4608   0.242E+00    0.336E+00
DAV:  18    -0.177080255892E+03    0.51705E-01   -0.10159E+00  4608   0.141E+00    0.277E+00
DAV:  19    -0.177038917580E+03    0.41338E-01   -0.36591E-01  4608   0.107E+00    0.132E+00
DAV:  20    -0.177042049271E+03   -0.31317E-02   -0.10899E-01  4608   0.697E-01    0.128E+00
DAV:  21    -0.177037794384E+03    0.42549E-02   -0.14509E-01  4608   0.654E-01    0.886E-01
DAV:  22    -0.177034850877E+03    0.29435E-02   -0.34922E-02  4608   0.366E-01    0.455E-01
DAV:  23    -0.177034590680E+03    0.26020E-03   -0.10322E-02  4608   0.290E-01    0.298E-01
DAV:  24    -0.177036863677E+03   -0.22730E-02   -0.10740E-02  4608   0.135E-01    0.262E-01
DAV:  25    -0.177038045799E+03   -0.11821E-02   -0.26963E-03  4608   0.124E-01    0.168E-01
DAV:  26    -0.177039088925E+03   -0.10431E-02   -0.26479E-03  4608   0.111E-01    0.101E-01
DAV:  27    -0.177040378583E+03   -0.12897E-02   -0.10455E-03  4544   0.686E-02    0.982E-02
DAV:  28    -0.177040774402E+03   -0.39582E-03   -0.59511E-04  4608   0.552E-02    0.712E-02
DAV:  29    -0.177041705930E+03   -0.93153E-03   -0.35571E-04  4416   0.374E-02    0.486E-02
DAV:  30    -0.177041988623E+03   -0.28269E-03   -0.19393E-04  4224   0.354E-02    0.443E-02
DAV:  31    -0.177042597233E+03   -0.60861E-03   -0.13354E-04  3904   0.232E-02    0.227E-02
DAV:  32    -0.177042759097E+03   -0.16186E-03   -0.57790E-05  4096   0.197E-02    0.163E-02
DAV:  33    -0.177043055511E+03   -0.29641E-03   -0.31315E-05  3840   0.111E-02    0.698E-03
DAV:  34    -0.177043196436E+03   -0.14092E-03   -0.12880E-05  3712   0.700E-03    0.928E-03
DAV:  35    -0.177043251766E+03   -0.55330E-04   -0.66018E-06  3072   0.641E-03    0.401E-03
DAV:  36    -0.177043334155E+03   -0.82389E-04   -0.75634E-06  3520   0.297E-03    0.152E-03
DAV:  37    -0.177043360923E+03   -0.26768E-04   -0.11293E-06  3072   0.146E-03    0.138E-03
DAV:  38    -0.177043381950E+03   -0.21027E-04   -0.13576E-06  2944   0.112E-03    0.650E-04
DAV:  39    -0.177043391831E+03   -0.98813E-05   -0.53172E-07  2880   0.734E-04
   1 F= -.17704339E+03 E0= -.17703904E+03  d E =-.130679E-01
