 vasp.6.5.0 16Dec24 (build Apr 17 2025 17:55:45) complex                        
  
 executed on             LinuxIFC date 2025.06.10  15:31:49
 running   64 mpi-ranks, on    1 nodes
 distrk:  each k-point on   64 cores,    1 groups
 distr:  one band on NCORE=   1 cores,   64 groups


--------------------------------------------------------------------------------------------------------


 INCAR:
   ISTART = 0
   ICHARG = 2
   PREC = N
   LREAL = .FALSE.
   ENCUT = 520
   ALGO = N
   NELM = 500
   EDIFF = 1E-05
   IBRION = -1
   ISIF = 3
   NSW = 0
   EDIFFG = -0.01
   ISMEAR = 1
   SIGMA = 0.1
   LVHAR = .TRUE.
   LVTOT = .TRUE.

 POTCAR:    PAW_PBE Ti_sv 26Sep2005               
 POTCAR:    PAW_PBE Al 04Jan2001                  
 POTCAR:    PAW_PBE Ga_d 06Jul2010                
 -----------------------------------------------------------------------------
|                                                                             |
|           W    W    AA    RRRRR   N    N  II  N    N   GGGG   !!!           |
|           W    W   A  A   R    R  NN   N  II  NN   N  G    G  !!!           |
|           W    W  A    A  R    R  N N  N  II  N N  N  G       !!!           |
|           W WW W  AAAAAA  RRRRR   N  N N  II  N  N N  G  GGG   !            |
|           WW  WW  A    A  R   R   N   NN  II  N   NN  G    G                |
|           W    W  A    A  R    R  N    N  II  N    N   GGGG   !!!           |
|                                                                             |
|     For optimal performance we recommend to set                             |
|       NCORE = 2 up to number-of-cores-per-socket                            |
|     NCORE specifies how many cores store one orbital (NPAR=cpu/NCORE).      |
|     This setting can greatly improve the performance of VASP for DFT.       |
|     The default, NCORE=1 might be grossly inefficient on modern             |
|     multi-core architectures or massively parallel machines. Do your        |
|     own testing! More info at https://www.vasp.at/wiki/index.php/NCORE      |
|     Unfortunately you need to use the default for GW and RPA                |
|     calculations (for HF NCORE is supported but not extensively tested      |
|     yet).                                                                   |
|                                                                             |
 -----------------------------------------------------------------------------

 POTCAR:    PAW_PBE Ti_sv 26Sep2005               
   SHA256 =  4d747badb5a5ea28d858fbac70885b3f8929d6fd9e5b0dbe1ecb9878dc164da1 Ti_sv/POTCAR          
   COPYR  = (c) Copyright 26Sep2005 Georg Kresse                                                    
   COPYR  = This file is part of the software VASP. Any use, copying, and all other rights are regul
   COPYR  = If you do not have a valid VASP license, you may not use, copy or distribute this file. 
   VRHFIN =Ti: 3p4s3d                                                                               
   LEXCH  = PE                                                                                      
   EATOM  =  1588.0892 eV,  116.7213 Ry                                                             
                                                                                                    
   TITEL  = PAW_PBE Ti_sv 26Sep2005                                                                 
   LULTRA =        F    use ultrasoft PP ?                                                          
   IUNSCR =        1    unscreen: 0-lin 1-nonlin 2-no                                               
   RPACOR =    2.000    partial core radius                                                         
   POMASS =   47.880; ZVAL   =   12.000    mass and valenz                                          
   RCORE  =    2.300    outmost cutoff radius                                                       
   RWIGS  =    2.300; RWIGS  =    1.217    wigner-seitz radius (au A)                               
   ENMAX  =  274.610; ENMIN  =  205.957 eV                                                          
   ICORE  =        3    local potential                                                             
   LCOR   =        T    correct aug charges                                                         
   LPAW   =        T    paw PP                                                                      
   EAUG   =  482.848                                                                                
   RMAX   =    2.348    core radius for proj-oper                                                   
   RAUG   =    1.300    factor for augmentation sphere                                              
   RDEP   =    2.381    radius for radial grids                                                     
   RDEPT  =    1.930    core radius for aug-charge                                                  
                                                                                                    
   Atomic configuration                                                                             
    8 entries                                                                                       
     n  l   j            E        occ.                                                              
     1  0  0.50     -4865.3608   2.0000                                                             
     2  0  0.50      -533.1368   2.0000                                                             
     2  1  1.50      -440.5031   6.0000                                                             
     3  0  0.50       -59.3186   2.0000                                                             
     4  0  0.50        -3.7291   1.0000                                                             
     3  1  1.50       -35.7012   6.0000                                                             
     3  2  2.50        -1.9157   3.0000                                                             
     4  3  2.50        -1.3606   0.0000                                                             
   Description                                                                                      
     l       E           TYP  RCUT    TYP  RCUT                                                     
     0    -59.3185931     23  1.800                                                                 
     0     -3.7290822     23  2.300                                                                 
     1    -35.7012045     23  2.300                                                                 
     1     -1.3605826     23  2.300                                                                 
     2     -1.9156920     23  2.300                                                                 
     2     -0.0236318     23  2.300                                                                 
     3     -1.3605826     23  2.300                                                                 
  local pseudopotential read in
  partial core-charges read in
  partial kinetic energy density read in
  atomic valenz-charges read in
  non local Contribution for L=           0  read in
    real space projection operators read in
  non local Contribution for L=           0  read in
    real space projection operators read in
  non local Contribution for L=           1  read in
    real space projection operators read in
  non local Contribution for L=           1  read in
    real space projection operators read in
  non local Contribution for L=           2  read in
    real space projection operators read in
  non local Contribution for L=           2  read in
    real space projection operators read in
    PAW grid and wavefunctions read in
 
   number of l-projection  operators is LMAX  =           6
   number of lm-projection operators is LMMAX =          18
 
 POTCAR:    PAW_PBE Al 04Jan2001                  
   SHA256 =  17880443556af62b473fe41b62a467bd001ad55d2cabe504a3f22e34d4e9db96 Al/POTCAR             
   COPYR  = (c) Copyright 04Jan2001 Georg Kresse                                                    
   COPYR  = This file is part of the software VASP. Any use, copying, and all other rights are regul
   COPYR  = If you do not have a valid VASP license, you may not use, copy or distribute this file. 
   VRHFIN =Al: s2p1                                                                                 
   LEXCH  = PE                                                                                      
   EATOM  =    53.5387 eV,    3.9350 Ry                                                             
                                                                                                    
   TITEL  = PAW_PBE Al 04Jan2001                                                                    
   LULTRA =        F    use ultrasoft PP ?                                                          
   IUNSCR =        1    unscreen: 0-lin 1-nonlin 2-no                                               
   RPACOR =    1.500    partial core radius                                                         
   POMASS =   26.981; ZVAL   =    3.000    mass and valenz                                          
   RCORE  =    1.900    outmost cutoff radius                                                       
   RWIGS  =    2.650; RWIGS  =    1.402    wigner-seitz radius (au A)                               
   ENMAX  =  240.300; ENMIN  =  180.225 eV                                                          
   ICORE  =        2    local potential                                                             
   LCOR   =        T    correct aug charges                                                         
   LPAW   =        T    paw PP                                                                      
   EAUG   =  291.052                                                                                
   DEXC   =    0.000                                                                                
   RMAX   =    1.939    core radius for proj-oper                                                   
   RAUG   =    1.300    factor for augmentation sphere                                              
   RDEP   =    1.966    radius for radial grids                                                     
   RDEPT  =    1.856    core radius for aug-charge                                                  
                                                                                                    
   Atomic configuration                                                                             
    6 entries                                                                                       
     n  l   j            E        occ.                                                              
     1  0  0.50     -1511.1048   2.0000                                                             
     2  0  0.50      -108.1629   2.0000                                                             
     2  1  1.50       -69.6402   6.0000                                                             
     3  0  0.50        -7.7528   2.0000                                                             
     3  1  1.50        -2.7121   1.0000                                                             
     3  2  2.50        -2.7212   0.0000                                                             
   Description                                                                                      
     l       E           TYP  RCUT    TYP  RCUT                                                     
     0     -7.7528455     23  1.900                                                                 
     0     -3.3096929     23  1.900                                                                 
     1     -2.7120682     23  1.900                                                                 
     1     13.6058260     23  1.900                                                                 
     2     -2.7211652      7  1.900                                                                 
  local pseudopotential read in
  partial core-charges read in
  partial kinetic energy density read in
  atomic valenz-charges read in
  non local Contribution for L=           0  read in
    real space projection operators read in
  non local Contribution for L=           0  read in
    real space projection operators read in
  non local Contribution for L=           1  read in
    real space projection operators read in
  non local Contribution for L=           1  read in
    real space projection operators read in
    PAW grid and wavefunctions read in
 
   number of l-projection  operators is LMAX  =           4
   number of lm-projection operators is LMMAX =           8
 
 POTCAR:    PAW_PBE Ga_d 06Jul2010                
   SHA256 =  a60ddf36e14f00ea098d9e3914b3745f1b7105e68786148f49ae384e44b4226c Ga_d/POTCAR           
   COPYR  = (c) Copyright 06Jul2010 Georg Kresse                                                    
   COPYR  = This file is part of the software VASP. Any use, copying, and all other rights are regul
   COPYR  = If you do not have a valid VASP license, you may not use, copy or distribute this file. 
   VRHFIN =Ga: s2p1                                                                                 
   LEXCH  = PE                                                                                      
   EATOM  =  2148.8298 eV,  157.9345 Ry                                                             
                                                                                                    
   TITEL  = PAW_PBE Ga_d 06Jul2010                                                                  
   LULTRA =        F    use ultrasoft PP ?                                                          
   IUNSCR =        1    unscreen: 0-lin 1-nonlin 2-no                                               
   RPACOR =    1.700    partial core radius                                                         
   POMASS =   69.723; ZVAL   =   13.000    mass and valenz                                          
   RCORE  =    2.300    outmost cutoff radius                                                       
   RWIGS  =    2.300; RWIGS  =    1.217    wigner-seitz radius (au A)                               
   ENMAX  =  282.691; ENMIN  =  212.018 eV                                                          
   ICORE  =        3    local potential                                                             
   LCOR   =        T    correct aug charges                                                         
   LPAW   =        T    paw PP                                                                      
   EAUG   =  490.690                                                                                
   DEXC   =    0.000                                                                                
   RMAX   =    2.341    core radius for proj-oper                                                   
   RAUG   =    1.300    factor for augmentation sphere                                              
   RDEP   =    2.413    radius for radial grids                                                     
   RDEPT  =    1.856    core radius for aug-charge                                                  
                                                                                                    
   Atomic configuration                                                                             
    9 entries                                                                                       
     n  l   j            E        occ.                                                              
     1  0  0.50    -10228.7831   2.0000                                                             
     2  0  0.50     -1262.1604   2.0000                                                             
     2  1  1.50     -1098.6333   6.0000                                                             
     3  0  0.50      -148.1110   2.0000                                                             
     3  1  1.50       -98.8436   6.0000                                                             
     3  2  2.50       -19.1549  10.0000                                                             
     4  0  0.50        -8.9483   2.0000                                                             
     4  1  0.50        -2.5791   1.0000                                                             
     4  3  2.50        -2.7416   0.0000                                                             
   Description                                                                                      
     l       E           TYP  RCUT    TYP  RCUT                                                     
     2    -19.1549037     23  2.300                                                                 
     2     -5.4423304     23  2.300                                                                 
     0     -8.9483111     23  2.300                                                                 
     0     68.0291300     23  2.300                                                                 
     1     -2.5790802     23  2.100                                                                 
     1     81.6349560     23  2.300                                                                 
     3      6.8029130     23  2.300                                                                 
  local pseudopotential read in
  partial core-charges read in
  partial kinetic energy density read in
  atomic valenz-charges read in
  non local Contribution for L=           2  read in
    real space projection operators read in
  non local Contribution for L=           2  read in
    real space projection operators read in
  non local Contribution for L=           0  read in
    real space projection operators read in
  non local Contribution for L=           0  read in
    real space projection operators read in
  non local Contribution for L=           1  read in
    real space projection operators read in
  non local Contribution for L=           1  read in
    real space projection operators read in
    PAW grid and wavefunctions read in
 
   number of l-projection  operators is LMAX  =           6
   number of lm-projection operators is LMMAX =          18
 
 -----------------------------------------------------------------------------
|                                                                             |
|               ----> ADVICE to this user running VASP <----                  |
|                                                                             |
|     You have a (more or less) 'large supercell' and for larger cells it     |
|     might be more efficient to use real-space projection operators.         |
|     Therefore, try LREAL= Auto in the INCAR file.                           |
|     Mind: For very accurate calculation, you might also keep the            |
|     reciprocal projection scheme (i.e. LREAL=.FALSE.).                      |
|                                                                             |
 -----------------------------------------------------------------------------

  PAW_PBE Ti_sv 26Sep2005               :
 energy of atom  1       EATOM=-1588.0892
 kinetic energy error for atom=    0.0042 (will be added to EATOM!!)
  PAW_PBE Al 04Jan2001                  :
 energy of atom  2       EATOM=  -53.5387
 kinetic energy error for atom=    0.0002 (will be added to EATOM!!)
  PAW_PBE Ga_d 06Jul2010                :
 energy of atom  3       EATOM=-2148.8298
 kinetic energy error for atom=    0.0026 (will be added to EATOM!!)
 
 
 POSCAR: Generated by VASPKIT code
  positions in direct lattice
  No initial velocities read in


 exchange-correlation table for PE
   RHO(1)=    0.500       N(1)  =     2000
   RHO(2)=  100.500       N(2)  =     4000
 


--------------------------------------------------------------------------------------------------------


 ion  position               nearest neighbor table
   1  0.000  0.991  0.331-  17 2.69  25 2.69  22 2.79  30 2.79
   2  0.000  0.491  0.503-  18 2.69  26 2.69  24 2.69  32 2.69  29 2.79  21 2.79  27 2.79  19 2.79

   3  0.000  0.759  0.411-  22 2.69  30 2.69  27 2.69  19 2.69  17 2.79  25 2.79  24 2.79  32 2.79

   4  0.000  0.259  0.583-  21 2.69  29 2.69  28 2.69  20 2.69  18 2.79  26 2.79  23 2.79  31 2.79

   5  0.000  0.252  0.413-  21 2.85  29 2.85  17 2.96  25 2.96  32 2.96  24 2.96
   6  0.000  0.752  0.585-  19 2.84  27 2.84  18 2.96  26 2.96  23 2.96  31 2.96
   7  0.000  0.998  0.501-  23 2.84  31 2.84  25 2.85  17 2.85  29 2.96  21 2.96  19 2.96  27 2.96

   8  0.000  0.498  0.329-  24 2.84  32 2.84  30 2.96  22 2.96
   9  0.500  0.002  0.671-  23 2.80  31 2.80  28 2.89  20 2.89
  10  0.500  0.502  0.499-  24 2.80  32 2.80  26 2.84  18 2.84  27 2.89  19 2.89  29 2.95  21 2.95

  11  0.500  0.748  0.415-  19 2.80  27 2.80  22 2.84  30 2.84  24 2.89  32 2.89  17 2.95  25 2.95

  12  0.500  0.248  0.587-  20 2.80  28 2.80  21 2.84  29 2.84  23 2.89  31 2.89  18 2.95  26 2.95

  13  0.500  0.227  0.422-  34 2.20  29 2.67  21 2.67  25 2.77  17 2.77
  14  0.500  0.727  0.594-  33 2.20  26 2.77  18 2.77
  15  0.500  0.023  0.492-  33 2.20  25 2.67  17 2.67  21 2.77  29 2.77
  16  0.500  0.523  0.664-  18 2.67  26 2.67
  17  0.243  0.996  0.413-  15 2.67   1 2.69  13 2.77   3 2.79  25 2.84   7 2.85  11 2.95   5 2.96
                            25 3.01  22 3.19
  18  0.243  0.496  0.585-  16 2.67   2 2.69  14 2.77   4 2.79  10 2.84  26 2.84  12 2.95   6 2.96
                            26 3.01  21 3.19
  19  0.214  0.732  0.494-  27 2.51  33 2.52   3 2.69   2 2.79  11 2.80  24 2.81   6 2.84  10 2.89
                             7 2.96  27 3.35
  20  0.214  0.232  0.666-  28 2.51   4 2.69  12 2.80  23 2.81   9 2.89  28 3.35
  21  0.243  0.254  0.501-  13 2.67   4 2.69  15 2.77   2 2.79  12 2.84  29 2.84   5 2.85  10 2.95
                             7 2.96  29 3.01  18 3.19
  22  0.243  0.754  0.329-   3 2.69   1 2.79  11 2.84  30 2.84   8 2.96  30 3.01  17 3.19
  23  0.214  0.018  0.592-  31 2.51  33 2.52   4 2.79   9 2.80  20 2.81   7 2.84  12 2.89   6 2.96
                            31 3.35
  24  0.214  0.518  0.420-  32 2.51  34 2.52   2 2.69   3 2.79  10 2.80  19 2.81   8 2.84  11 2.89
                             5 2.96  32 3.35
  25  0.757  0.996  0.413-  15 2.67   1 2.69  13 2.77   3 2.79  17 2.84   7 2.85  11 2.95   5 2.96
                            17 3.01  30 3.19
  26  0.757  0.496  0.585-  16 2.67   2 2.69  14 2.77   4 2.79  10 2.84  18 2.84  12 2.95   6 2.96
                            18 3.01  29 3.19
  27  0.786  0.732  0.494-  19 2.51  33 2.52   3 2.69   2 2.79  11 2.80  32 2.81   6 2.84  10 2.89
                             7 2.96  19 3.35
  28  0.786  0.232  0.666-  20 2.51   4 2.69  12 2.80  31 2.81   9 2.89  20 3.35
  29  0.757  0.254  0.501-  13 2.67   4 2.69  15 2.77   2 2.79  12 2.84  21 2.84   5 2.85  10 2.95
                             7 2.96  21 3.01  26 3.19
  30  0.757  0.754  0.329-   3 2.69   1 2.79  11 2.84  22 2.84   8 2.96  22 3.01  25 3.19
  31  0.786  0.018  0.592-  23 2.51  33 2.52   4 2.79   9 2.80  28 2.81   7 2.84  12 2.89   6 2.96
                            23 3.35
  32  0.786  0.518  0.420-  24 2.51  34 2.52   2 2.69   3 2.79  10 2.80  27 2.81   8 2.84  11 2.89
                             5 2.96  24 3.35
  33  0.500  0.875  0.543-  14 2.20  15 2.20  19 2.52  23 2.52  27 2.52  31 2.52
  34  0.500  0.375  0.371-  13 2.20  24 2.52  32 2.52
 
  LATTYP: Found a simple monoclinic cell.
 ALAT       =    10.1595299535
 B/A-ratio  =     0.5766463142
 C/A-ratio  =     2.7592498170
 COS(beta)  =    -0.1213946104
  
  Lattice vectors:
  
 A1 = (   0.0000000000,  10.1595299535,   0.0000000000)
 A2 = (  -5.8584555020,   0.0000000000,   0.0000000000)
 A3 = (   0.0000000000,  -3.4030164088,  27.8253606017)


Analysis of symmetry for initial positions (statically):
=====================================================================
 Subroutine PRICEL returns:
 Original cell was already a primitive cell.
 

 Routine SETGRP: Setting up the symmetry group for a 
 simple monoclinic supercell.


 Subroutine GETGRP returns: Found  2 space group operations
 (whereof  2 operations were pure point group operations)
 out of a pool of  4 trial point group operations.


The static configuration has the point symmetry C_1h.


Analysis of symmetry for dynamics (positions and initial velocities):
=====================================================================
 Subroutine PRICEL returns:
 Original cell was already a primitive cell.
 

 Routine SETGRP: Setting up the symmetry group for a 
 simple monoclinic supercell.


 Subroutine GETGRP returns: Found  2 space group operations
 (whereof  2 operations were pure point group operations)
 out of a pool of  4 trial point group operations.


The dynamic configuration has the point symmetry C_1h.


 Subroutine INISYM returns: Found  2 space group operations
 (whereof  2 operations are pure point group operations),
 and found     1 'primitive' translations


----------------------------------------------------------------------------------------

                                     Primitive cell                                     

  volume of cell :    1656.1419

  direct lattice vectors                    reciprocal lattice vectors
     5.858455502  0.000000000  0.000000000     0.170693453 -0.000000000 -0.000000000
     0.000000000 10.159529953  0.000000000     0.000000000  0.098429751  0.012037869
     0.000000000 -3.403016409 27.825360602     0.000000000  0.000000000  0.035938438

  length of vectors
     5.858455502 10.159529953 28.032681165     0.170693453  0.099163129  0.035938438

  position of ions in fractional coordinates (direct lattice)
     0.000000000  0.990663162  0.331199163
     0.000000000  0.490663162  0.503212114
     0.000000000  0.759336838  0.410781410
     0.000000000  0.259336838  0.582794362
     0.000000000  0.252246433  0.413220693
     0.000000000  0.752246433  0.585233645
     0.000000000  0.997753567  0.500772831
     0.000000000  0.497753567  0.328759880
     0.500000000  0.002246433  0.671240120
     0.500000000  0.502246433  0.499227169
     0.500000000  0.747753567  0.414766355
     0.500000000  0.247753567  0.586779307
     0.500000000  0.226808592  0.421971970
     0.500000000  0.726808592  0.593984921
     0.500000000  0.023191408  0.492021555
     0.500000000  0.523191408  0.664034506
     0.242685310  0.996342655  0.412735303
     0.242685310  0.496342655  0.584748254
     0.213916829  0.731958414  0.493793227
     0.213916829  0.231958414  0.665806178
     0.242685310  0.253657345  0.501258221
     0.242685310  0.753657345  0.329245270
     0.213916829  0.018041586  0.592213248
     0.213916829  0.518041586  0.420200297
     0.757314690  0.996342655  0.412735303
     0.757314690  0.496342655  0.584748254
     0.786083171  0.731958414  0.493793227
     0.786083171  0.231958414  0.665806178
     0.757314690  0.253657345  0.501258221
     0.757314690  0.753657345  0.329245270
     0.786083171  0.018041586  0.592213248
     0.786083171  0.518041586  0.420200297
     0.500000000  0.875000000  0.543003238
     0.500000000  0.375000000  0.370990287

  ion indices of the primitive-cell ions
   primitive index   ion index
                 1           1
                 2           2
                 3           3
                 4           4
                 5           5
                 6           6
                 7           7
                 8           8
                 9           9
                10          10
                11          11
                12          12
                13          13
                14          14
                15          15
                16          16
                17          17
                18          18
                19          19
                20          20
                21          21
                22          22
                23          23
                24          24
                25          25
                26          26
                27          27
                28          28
                29          29
                30          30
                31          31
                32          32
                33          33
                34          34

----------------------------------------------------------------------------------------

 
 
 KPOINTS: K-Spacing Value to Generate K-Mesh: 0.03

Automatic generation of k-mesh.
 Grid dimensions read from file:
 generate k-points for:    6    3    1

 Generating k-lattice:

  Cartesian coordinates                     Fractional coordinates (reciprocal lattice)
     0.028448909 -0.000000000 -0.000000000     0.166666667  0.000000000  0.000000000
     0.000000000  0.032809917  0.004012623     0.000000000  0.333333333  0.000000000
     0.000000000  0.000000000  0.035938438     0.000000000  0.000000000  1.000000000

  Length of vectors
     0.028448909  0.033054376  0.035938438

  Shift w.r.t. Gamma in fractional coordinates (k-lattice)
     0.000000000  0.000000000  0.000000000

 
 Subroutine IBZKPT returns following result:
 ===========================================
 
 Found      8 irreducible k-points:
 
 Following reciprocal coordinates:
            Coordinates               Weight
  0.000000  0.000000  0.000000      1.000000
  0.166667  0.000000  0.000000      2.000000
  0.333333  0.000000  0.000000      2.000000
  0.500000  0.000000  0.000000      1.000000
  0.000000  0.333333  0.000000      2.000000
  0.166667  0.333333  0.000000      4.000000
  0.333333  0.333333  0.000000      4.000000
  0.500000  0.333333  0.000000      2.000000
 
 Following cartesian coordinates:
            Coordinates               Weight
  0.000000  0.000000  0.000000      1.000000
  0.028449  0.000000  0.000000      2.000000
  0.056898  0.000000  0.000000      2.000000
  0.085347  0.000000  0.000000      1.000000
  0.000000  0.032810  0.004013      2.000000
  0.028449  0.032810  0.004013      4.000000
  0.056898  0.032810  0.004013      4.000000
  0.085347  0.032810  0.004013      2.000000
 


--------------------------------------------------------------------------------------------------------




 Dimension of arrays:
   k-points           NKPTS =      8   k-points in BZ     NKDIM =      8   number of bands    NBANDS=    192
   number of dos      NEDOS =    301   number of ions     NIONS =     34
   non local maximal  LDIM  =      6   non local SUM 2l+1 LMDIM =     18
   total plane-waves  NPLWV = 345600
   max r-space proj   IRMAX =      1   max aug-charges    IRDMAX=   8320
   dimension x,y,z NGX =    36 NGY =   60 NGZ =  160
   dimension x,y,z NGXF=    72 NGYF=  120 NGZF=  320
   support grid    NGXF=    72 NGYF=  120 NGZF=  320
   ions per type =              16  16   2
   NGX,Y,Z   is equivalent  to a cutoff of  10.22,  9.82,  9.49 a.u.
   NGXF,Y,Z  is equivalent  to a cutoff of  20.43, 19.64, 18.98 a.u.

 SYSTEM =  unknown system                          
 POSCAR =  Generated by VASPKIT code               

 Startparameter for this run:
   NWRITE =      2    write-flag & timer
   PREC   = n         normal or accurate (medium, high low for compatibility)
   ISTART =      0    job   : 0-new  1-cont  2-samecut
   ICHARG =      2    charge: 1-file 2-atom 10-const
   ISPIN  =      1    spin polarized calculation?
   LNONCOLLINEAR =      F non collinear calculations
   LSORBIT =      F    spin-orbit coupling
   INIWAV =      1    electr: 0-lowe 1-rand  2-diag
   LASPH  =      F    aspherical Exc in radial PAW
 Electronic Relaxation 1
   ENCUT  =  520.0 eV  38.22 Ry    6.18 a.u.  10.89 18.89 52.12*2*pi/ulx,y,z
   ENINI  =  520.0     initial cutoff
   ENAUG  =  490.7 eV  augmentation charge cutoff
   NELM   =    500;   NELMIN=  2; NELMDL= -5     # of ELM steps 
   EDIFF  = 0.1E-04   stopping-criterion for ELM
   LREAL  =      F    real-space projection
   NLSPLINE    = F    spline interpolate recip. space projectors
   LCOMPAT=      F    compatible to vasp.4.4
   GGA_COMPAT  = T    GGA compatible to vasp.4.4-vasp.4.6
   LMAXPAW     = -100 max onsite density
   LMAXMIX     =    2 max onsite mixed and CHGCAR
   VOSKOWN=      0    Vosko Wilk Nusair interpolation
   ROPT   =    0.00000   0.00000   0.00000
 Ionic relaxation
   EDIFFG = -.1E-01   stopping-criterion for IOM
   NSW    =      0    number of steps for IOM
   NBLOCK =      1;   KBLOCK =      1    inner block; outer block 
   IBRION =     -1    ionic relax: 0-MD 1-quasi-New 2-CG
   NFREE  =      0    steps in history (QN), initial steepest desc. (CG)
   ISIF   =      3    stress and relaxation
   IWAVPR =     10    prediction:  0-non 1-charg 2-wave 3-comb
   ISYM   =      2    0-nonsym 1-usesym 2-fastsym
   LCORR  =      T    Harris-Foulkes like correction to forces

   POTIM  = 0.5000    time-step for ionic-motion
   TEIN   =    0.0    initial temperature
   TEBEG  =    0.0;   TEEND  =   0.0 temperature during run
   SMASS  =  -3.00    Nose mass-parameter (am)
   estimated Nose-frequenzy (Omega)   =  0.10E-29 period in steps = 0.13E+47 mass=  -0.784E-27a.u.
   SCALEE = 1.0000    scale energy and forces
   NPACO  =    256;   APACO  = 10.0  distance and # of slots for P.C.
   PSTRESS=    0.0 pullay stress

  Mass of Ions in am
   POMASS =  47.88 26.98 69.72
  Ionic Valenz
   ZVAL   =  12.00  3.00 13.00
  Atomic Wigner-Seitz radii
   RWIGS  =  -1.00 -1.00 -1.00
  virtual crystal weights 
   VCA    =   1.00  1.00  1.00
   NELECT =     266.0000    total number of electrons
   NUPDOWN=      -1.0000    fix difference up-down

 DOS related values:
   EMIN   =  10.00;   EMAX   =-10.00  energy-range for DOS
   EFERMI =   0.00;   METHOD = LEGACY      
   ISMEAR =     1;   SIGMA  =   0.10  broadening in eV -4-tet -1-fermi 0-gaus
   EFERMI_NEDOS =   21; number of points for ismear=-14 and -15

 Electronic relaxation 2 (details)
   IALGO  =     38    algorithm
   LDIAG  =      T    sub-space diagonalisation (order eigenvalues)
   LSUBROT=      F    optimize rotation matrix (better conditioning)
   TURBO    =      0    0=normal 1=particle mesh
   IRESTART =      0    0=no restart 2=restart with 2 vectors
   NREBOOT  =      0    no. of reboots
   NMIN     =      0    reboot dimension
   EREF     =   0.00    reference energy to select bands
   IMIX   =      4    mixing-type and parameters
     AMIX     =   0.40;   BMIX     =  1.00
     AMIX_MAG =   1.60;   BMIX_MAG =  1.00
     AMIN     =   0.10
     WC   =   100.;   INIMIX=   1;  MIXPRE=   1;  MAXMIX= -45

 Intra band minimization:
   WEIMIN = 0.0000     energy-eigenvalue tresh-hold
   EBREAK =  0.13E-07  absolut break condition
   DEPER  =   0.30     relativ break condition  

   TIME   =   0.40     timestep for ELM

  volume/ion in A,a.u.               =      48.71       328.71
  Fermi-wavevector in a.u.,A,eV,Ry     =   0.889890  1.681648 10.774504  0.791904
  Thomas-Fermi vector in A             =   2.011509
 
 Write flags
   LWAVE        =      T    write WAVECAR
   LDOWNSAMPLE  =      F    k-point downsampling of WAVECAR
   LCHARG       =      T    write CHGCAR
   LVTOT        =      F    write LOCPOT, total local potential
   LVHAR        =      T    write LOCPOT, Hartree potential only
   WRT_POTENTIAL=  hartree ionic  ! write potential to hdf5 file
   LELF         =      F    write electronic localiz. function (ELF)
   LORBIT       =      0    0 simple, 1 ext, 2 COOP (PROOUT), +10 PAW based schemes


 Python interface
   PLUGINS active      =      F    recompile with -DPLUGINS to activate
 
 Dipole corrections
   LMONO      =      F    monopole corrections only (constant potential shift)
   LDIPOL     =      F    correct potential (dipole corrections)
   IDIPOL     =      0    1-x, 2-y, 3-z, 4-all directions 
   EPSILON    =  1.0000000 bulk dielectric constant
   LVACPOTAV  =      F  vacuum potentials using an averaging scheme for the charge density
   VACPOTFLAT =  0.1000000 required flatness to determine vacuum potential
 
Coulomb truncation method
  LTRUNCATE          =      F  Coulomb kernel truncation to be used
  IDIMENSIONALITY    =      3  Dimensionality of cutoff (0 molecules / 2 surfaces)
  ISURFACE           =     -1  Direction of surface normal
  LCOARSEN           =      F  Coarsen the charge grid before padding, preferred

 
 Exchange correlation treatment:
   GGA     = PE    functional components
   XC_C    = 1    coefficients multiplying the functional components
   LIBXC   =     F    Libxc                    
   VOSKOWN =     0    Vosko Wilk Nusair interpolation
   LHFCALC =     F    Hartree Fock is set to
   LHFONE  =     F    Hartree Fock one center treatment
   AEXX    =    0.0000 exact exchange contribution

 Parameters of functionals:
   PE:
     No parameter
 
 Van der Waals corrections
   IVDW    =     0    specifies the selected vdW correction

 Linear response parameters
   LEPSILON=     F    determine dielectric tensor
   LRPA    =     F    only Hartree local field effects (RPA)
   LNABLA  =     F    use nabla operator in PAW spheres
   LVEL    =     F    velocity operator in full k-point grid
   CSHIFT  =0.1000    complex shift for real part using Kramers Kronig
   OMEGAMAX=  -1.0    maximum frequency
   DEG_THRESHOLD= 0.2000000E-02 threshold for treating states as degnerate
   RTIME   =   -0.100 relaxation time in fs
  (WPLASMAI=    0.000 imaginary part of plasma frequency in eV, 0.658/RTIME)
   DFIELD  = 0.0000000 0.0000000 0.0000000 field for delta impulse in time
 
  Optional k-point grid parameters
   LKPOINTS_OPT  =     F    use optional k-point grid
   KPOINTS_OPT_MODE=     1    mode for optional k-point grid
 
 Orbital magnetization related:
   ORBITALMAG=     F  switch on orbital magnetization
   LCHIMAG   =     F  perturbation theory with respect to B field
   DQ        =  0.001000  dq finite difference perturbation B field
   LLRAUG    =     F  two centre corrections for induced B field
   LBONE     =     F  B-component reconstruction in AE one-centre
   LVGVCALC  =     T  calculate vGv susceptibility
   LVGVAPPL  =     F  apply vGv susceptibility instead of pGv for G=0

 Random number generation:
   RANDOM_GENERATOR = DEFAULT
   PCG_SEED         = not used


--------------------------------------------------------------------------------------------------------


 Static calculation
 charge density and potential will be updated during run
 non-spin polarized calculation
 Variant of blocked Davidson
 Davidson routine will perform the subspace rotation
 perform sub-space diagonalisation
    after iterative eigenvector-optimisation
 modified Broyden-mixing scheme, WC =      100.0
 initial mixing is a Kerker type mixing with AMIX =  0.4000 and BMIX =      1.0000
 Hartree-type preconditioning will be used
 using additional bands           59
 reciprocal scheme for non local part
 use partial core corrections
 calculate Harris-corrections to forces 
   (improved forces if not selfconsistent)
 use gradient corrections 
 use of overlap-Matrix (Vanderbilt PP)
 Methfessel and Paxton  Order N= 1 SIGMA  =   0.10


--------------------------------------------------------------------------------------------------------


  energy-cutoff  :      520.00
  volume of cell :     1656.14
      direct lattice vectors                 reciprocal lattice vectors
     5.858455502  0.000000000  0.000000000     0.170693453 -0.000000000 -0.000000000
     0.000000000 10.159529953  0.000000000     0.000000000  0.098429751  0.012037869
     0.000000000 -3.403016409 27.825360602     0.000000000  0.000000000  0.035938438

  length of vectors
     5.858455502 10.159529953 28.032681165     0.170693453  0.099163129  0.035938438


 
 k-points in units of 2pi/SCALE and weight: K-Spacing Value to Generate K-Mesh: 0.03
   0.00000000  0.00000000  0.00000000       0.056
   0.02844891  0.00000000  0.00000000       0.111
   0.05689782  0.00000000  0.00000000       0.111
   0.08534673  0.00000000  0.00000000       0.056
   0.00000000  0.03280992  0.00401262       0.111
   0.02844891  0.03280992  0.00401262       0.222
   0.05689782  0.03280992  0.00401262       0.222
   0.08534673  0.03280992  0.00401262       0.111
 
 k-points in reciprocal lattice and weights: K-Spacing Value to Generate K-Mesh: 0.03
   0.00000000  0.00000000  0.00000000       0.056
   0.16666667  0.00000000  0.00000000       0.111
   0.33333333  0.00000000  0.00000000       0.111
   0.50000000  0.00000000  0.00000000       0.056
   0.00000000  0.33333333  0.00000000       0.111
   0.16666667  0.33333333  0.00000000       0.222
   0.33333333  0.33333333  0.00000000       0.222
   0.50000000  0.33333333  0.00000000       0.111
 
 position of ions in fractional coordinates (direct lattice) 
   0.00000000  0.99066316  0.33119916
   0.00000000  0.49066316  0.50321211
   0.00000000  0.75933684  0.41078141
   0.00000000  0.25933684  0.58279436
   0.00000000  0.25224643  0.41322069
   0.00000000  0.75224643  0.58523364
   0.00000000  0.99775357  0.50077283
   0.00000000  0.49775357  0.32875988
   0.50000000  0.00224643  0.67124012
   0.50000000  0.50224643  0.49922717
   0.50000000  0.74775357  0.41476636
   0.50000000  0.24775357  0.58677931
   0.50000000  0.22680859  0.42197197
   0.50000000  0.72680859  0.59398492
   0.50000000  0.02319141  0.49202155
   0.50000000  0.52319141  0.66403451
   0.24268531  0.99634265  0.41273530
   0.24268531  0.49634265  0.58474825
   0.21391683  0.73195841  0.49379323
   0.21391683  0.23195841  0.66580618
   0.24268531  0.25365735  0.50125822
   0.24268531  0.75365735  0.32924527
   0.21391683  0.01804159  0.59221325
   0.21391683  0.51804159  0.42020030
   0.75731469  0.99634265  0.41273530
   0.75731469  0.49634265  0.58474825
   0.78608317  0.73195841  0.49379323
   0.78608317  0.23195841  0.66580618
   0.75731469  0.25365735  0.50125822
   0.75731469  0.75365735  0.32924527
   0.78608317  0.01804159  0.59221325
   0.78608317  0.51804159  0.42020030
   0.50000000  0.87500000  0.54300324
   0.50000000  0.37500000  0.37099029
 
 position of ions in cartesian coordinates  (Angst):
   0.00000000  8.93759588  9.21573614
   0.00000000  3.27246801 14.00205853
   0.00000000  6.31660947 11.43014087
   0.00000000  0.65148160 16.21646327
   0.00000000  1.15650839 11.49801480
   0.00000000  5.65091047 16.28433720
   0.00000000  8.43256909 13.93418460
   0.00000000  3.93816701  9.14786221
   2.92922775 -2.26141844 18.67749839
   2.92922775  3.40370943 13.89117600
   2.92922775  6.18536805 11.54102341
   2.92922775  0.52024018 16.32734580
   2.92922775  0.86829114 11.74152222
   2.92922775  5.36269323 16.52784461
   2.92922775 -1.43874362 13.69067719
   2.92922775  3.05565846 18.47699958
   1.42176109  8.71782804 11.48450864
   1.42176109  3.05270017 16.27083103
   1.25322222  5.75596698 13.73997461
   1.25322222  0.09083911 18.52629700
   1.42176109  0.87124944 13.94769077
   1.42176109  6.53637731  9.16136837
   1.25322222 -1.83201737 16.47854719
   1.25322222  3.83311050 11.69222479
   4.43669441  8.71782804 11.48450864
   4.43669441  3.05270017 16.27083103
   4.60523328  5.75596698 13.73997461
   4.60523328  0.09083911 18.52629700
   4.43669441  0.87124944 13.94769077
   4.43669441  6.53637731  9.16136837
   4.60523328 -1.83201737 16.47854719
   4.60523328  3.83311050 11.69222479
   2.92922775  7.04173978 15.10926090
   2.92922775  2.54733770 10.32293851
 


--------------------------------------------------------------------------------------------------------


 k-point     1 :   0.0000 0.0000 0.0000  plane waves:   44591
 k-point     2 :   0.1667 0.0000 0.0000  plane waves:   44542
 k-point     3 :   0.3333 0.0000 0.0000  plane waves:   44602
 k-point     4 :   0.5000 0.0000 0.0000  plane waves:   44630
 k-point     5 :   0.0000 0.3333 0.0000  plane waves:   44570
 k-point     6 :   0.1667 0.3333 0.0000  plane waves:   44580
 k-point     7 :   0.3333 0.3333 0.0000  plane waves:   44639
 k-point     8 :   0.5000 0.3333 0.0000  plane waves:   44654

 maximum and minimum number of plane-waves per node :     44654    44542

 maximum number of plane-waves:     44654
 maximum index in each direction: 
   IXMAX=   10   IYMAX=   18   IZMAX=   52
   IXMIN=  -11   IYMIN=  -19   IZMIN=  -52


 serial   3D FFT for wavefunctions
 parallel 3D FFT for charge:
    minimum data exchange during FFTs selected (reduces bandwidth)


 total amount of memory used by VASP MPI-rank0   249069. kBytes
=======================================================================

   base                                    :      30000. kBytes
   nonl-proj                               :     178688. kBytes
   fftplans                                :       3707. kBytes
   grid                                    :      18796. kBytes
   one-center                              :        528. kBytes
   wavefun                                 :      17350. kBytes
 
     INWAV:  cpu time      0.0000: real time      0.0000
 Broyden mixing: mesh for mixing (old mesh)
   NGX = 21   NGY = 37   NGZ =105
  (NGX  = 72   NGY  =120   NGZ  =320)
  gives a total of  81585 points

 initial charge density was supplied:
 charge density of overlapping atoms calculated
 number of electron     266.0000000 magnetization 
 keeping initial charge density in first step


--------------------------------------------------------------------------------------------------------


 Maximum index for augmentation-charges          744 (set IRDMAX)


--------------------------------------------------------------------------------------------------------


 First call to EWALD:  gamma=   0.150
 Maximum number of real-space cells   5x   3x   1
 Maximum number of reciprocal cells   2x   2x   6

    FEWALD:  cpu time      0.0016: real time      0.0016


--------------------------------------- Ionic step        1  -------------------------------------------




--------------------------------------- Iteration      1(   1)  ---------------------------------------


    POTLOK:  cpu time      0.0785: real time      0.0785
    SETDIJ:  cpu time      0.0030: real time      0.0030
     EDDAV:  cpu time      6.4489: real time      6.4511
       DOS:  cpu time      0.0004: real time      0.0004
    --------------------------------------------
      LOOP:  cpu time      6.5310: real time      6.5331

 eigenvalue-minimisations  :  3200
 total energy-change (2. order) : 0.2381115E+04  (-0.1307620E+05)
 number of electron     266.0000000 magnetization 
 augmentation part      266.0000000 magnetization 

 Free energy of the ion-electron system (eV)
  ---------------------------------------------------
  alpha Z        PSCENC =       243.40284528
  Ewald energy   TEWEN  =     84592.39660786
  -Hartree energ DENC   =   -110772.22596894
  -exchange      EXHF   =         0.00000000
  -V(xc)+E(xc)   XCENC  =       649.59066885
  PAW double counting   =     24498.55701585   -24341.03228923
  entropy T*S    EENTRO =         0.00037771
  eigenvalues    EBANDS =     -3053.20408800
  atomic energy  EATOM  =     30563.62952402
  Solvation  Ediel_sol  =         0.00000000
  ---------------------------------------------------
  free energy    TOTEN  =      2381.11469340 eV

  energy without entropy =     2381.11431569  energy(sigma->0) =     2381.11456750


--------------------------------------------------------------------------------------------------------




--------------------------------------- Iteration      1(   2)  ---------------------------------------


     EDDAV:  cpu time      6.7938: real time      6.7947
       DOS:  cpu time      0.0004: real time      0.0004
    --------------------------------------------
      LOOP:  cpu time      6.7941: real time      6.7951

 eigenvalue-minimisations  :  3392
 total energy-change (2. order) :-0.2307010E+04  (-0.2243460E+04)
 number of electron     266.0000000 magnetization 
 augmentation part      266.0000000 magnetization 

 Free energy of the ion-electron system (eV)
  ---------------------------------------------------
  alpha Z        PSCENC =       243.40284528
  Ewald energy   TEWEN  =     84592.39660786
  -Hartree energ DENC   =   -110772.22596894
  -exchange      EXHF   =         0.00000000
  -V(xc)+E(xc)   XCENC  =       649.59066885
  PAW double counting   =     24498.55701585   -24341.03228923
  entropy T*S    EENTRO =        -0.00291571
  eigenvalues    EBANDS =     -5360.21084886
  atomic energy  EATOM  =     30563.62952402
  Solvation  Ediel_sol  =         0.00000000
  ---------------------------------------------------
  free energy    TOTEN  =        74.10463913 eV

  energy without entropy =       74.10755483  energy(sigma->0) =       74.10561103


--------------------------------------------------------------------------------------------------------




--------------------------------------- Iteration      1(   3)  ---------------------------------------


     EDDAV:  cpu time     12.4247: real time     12.4254
       DOS:  cpu time      0.0004: real time      0.0004
    --------------------------------------------
      LOOP:  cpu time     12.4251: real time     12.4257

 eigenvalue-minimisations  :  6016
 total energy-change (2. order) :-0.2588070E+03  (-0.2534097E+03)
 number of electron     266.0000000 magnetization 
 augmentation part      266.0000000 magnetization 

 Free energy of the ion-electron system (eV)
  ---------------------------------------------------
  alpha Z        PSCENC =       243.40284528
  Ewald energy   TEWEN  =     84592.39660786
  -Hartree energ DENC   =   -110772.22596894
  -exchange      EXHF   =         0.00000000
  -V(xc)+E(xc)   XCENC  =       649.59066885
  PAW double counting   =     24498.55701585   -24341.03228923
  entropy T*S    EENTRO =         0.00873986
  eigenvalues    EBANDS =     -5619.02949362
  atomic energy  EATOM  =     30563.62952402
  Solvation  Ediel_sol  =         0.00000000
  ---------------------------------------------------
  free energy    TOTEN  =      -184.70235007 eV

  energy without entropy =     -184.71108993  energy(sigma->0) =     -184.70526336


--------------------------------------------------------------------------------------------------------




--------------------------------------- Iteration      1(   4)  ---------------------------------------


     EDDAV:  cpu time      9.6358: real time      9.6364
       DOS:  cpu time      0.0004: real time      0.0004
    --------------------------------------------
      LOOP:  cpu time      9.6361: real time      9.6368

 eigenvalue-minimisations  :  4736
 total energy-change (2. order) :-0.3601358E+02  (-0.3572519E+02)
 number of electron     266.0000000 magnetization 
 augmentation part      266.0000000 magnetization 

 Free energy of the ion-electron system (eV)
  ---------------------------------------------------
  alpha Z        PSCENC =       243.40284528
  Ewald energy   TEWEN  =     84592.39660786
  -Hartree energ DENC   =   -110772.22596894
  -exchange      EXHF   =         0.00000000
  -V(xc)+E(xc)   XCENC  =       649.59066885
  PAW double counting   =     24498.55701585   -24341.03228923
  entropy T*S    EENTRO =         0.01094783
  eigenvalues    EBANDS =     -5655.04528550
  atomic energy  EATOM  =     30563.62952402
  Solvation  Ediel_sol  =         0.00000000
  ---------------------------------------------------
  free energy    TOTEN  =      -220.71593397 eV

  energy without entropy =     -220.72688181  energy(sigma->0) =     -220.71958325


--------------------------------------------------------------------------------------------------------




--------------------------------------- Iteration      1(   5)  ---------------------------------------


     EDDAV:  cpu time     10.1205: real time     10.1208
       DOS:  cpu time      0.0004: real time      0.0004
    CHARGE:  cpu time      0.1288: real time      0.1288
    MIXING:  cpu time      0.0007: real time      0.0007
    --------------------------------------------
      LOOP:  cpu time     10.2504: real time     10.2507

 eigenvalue-minimisations  :  4992
 total energy-change (2. order) :-0.3674737E+01  (-0.3674368E+01)
 number of electron     265.9999877 magnetization 
 augmentation part       71.4129238 magnetization 

 Broyden mixing:
  rms(total) = 0.40298E+01    rms(broyden)= 0.40298E+01
  rms(prec ) = 0.45249E+01
  weight for this iteration     100.00

 Free energy of the ion-electron system (eV)
  ---------------------------------------------------
  alpha Z        PSCENC =       243.40284528
  Ewald energy   TEWEN  =     84592.39660786
  -Hartree energ DENC   =   -110772.22596894
  -exchange      EXHF   =         0.00000000
  -V(xc)+E(xc)   XCENC  =       649.59066885
  PAW double counting   =     24498.55701585   -24341.03228923
  entropy T*S    EENTRO =         0.01048958
  eigenvalues    EBANDS =     -5658.71956454
  atomic energy  EATOM  =     30563.62952402
  Solvation  Ediel_sol  =         0.00000000
  ---------------------------------------------------
  free energy    TOTEN  =      -224.39067126 eV

  energy without entropy =     -224.40116084  energy(sigma->0) =     -224.39416779


--------------------------------------------------------------------------------------------------------




--------------------------------------- Iteration      1(   6)  ---------------------------------------


    POTLOK:  cpu time      0.0448: real time      0.0448
    SETDIJ:  cpu time      0.0027: real time      0.0027
     EDDAV:  cpu time     10.5884: real time     10.5889
       DOS:  cpu time      0.0004: real time      0.0004
    CHARGE:  cpu time      0.1299: real time      0.1300
    MIXING:  cpu time      0.0008: real time      0.0008
    --------------------------------------------
      LOOP:  cpu time     10.7670: real time     10.7676

 eigenvalue-minimisations  :  5120
 total energy-change (2. order) :-0.6764801E+02  (-0.8100604E+02)
 number of electron     265.9999855 magnetization 
 augmentation part       88.9828434 magnetization 

 Broyden mixing:
  rms(total) = 0.92695E+01    rms(broyden)= 0.92693E+01
  rms(prec ) = 0.10885E+02
  weight for this iteration     100.00

 eigenvalues of (default mixing * dielectric matrix)
  average eigenvalue GAMMA=   0.2585
  0.2585

 Free energy of the ion-electron system (eV)
  ---------------------------------------------------
  alpha Z        PSCENC =       243.40284528
  Ewald energy   TEWEN  =     84592.39660786
  -Hartree energ DENC   =   -110769.80471980
  -exchange      EXHF   =         0.00000000
  -V(xc)+E(xc)   XCENC  =       625.74378953
  PAW double counting   =     26013.07718101   -25873.87010261
  entropy T*S    EENTRO =        -0.00611922
  eigenvalues    EBANDS =     -5686.60768393
  atomic energy  EATOM  =     30563.62952402
  Solvation  Ediel_sol  =         0.00000000
  ---------------------------------------------------
  free energy    TOTEN  =      -292.03867786 eV

  energy without entropy =     -292.03255864  energy(sigma->0) =     -292.03663812


--------------------------------------------------------------------------------------------------------




--------------------------------------- Iteration      1(   7)  ---------------------------------------


    POTLOK:  cpu time      0.0438: real time      0.0438
    SETDIJ:  cpu time      0.0025: real time      0.0025
     EDDAV:  cpu time     10.6116: real time     10.6126
       DOS:  cpu time      0.0004: real time      0.0004
    CHARGE:  cpu time      0.1337: real time      0.1337
    MIXING:  cpu time      0.0007: real time      0.0007
    --------------------------------------------
      LOOP:  cpu time     10.7927: real time     10.7937

 eigenvalue-minimisations  :  5120
 total energy-change (2. order) : 0.8673981E+02  (-0.5264208E+02)
 number of electron     265.9999851 magnetization 
 augmentation part       80.2295951 magnetization 

 Broyden mixing:
  rms(total) = 0.40030E+01    rms(broyden)= 0.40026E+01
  rms(prec ) = 0.47214E+01
  weight for this iteration     100.00

 eigenvalues of (default mixing * dielectric matrix)
  average eigenvalue GAMMA=   0.3803
  0.5684  0.1923

 Free energy of the ion-electron system (eV)
  ---------------------------------------------------
  alpha Z        PSCENC =       243.40284528
  Ewald energy   TEWEN  =     84592.39660786
  -Hartree energ DENC   =   -110601.70667945
  -exchange      EXHF   =         0.00000000
  -V(xc)+E(xc)   XCENC  =       633.51116333
  PAW double counting   =     26362.83671607   -26217.47386031
  entropy T*S    EENTRO =        -0.01615582
  eigenvalues    EBANDS =     -5781.87902810
  atomic energy  EATOM  =     30563.62952402
  Solvation  Ediel_sol  =         0.00000000
  ---------------------------------------------------
  free energy    TOTEN  =      -205.29886711 eV

  energy without entropy =     -205.28271129  energy(sigma->0) =     -205.29348184


--------------------------------------------------------------------------------------------------------




--------------------------------------- Iteration      1(   8)  ---------------------------------------


    POTLOK:  cpu time      0.0441: real time      0.0441
    SETDIJ:  cpu time      0.0027: real time      0.0027
     EDDAV:  cpu time      9.4419: real time      9.4426
       DOS:  cpu time      0.0004: real time      0.0004
    CHARGE:  cpu time      0.1351: real time      0.1351
    MIXING:  cpu time      0.0008: real time      0.0008
    --------------------------------------------
      LOOP:  cpu time      9.6250: real time      9.6257

 eigenvalue-minimisations  :  4608
 total energy-change (2. order) : 0.1333168E+02  (-0.1712785E+02)
 number of electron     265.9999868 magnetization 
 augmentation part       75.7471863 magnetization 

 Broyden mixing:
  rms(total) = 0.28189E+01    rms(broyden)= 0.28187E+01
  rms(prec ) = 0.31657E+01
  weight for this iteration     100.00

 eigenvalues of (default mixing * dielectric matrix)
  average eigenvalue GAMMA=   0.4147
  0.8030  0.2205  0.2205

 Free energy of the ion-electron system (eV)
  ---------------------------------------------------
  alpha Z        PSCENC =       243.40284528
  Ewald energy   TEWEN  =     84592.39660786
  -Hartree energ DENC   =   -110863.50364434
  -exchange      EXHF   =         0.00000000
  -V(xc)+E(xc)   XCENC  =       638.10883796
  PAW double counting   =     26981.74632677   -26829.00994264
  entropy T*S    EENTRO =        -0.00963212
  eigenvalues    EBANDS =     -5518.72810585
  atomic energy  EATOM  =     30563.62952402
  Solvation  Ediel_sol  =         0.00000000
  ---------------------------------------------------
  free energy    TOTEN  =      -191.96718305 eV

  energy without entropy =     -191.95755094  energy(sigma->0) =     -191.96397235


--------------------------------------------------------------------------------------------------------




--------------------------------------- Iteration      1(   9)  ---------------------------------------


    POTLOK:  cpu time      0.0446: real time      0.0446
    SETDIJ:  cpu time      0.0026: real time      0.0026
     EDDAV:  cpu time      9.3817: real time      9.3825
       DOS:  cpu time      0.0004: real time      0.0004
    CHARGE:  cpu time      0.1354: real time      0.1355
    MIXING:  cpu time      0.0008: real time      0.0008
    --------------------------------------------
      LOOP:  cpu time      9.5655: real time      9.5663

 eigenvalue-minimisations  :  4608
 total energy-change (2. order) : 0.8478325E+01  (-0.6231603E+01)
 number of electron     265.9999872 magnetization 
 augmentation part       74.1515954 magnetization 

 Broyden mixing:
  rms(total) = 0.16485E+01    rms(broyden)= 0.16484E+01
  rms(prec ) = 0.20863E+01
  weight for this iteration     100.00

 eigenvalues of (default mixing * dielectric matrix)
  average eigenvalue GAMMA=   0.4389
  1.0229  0.1900  0.2714  0.2714

 Free energy of the ion-electron system (eV)
  ---------------------------------------------------
  alpha Z        PSCENC =       243.40284528
  Ewald energy   TEWEN  =     84592.39660786
  -Hartree energ DENC   =   -110878.56663941
  -exchange      EXHF   =         0.00000000
  -V(xc)+E(xc)   XCENC  =       638.23715264
  PAW double counting   =     27382.99838940   -27226.15505964
  entropy T*S    EENTRO =        -0.00313742
  eigenvalues    EBANDS =     -5499.42854048
  atomic energy  EATOM  =     30563.62952402
  Solvation  Ediel_sol  =         0.00000000
  ---------------------------------------------------
  free energy    TOTEN  =      -183.48885775 eV

  energy without entropy =     -183.48572033  energy(sigma->0) =     -183.48781195


--------------------------------------------------------------------------------------------------------




--------------------------------------- Iteration      1(  10)  ---------------------------------------


    POTLOK:  cpu time      0.0443: real time      0.0443
    SETDIJ:  cpu time      0.0026: real time      0.0026
     EDDAV:  cpu time      9.2708: real time      9.2714
       DOS:  cpu time      0.0004: real time      0.0004
    CHARGE:  cpu time      0.1352: real time      0.1353
    MIXING:  cpu time      0.0008: real time      0.0008
    --------------------------------------------
      LOOP:  cpu time      9.4542: real time      9.4548

 eigenvalue-minimisations  :  4608
 total energy-change (2. order) : 0.1258623E+01  (-0.4107207E+01)
 number of electron     265.9999863 magnetization 
 augmentation part       74.8776901 magnetization 

 Broyden mixing:
  rms(total) = 0.15227E+01    rms(broyden)= 0.15226E+01
  rms(prec ) = 0.22011E+01
  weight for this iteration     100.00

 eigenvalues of (default mixing * dielectric matrix)
  average eigenvalue GAMMA=   0.4256
  1.2051  0.3085  0.3085  0.1925  0.1136

 Free energy of the ion-electron system (eV)
  ---------------------------------------------------
  alpha Z        PSCENC =       243.40284528
  Ewald energy   TEWEN  =     84592.39660786
  -Hartree energ DENC   =   -110836.05245314
  -exchange      EXHF   =         0.00000000
  -V(xc)+E(xc)   XCENC  =       636.94530329
  PAW double counting   =     27591.64248982   -27432.58121959
  entropy T*S    EENTRO =        -0.01597442
  eigenvalues    EBANDS =     -5541.59735805
  atomic energy  EATOM  =     30563.62952402
  Solvation  Ediel_sol  =         0.00000000
  ---------------------------------------------------
  free energy    TOTEN  =      -182.23023494 eV

  energy without entropy =     -182.21426052  energy(sigma->0) =     -182.22491013


--------------------------------------------------------------------------------------------------------




--------------------------------------- Iteration      1(  11)  ---------------------------------------


    POTLOK:  cpu time      0.0439: real time      0.0439
    SETDIJ:  cpu time      0.0027: real time      0.0027
     EDDAV:  cpu time      9.2732: real time      9.2750
       DOS:  cpu time      0.0004: real time      0.0004
    CHARGE:  cpu time      0.1337: real time      0.1337
    MIXING:  cpu time      0.0009: real time      0.0009
    --------------------------------------------
      LOOP:  cpu time      9.4547: real time      9.4566

 eigenvalue-minimisations  :  4608
 total energy-change (2. order) : 0.3036657E+01  (-0.2627674E+01)
 number of electron     265.9999865 magnetization 
 augmentation part       75.2215284 magnetization 

 Broyden mixing:
  rms(total) = 0.11022E+01    rms(broyden)= 0.11021E+01
  rms(prec ) = 0.13415E+01
  weight for this iteration     100.00

 eigenvalues of (default mixing * dielectric matrix)
  average eigenvalue GAMMA=   0.4673
  1.5338  0.3857  0.3857  0.2011  0.2011  0.0964

 Free energy of the ion-electron system (eV)
  ---------------------------------------------------
  alpha Z        PSCENC =       243.40284528
  Ewald energy   TEWEN  =     84592.39660786
  -Hartree energ DENC   =   -110802.23087876
  -exchange      EXHF   =         0.00000000
  -V(xc)+E(xc)   XCENC  =       635.62570418
  PAW double counting   =     27814.28050516   -27652.34875634
  entropy T*S    EENTRO =         0.00444570
  eigenvalues    EBANDS =     -5573.95357500
  atomic energy  EATOM  =     30563.62952402
  Solvation  Ediel_sol  =         0.00000000
  ---------------------------------------------------
  free energy    TOTEN  =      -179.19357789 eV

  energy without entropy =     -179.19802360  energy(sigma->0) =     -179.19505979


--------------------------------------------------------------------------------------------------------




--------------------------------------- Iteration      1(  12)  ---------------------------------------


    POTLOK:  cpu time      0.0443: real time      0.0443
    SETDIJ:  cpu time      0.0028: real time      0.0028
     EDDAV:  cpu time      9.3539: real time      9.3547
       DOS:  cpu time      0.0004: real time      0.0004
    CHARGE:  cpu time      0.1339: real time      0.1340
    MIXING:  cpu time      0.0010: real time      0.0010
    --------------------------------------------
      LOOP:  cpu time      9.5362: real time      9.5371

 eigenvalue-minimisations  :  4608
 total energy-change (2. order) : 0.1211079E+01  (-0.1087222E+01)
 number of electron     265.9999861 magnetization 
 augmentation part       76.1698811 magnetization 

 Broyden mixing:
  rms(total) = 0.84872E+00    rms(broyden)= 0.84867E+00
  rms(prec ) = 0.99566E+00
  weight for this iteration     100.00

 eigenvalues of (default mixing * dielectric matrix)
  average eigenvalue GAMMA=   0.4949
  1.7263  0.5803  0.4282  0.2270  0.2270  0.1822  0.0932

 Free energy of the ion-electron system (eV)
  ---------------------------------------------------
  alpha Z        PSCENC =       243.40284528
  Ewald energy   TEWEN  =     84592.39660786
  -Hartree energ DENC   =   -110783.33143650
  -exchange      EXHF   =         0.00000000
  -V(xc)+E(xc)   XCENC  =       634.11369936
  PAW double counting   =     28163.71692492   -27996.19590977
  entropy T*S    EENTRO =        -0.00826241
  eigenvalues    EBANDS =     -5595.70649121
  atomic energy  EATOM  =     30563.62952402
  Solvation  Ediel_sol  =         0.00000000
  ---------------------------------------------------
  free energy    TOTEN  =      -177.98249844 eV

  energy without entropy =     -177.97423603  energy(sigma->0) =     -177.97974430


--------------------------------------------------------------------------------------------------------




--------------------------------------- Iteration      1(  13)  ---------------------------------------


    POTLOK:  cpu time      0.0438: real time      0.0438
    SETDIJ:  cpu time      0.0026: real time      0.0026
     EDDAV:  cpu time      9.3706: real time      9.3712
       DOS:  cpu time      0.0004: real time      0.0004
    CHARGE:  cpu time      0.1350: real time      0.1350
    MIXING:  cpu time      0.0009: real time      0.0009
    --------------------------------------------
      LOOP:  cpu time      9.5533: real time      9.5539

 eigenvalue-minimisations  :  4608
 total energy-change (2. order) : 0.5190591E+00  (-0.7200951E+00)
 number of electron     265.9999861 magnetization 
 augmentation part       76.6354004 magnetization 

 Broyden mixing:
  rms(total) = 0.69890E+00    rms(broyden)= 0.69887E+00
  rms(prec ) = 0.79430E+00
  weight for this iteration     100.00

 eigenvalues of (default mixing * dielectric matrix)
  average eigenvalue GAMMA=   0.5243
  1.7975  1.0023  0.3637  0.3637  0.2079  0.2079  0.1596  0.0921

 Free energy of the ion-electron system (eV)
  ---------------------------------------------------
  alpha Z        PSCENC =       243.40284528
  Ewald energy   TEWEN  =     84592.39660786
  -Hartree energ DENC   =   -110808.15209422
  -exchange      EXHF   =         0.00000000
  -V(xc)+E(xc)   XCENC  =       633.63574313
  PAW double counting   =     28469.52786125   -28294.92722750
  entropy T*S    EENTRO =        -0.00459079
  eigenvalues    EBANDS =     -5576.97210841
  atomic energy  EATOM  =     30563.62952402
  Solvation  Ediel_sol  =         0.00000000
  ---------------------------------------------------
  free energy    TOTEN  =      -177.46343937 eV

  energy without entropy =     -177.45884858  energy(sigma->0) =     -177.46190910


--------------------------------------------------------------------------------------------------------




--------------------------------------- Iteration      1(  14)  ---------------------------------------


    POTLOK:  cpu time      0.0439: real time      0.0439
    SETDIJ:  cpu time      0.0026: real time      0.0026
     EDDAV:  cpu time      9.4640: real time      9.4652
       DOS:  cpu time      0.0004: real time      0.0004
    CHARGE:  cpu time      0.1418: real time      0.1418
    MIXING:  cpu time      0.0011: real time      0.0011
    --------------------------------------------
      LOOP:  cpu time      9.6538: real time      9.6550

 eigenvalue-minimisations  :  4608
 total energy-change (2. order) : 0.1033626E+00  (-0.4852938E+00)
 number of electron     265.9999860 magnetization 
 augmentation part       76.5308444 magnetization 

 Broyden mixing:
  rms(total) = 0.68836E+00    rms(broyden)= 0.68832E+00
  rms(prec ) = 0.79298E+00
  weight for this iteration     100.00

 eigenvalues of (default mixing * dielectric matrix)
  average eigenvalue GAMMA=   0.5400
  1.5522  1.5522  0.4550  0.4550  0.2223  0.2223  0.1833  0.0924  0.1248

 Free energy of the ion-electron system (eV)
  ---------------------------------------------------
  alpha Z        PSCENC =       243.40284528
  Ewald energy   TEWEN  =     84592.39660786
  -Hartree energ DENC   =   -110834.68669179
  -exchange      EXHF   =         0.00000000
  -V(xc)+E(xc)   XCENC  =       633.79022111
  PAW double counting   =     28597.95899367   -28418.55275924
  entropy T*S    EENTRO =        -0.00443680
  eigenvalues    EBANDS =     -5555.29438090
  atomic energy  EATOM  =     30563.62952402
  Solvation  Ediel_sol  =         0.00000000
  ---------------------------------------------------
  free energy    TOTEN  =      -177.36007677 eV

  energy without entropy =     -177.35563998  energy(sigma->0) =     -177.35859784


--------------------------------------------------------------------------------------------------------




--------------------------------------- Iteration      1(  15)  ---------------------------------------


    POTLOK:  cpu time      0.0457: real time      0.0457
    SETDIJ:  cpu time      0.0032: real time      0.0032
     EDDAV:  cpu time      9.3774: real time      9.3779
       DOS:  cpu time      0.0004: real time      0.0004
    CHARGE:  cpu time      0.1339: real time      0.1339
    MIXING:  cpu time      0.0011: real time      0.0011
    --------------------------------------------
      LOOP:  cpu time      9.5617: real time      9.5623

 eigenvalue-minimisations  :  4608
 total energy-change (2. order) :-0.1437168E+00  (-0.5153802E+00)
 number of electron     265.9999861 magnetization 
 augmentation part       76.4097133 magnetization 

 Broyden mixing:
  rms(total) = 0.77006E+00    rms(broyden)= 0.77000E+00
  rms(prec ) = 0.88038E+00
  weight for this iteration     100.00

 eigenvalues of (default mixing * dielectric matrix)
  average eigenvalue GAMMA=   0.5925
  1.9176  1.9176  0.5301  0.5301  0.2434  0.2145  0.2145  0.1593  0.0927  0.1050

 Free energy of the ion-electron system (eV)
  ---------------------------------------------------
  alpha Z        PSCENC =       243.40284528
  Ewald energy   TEWEN  =     84592.39660786
  -Hartree energ DENC   =   -110848.13961001
  -exchange      EXHF   =         0.00000000
  -V(xc)+E(xc)   XCENC  =       634.16197184
  PAW double counting   =     28651.84555533   -28467.67679749
  entropy T*S    EENTRO =        -0.00875756
  eigenvalues    EBANDS =     -5547.11513288
  atomic energy  EATOM  =     30563.62952402
  Solvation  Ediel_sol  =         0.00000000
  ---------------------------------------------------
  free energy    TOTEN  =      -177.50379362 eV

  energy without entropy =     -177.49503605  energy(sigma->0) =     -177.50087443


--------------------------------------------------------------------------------------------------------




--------------------------------------- Iteration      1(  16)  ---------------------------------------


    POTLOK:  cpu time      0.0437: real time      0.0437
    SETDIJ:  cpu time      0.0026: real time      0.0026
     EDDAV:  cpu time      9.3342: real time      9.3342
       DOS:  cpu time      0.0004: real time      0.0004
    CHARGE:  cpu time      0.1334: real time      0.1334
    MIXING:  cpu time      0.0011: real time      0.0011
    --------------------------------------------
      LOOP:  cpu time      9.5152: real time      9.5153

 eigenvalue-minimisations  :  4608
 total energy-change (2. order) : 0.1609622E+00  (-0.3801622E+00)
 number of electron     265.9999862 magnetization 
 augmentation part       76.0146297 magnetization 

 Broyden mixing:
  rms(total) = 0.54262E+00    rms(broyden)= 0.54254E+00
  rms(prec ) = 0.65983E+00
  weight for this iteration     100.00

 eigenvalues of (default mixing * dielectric matrix)
  average eigenvalue GAMMA=   0.5831
  2.0036  2.0036  0.5939  0.4628  0.3765  0.2201  0.2201  0.1821  0.1525  0.0924
  0.1064

 Free energy of the ion-electron system (eV)
  ---------------------------------------------------
  alpha Z        PSCENC =       243.40284528
  Ewald energy   TEWEN  =     84592.39660786
  -Hartree energ DENC   =   -110867.06981831
  -exchange      EXHF   =         0.00000000
  -V(xc)+E(xc)   XCENC  =       634.84838046
  PAW double counting   =     28680.89356354   -28490.21639214
  entropy T*S    EENTRO =        -0.01279644
  eigenvalues    EBANDS =     -5535.21474573
  atomic energy  EATOM  =     30563.62952402
  Solvation  Ediel_sol  =         0.00000000
  ---------------------------------------------------
  free energy    TOTEN  =      -177.34283145 eV

  energy without entropy =     -177.33003501  energy(sigma->0) =     -177.33856597


--------------------------------------------------------------------------------------------------------




--------------------------------------- Iteration      1(  17)  ---------------------------------------


    POTLOK:  cpu time      0.0438: real time      0.0438
    SETDIJ:  cpu time      0.0027: real time      0.0027
     EDDAV:  cpu time      9.3362: real time      9.3368
       DOS:  cpu time      0.0004: real time      0.0004
    CHARGE:  cpu time      0.1330: real time      0.1330
    MIXING:  cpu time      0.0012: real time      0.0012
    --------------------------------------------
      LOOP:  cpu time      9.5173: real time      9.5179

 eigenvalue-minimisations  :  4608
 total energy-change (2. order) : 0.2108710E+00  (-0.1533453E+00)
 number of electron     265.9999862 magnetization 
 augmentation part       76.0839740 magnetization 

 Broyden mixing:
  rms(total) = 0.33603E+00    rms(broyden)= 0.33601E+00
  rms(prec ) = 0.39582E+00
  weight for this iteration     100.00

 eigenvalues of (default mixing * dielectric matrix)
  average eigenvalue GAMMA=   0.5787
  2.0190  2.0190  0.7961  0.4765  0.4765  0.2255  0.2255  0.1940  0.1713  0.1438
  0.0924  0.1050

 Free energy of the ion-electron system (eV)
  ---------------------------------------------------
  alpha Z        PSCENC =       243.40284528
  Ewald energy   TEWEN  =     84592.39660786
  -Hartree energ DENC   =   -110877.67063023
  -exchange      EXHF   =         0.00000000
  -V(xc)+E(xc)   XCENC  =       634.85122860
  PAW double counting   =     28722.52612711   -28529.48413745
  entropy T*S    EENTRO =        -0.00969074
  eigenvalues    EBANDS =     -5526.77383487
  atomic energy  EATOM  =     30563.62952402
  Solvation  Ediel_sol  =         0.00000000
  ---------------------------------------------------
  free energy    TOTEN  =      -177.13196043 eV

  energy without entropy =     -177.12226969  energy(sigma->0) =     -177.12873019


--------------------------------------------------------------------------------------------------------




--------------------------------------- Iteration      1(  18)  ---------------------------------------


    POTLOK:  cpu time      0.0444: real time      0.0444
    SETDIJ:  cpu time      0.0025: real time      0.0025
     EDDAV:  cpu time      9.3070: real time      9.3077
       DOS:  cpu time      0.0004: real time      0.0004
    CHARGE:  cpu time      0.1331: real time      0.1331
    MIXING:  cpu time      0.0011: real time      0.0011
    --------------------------------------------
      LOOP:  cpu time      9.4885: real time      9.4900

 eigenvalue-minimisations  :  4608
 total energy-change (2. order) : 0.5170454E-01  (-0.1015911E+00)
 number of electron     265.9999861 magnetization 
 augmentation part       76.2281347 magnetization 

 Broyden mixing:
  rms(total) = 0.27669E+00    rms(broyden)= 0.27667E+00
  rms(prec ) = 0.31915E+00
  weight for this iteration     100.00

 eigenvalues of (default mixing * dielectric matrix)
  average eigenvalue GAMMA=   0.5627
  2.0342  2.0342  0.9122  0.4868  0.4868  0.2726  0.2202  0.2202  0.1835  0.1515
  0.0924  0.1102  0.1102

 Free energy of the ion-electron system (eV)
  ---------------------------------------------------
  alpha Z        PSCENC =       243.40284528
  Ewald energy   TEWEN  =     84592.39660786
  -Hartree energ DENC   =   -110885.49199996
  -exchange      EXHF   =         0.00000000
  -V(xc)+E(xc)   XCENC  =       634.83777500
  PAW double counting   =     28744.46289075   -28549.88775427
  entropy T*S    EENTRO =        -0.01436065
  eigenvalues    EBANDS =     -5520.41578392
  atomic energy  EATOM  =     30563.62952402
  Solvation  Ediel_sol  =         0.00000000
  ---------------------------------------------------
  free energy    TOTEN  =      -177.08025589 eV

  energy without entropy =     -177.06589524  energy(sigma->0) =     -177.07546901


--------------------------------------------------------------------------------------------------------




--------------------------------------- Iteration      1(  19)  ---------------------------------------


    POTLOK:  cpu time      0.0445: real time      0.0453
    SETDIJ:  cpu time      0.0026: real time      0.0026
     EDDAV:  cpu time      9.3750: real time      9.3756
       DOS:  cpu time      0.0004: real time      0.0004
    CHARGE:  cpu time      0.1337: real time      0.1337
    MIXING:  cpu time      0.0013: real time      0.0013
    --------------------------------------------
      LOOP:  cpu time      9.5574: real time      9.5580

 eigenvalue-minimisations  :  4608
 total energy-change (2. order) : 0.4133831E-01  (-0.3659113E-01)
 number of electron     265.9999862 magnetization 
 augmentation part       76.2127360 magnetization 

 Broyden mixing:
  rms(total) = 0.13215E+00    rms(broyden)= 0.13214E+00
  rms(prec ) = 0.15149E+00
  weight for this iteration     100.00

 eigenvalues of (default mixing * dielectric matrix)
  average eigenvalue GAMMA=   0.6055
  2.4723  1.7692  1.2800  0.7155  0.4674  0.4674  0.2254  0.2254  0.2115  0.1838
  0.1514  0.0924  0.1075  0.1075

 Free energy of the ion-electron system (eV)
  ---------------------------------------------------
  alpha Z        PSCENC =       243.40284528
  Ewald energy   TEWEN  =     84592.39660786
  -Hartree energ DENC   =   -110890.21222294
  -exchange      EXHF   =         0.00000000
  -V(xc)+E(xc)   XCENC  =       634.88906656
  PAW double counting   =     28748.69559522   -28553.29682073
  entropy T*S    EENTRO =        -0.01229456
  eigenvalues    EBANDS =     -5516.53121828
[...]
     86      -4.6950      2.00000
     87      -4.4626      2.00000
     88      -4.3258      2.00000
     89      -4.1920      2.00000
     90      -3.8602      2.00000
     91      -3.3446      2.00000
     92      -2.8642      2.00000
     93      -2.5389      2.00000
     94      -2.4865      2.00000
     95      -2.1581      2.00000
     96      -2.1245      2.00000
     97      -1.9969      2.00000
     98      -1.9564      2.00000
     99      -1.7002      2.00000
    100      -1.6786      2.00000
    101      -1.4883      2.00000
    102      -1.3887      2.00000
    103      -1.1910      2.00000
    104      -1.1263      2.00000
    105      -0.9473      2.00000
    106      -0.9358      2.00000
    107      -0.8296      2.00000
    108      -0.7882      2.00000
    109      -0.7482      2.00000
    110      -0.6255      2.00000
    111      -0.6127      2.00000
    112      -0.5075      2.00000
    113      -0.4710      2.00000
    114      -0.3535      2.00000
    115      -0.2902      2.00000
    116      -0.2720      2.00000
    117      -0.1840      2.00000
    118      -0.1139      2.00000
    119      -0.0971      2.00000
    120      -0.0641      2.00000
    121      -0.0440      2.00000
    122       0.0593      2.00000
    123       0.1726      2.00000
    124       0.2191      2.00001
    125       0.3382      2.00467
    126       0.3728      2.01652
    127       0.4023      2.03750
    128       0.4785      2.03335
    129       0.5147      1.81297
    130       0.5570      1.24750
    131       0.6003      0.53894
    132       0.6204      0.27502
    133       0.6566     -0.00260
    134       0.6578     -0.00782
    135       0.6744     -0.05519
    136       0.7261     -0.05142
    137       0.7676     -0.01829
    138       0.8015     -0.00546
    139       0.8339     -0.00133
    140       0.8475     -0.00068
    141       0.8840     -0.00009
    142       0.8859     -0.00008
    143       0.9512     -0.00000
    144       0.9670     -0.00000
    145       1.0323     -0.00000
    146       1.0707     -0.00000
    147       1.0946     -0.00000
    148       1.1092     -0.00000
    149       1.1414     -0.00000
    150       1.1925     -0.00000
    151       1.2023     -0.00000
    152       1.2199     -0.00000
    153       1.2804     -0.00000
    154       1.2965     -0.00000
    155       1.3062     -0.00000
    156       1.3472     -0.00000
    157       1.3874     -0.00000
    158       1.3918     -0.00000
    159       1.4233     -0.00000
    160       1.4720     -0.00000
    161       1.5212     -0.00000
    162       1.5312     -0.00000
    163       1.5708     -0.00000
    164       1.5892     -0.00000
    165       1.6507     -0.00000
    166       1.6655     -0.00000
    167       1.7472     -0.00000
    168       1.7495     -0.00000
    169       1.8103     -0.00000
    170       1.8291     -0.00000
    171       1.9035     -0.00000
    172       1.9210     -0.00000
    173       1.9704     -0.00000
    174       1.9822     -0.00000
    175       2.0729     -0.00000
    176       2.0873     -0.00000
    177       2.1804     -0.00000
    178       2.2489     -0.00000
    179       2.3058     -0.00000
    180       2.3229     -0.00000
    181       2.4024     -0.00000
    182       2.5268     -0.00000
    183       2.6333      0.00000
    184       2.6784      0.00000
    185       2.7801      0.00000
    186       2.7921      0.00000
    187       3.0191      0.00000
    188       3.0784      0.00000
    189       3.1429      0.00000
    190       3.3398      0.00000
    191       3.4112      0.00000
    192       3.4418      0.00000


--------------------------------------------------------------------------------------------------------


 soft charge-density along one line, spin component           1
         0         1         2         3         4         5         6         7         8         9
 total charge-density along one line
 
 pseudopotential strength for first ion, spin component:           1
 -2.801 -24.140   0.023  -0.026   0.000  -0.009   0.006  -0.000
-24.140  11.346  -0.018   0.028   0.000   0.003  -0.004   0.000
  0.023  -0.018 -27.568   0.024   0.000  10.634  -0.017  -0.000
 -0.026   0.028   0.024 -27.606  -0.000  -0.017  10.661   0.000
  0.000   0.000   0.000  -0.000 -27.661  -0.000   0.000  10.696
 -0.009   0.003  10.634  -0.017  -0.000   4.996   0.002   0.000
  0.006  -0.004  -0.017  10.661   0.000   0.002   4.992  -0.000
 -0.000   0.000  -0.000   0.000  10.696   0.000  -0.000   4.972
  0.000   0.000   0.000  -0.000   0.010  -0.000   0.000  -0.006
  0.013   0.012   0.002   0.005  -0.000  -0.000  -0.003   0.000
  0.006  -0.004  -0.006  -0.006  -0.000   0.004   0.004   0.000
 -0.000  -0.000  -0.000   0.000  -0.006   0.000  -0.000   0.004
 -0.033  -0.009  -0.004  -0.004   0.000   0.004   0.002  -0.000
  0.000   0.000   0.000  -0.000   0.013  -0.000   0.000  -0.009
  0.017   0.014   0.001   0.006  -0.000   0.002  -0.005   0.000
  0.008  -0.005  -0.007  -0.009  -0.000   0.005   0.007   0.000
 -0.000  -0.000  -0.000   0.000  -0.008   0.000  -0.000   0.007
 -0.041  -0.010  -0.006  -0.005   0.000   0.006   0.002  -0.000
 total augmentation occupancy for first ion, spin component:           1
  1.996  -0.046   0.003  -0.004   0.000   0.006  -0.009   0.000   0.000  -0.005   0.010   0.000  -0.010  -0.000   0.003  -0.009
 -0.046   1.298   0.021  -0.031   0.000  -0.074   0.093  -0.000   0.000   0.168   0.000   0.000  -0.150  -0.000  -0.022  -0.054
  0.003   0.021   1.986  -0.001   0.000  -0.033  -0.002  -0.000   0.000  -0.061  -0.015  -0.000  -0.036  -0.000   0.044   0.010
 -0.004  -0.031  -0.001   1.987   0.000  -0.002  -0.029  -0.000   0.000   0.040  -0.053   0.000   0.006  -0.000  -0.029   0.038
  0.000   0.000   0.000   0.000   1.986  -0.000  -0.000  -0.032   0.028  -0.000  -0.000  -0.046  -0.000  -0.021   0.000   0.000
  0.006  -0.074  -0.033  -0.002  -0.000   0.061   0.013   0.000  -0.000   0.109   0.094   0.000   0.088   0.000  -0.044  -0.042
 -0.009   0.093  -0.002  -0.029  -0.000   0.013   0.054   0.000  -0.000  -0.076   0.187   0.000   0.043   0.000   0.024  -0.077
  0.000  -0.000  -0.000  -0.000  -0.032   0.000   0.000   0.048  -0.126   0.000   0.000   0.157   0.000   0.041  -0.000  -0.000
  0.000   0.000   0.000   0.000   0.028  -0.000  -0.000  -0.126   1.273   0.000  -0.000   0.102   0.000  -0.374  -0.000   0.000
 -0.005   0.168  -0.061   0.040  -0.000   0.109  -0.076   0.000   0.000   1.192  -0.084   0.000   0.087  -0.000  -0.368   0.015
  0.010   0.000  -0.015  -0.053  -0.000   0.094   0.187   0.000  -0.000  -0.084   1.215   0.000   0.350   0.000   0.020  -0.451
  0.000   0.000  -0.000   0.000  -0.046   0.000   0.000   0.157   0.102   0.000   0.000   1.394   0.000   0.012  -0.000  -0.000
 -0.010  -0.150  -0.036   0.006  -0.000   0.088   0.043   0.000   0.000   0.087   0.350   0.000   0.760  -0.000  -0.019  -0.137
 -0.000  -0.000  -0.000  -0.000  -0.021   0.000   0.000   0.041  -0.374  -0.000   0.000   0.012  -0.000   0.158   0.000  -0.000
  0.003  -0.022   0.044  -0.029   0.000  -0.044   0.024  -0.000  -0.000  -0.368   0.020  -0.000  -0.019   0.000   0.137  -0.010
 -0.009  -0.054   0.010   0.038   0.000  -0.042  -0.077  -0.000   0.000   0.015  -0.451  -0.000  -0.137  -0.000  -0.010   0.212
 -0.000  -0.000   0.000  -0.000   0.033  -0.000  -0.000  -0.063   0.015  -0.000  -0.000  -0.420  -0.000  -0.026   0.000   0.000
  0.012   0.069   0.026  -0.005   0.000  -0.044  -0.019  -0.000  -0.000  -0.015  -0.139  -0.000  -0.225   0.000   0.004   0.070


------------------------ aborting loop because EDIFF is reached ----------------------------------------


    CHARGE:  cpu time      0.1327: real time      0.1327
    FORLOC:  cpu time      0.0036: real time      0.0036
    FORNL :  cpu time      3.1471: real time      3.1473
    STRESS:  cpu time      6.8064: real time      6.8065
    FORCOR:  cpu time      0.0379: real time      0.0379
    FORHAR:  cpu time      0.0101: real time      0.0101
    MIXING:  cpu time      0.0023: real time      0.0023
    OFIELD:  cpu time      0.0000: real time      0.0000

  FORCE on cell =-STRESS in cart. coord.  units (eV):
  Direction    XX          YY          ZZ          XY          YZ          ZX
  --------------------------------------------------------------------------------------
  Alpha Z   243.40285   243.40285   243.40285
  Ewald   96801.25358 96821.47071************     0.00000  -772.12570     0.00000
  Hartree104371.11872104293.60915-97729.97418     0.00000  -458.36389    -0.00000
  E(xc)   -1301.53373 -1301.52112 -1303.10271    -0.00000    -0.68449    -0.00000
  Local  ************************203661.85005    -0.00000  1236.03660    -0.00000
  n-local  -218.03299  -177.72687  -177.43100     0.68765    10.13055    -0.08107
  augment  1239.58479  1219.49633  1217.00729    -0.00000    -4.19072     0.00000
  Kinetic  3171.44462  3122.27698  3126.14974     1.10933   -36.97362    -0.29090
  Fock        0.00000     0.00000     0.00000     0.00000     0.00000     0.00000
  -------------------------------------------------------------------------------------
  Total     -17.92933   -16.94981     7.52958    -0.00000   -26.17127    -0.00000
  in kB     -17.34511   -16.39751     7.28424    -0.00000   -25.31850    -0.00000
  external pressure =       -8.82 kB  Pullay stress =        0.00 kB


 VOLUME and BASIS-vectors are now :
 -----------------------------------------------------------------------------
  energy-cutoff  :      520.00
  volume of cell :     1656.14
      direct lattice vectors                 reciprocal lattice vectors
     5.858455502  0.000000000  0.000000000     0.170693453 -0.000000000 -0.000000000
     0.000000000 10.159529953  0.000000000     0.000000000  0.098429751  0.012037869
     0.000000000 -3.403016409 27.825360602     0.000000000  0.000000000  0.035938438

  length of vectors
     5.858455502 10.159529953 28.032681165     0.170693453  0.099163129  0.035938438


 FORCES acting on ions
    electron-ion (+dipol)            ewald-force                    non-local-force                 convergence-correction
 -----------------------------------------------------------------------------------------------
   -.124E-13 -.675E+02 0.252E+04   0.786E-14 0.634E+02 -.251E+04   0.717E-16 0.408E+01 -.581E+01   -.669E-13 0.687E-04 0.138E-02
   -.327E-13 0.157E+02 -.172E+03   -.120E-13 -.157E+02 0.172E+03   0.707E-17 -.132E+00 0.520E+00   -.137E-13 0.194E-03 -.126E-02
   -.282E-14 -.183E+02 0.149E+04   0.476E-13 0.182E+02 -.149E+04   0.317E-16 0.288E+00 0.649E+00   -.528E-13 -.385E-03 0.141E-02
   -.662E-14 -.690E+02 -.158E+04   0.550E-13 0.685E+02 0.158E+04   0.403E-16 0.872E+00 -.377E+00   0.881E-13 0.546E-03 -.310E-02
   -.306E-13 0.529E+02 0.148E+04   -.872E-14 -.536E+02 -.148E+04   0.164E-16 0.706E+00 -.884E+00   0.911E-14 0.463E-03 0.147E-02
   -.531E-14 0.463E+02 -.172E+04   0.193E-13 -.468E+02 0.172E+04   0.752E-16 0.275E+00 0.201E+01   0.434E-14 -.615E-03 -.331E-02
   -.122E-13 -.417E+02 -.609E+02   0.641E-14 0.419E+02 0.606E+02   0.204E-17 -.139E+00 0.427E+00   0.342E-13 -.191E-03 -.137E-02
   0.187E-13 0.301E+02 0.256E+04   -.183E-13 -.259E+02 -.255E+04   -.360E-15 -.316E+01 -.600E+01   0.583E-13 -.531E-04 0.179E-02
   0.700E-12 0.389E+02 -.260E+04   0.312E-13 -.360E+02 0.259E+04   0.306E-17 -.271E+01 0.566E+01   -.202E-12 -.231E-03 -.195E-02
   0.693E-12 0.264E+02 -.911E+02   0.126E-13 -.264E+02 0.911E+02   -.239E-16 -.285E+00 -.234E+00   0.394E-13 -.265E-04 -.998E-03
   0.711E-12 -.128E+02 0.152E+04   -.550E-13 0.131E+02 -.152E+04   -.414E-16 -.446E+00 -.512E+00   0.955E-13 -.344E-03 0.971E-03
   0.719E-12 -.666E+02 -.160E+04   -.136E-13 0.673E+02 0.160E+04   -.385E-16 -.358E+00 -.618E+00   -.127E-12 0.506E-03 -.373E-02
   0.733E-12 0.230E+03 0.125E+04   -.237E-13 -.234E+03 -.124E+04   0.265E-16 0.114E+01 -.146E+01   0.153E-13 0.557E-03 0.893E-03
   0.728E-12 0.220E+03 -.193E+04   -.417E-13 -.224E+03 0.193E+04   0.568E-16 0.131E+01 -.674E+00   -.713E-13 -.532E-03 -.436E-02
   0.771E-12 -.200E+03 0.256E+03   0.465E-13 0.204E+03 -.259E+03   -.265E-16 -.833E+00 0.830E+00   0.132E-13 0.226E-03 -.106E-02
   0.841E-12 -.238E+01 -.257E+04   0.275E-13 0.231E+01 0.256E+04   0.188E-15 -.428E+00 0.741E+01   -.264E-12 0.102E-03 -.267E-02
   -.139E+02 -.299E+01 0.402E+03   0.131E+02 0.358E+01 -.401E+03   0.759E+00 -.542E+00 -.881E+00   0.709E-04 0.606E-04 0.321E-03
   0.273E+02 0.924E+01 -.415E+03   -.266E+02 -.853E+01 0.415E+03   -.590E+00 -.811E+00 0.254E+00   -.737E-04 0.128E-03 -.998E-03
   0.195E+02 0.205E+02 0.234E+02   -.214E+02 -.215E+02 -.249E+02   0.293E+01 0.784E+00 0.172E+01   -.524E-04 -.196E-03 -.181E-03
   0.217E+02 -.125E+02 -.665E+03   -.230E+02 0.111E+02 0.662E+03   0.250E+01 0.104E+01 0.329E+01   -.194E-03 0.222E-03 -.538E-03
   0.860E+01 -.918E+01 -.327E+02   -.872E+01 0.912E+01 0.325E+02   0.616E-02 0.172E+00 0.181E+00   0.739E-04 0.195E-03 -.379E-03
   -.437E+02 -.120E+02 0.659E+03   0.419E+02 0.125E+02 -.657E+03   0.181E+01 -.412E+00 -.308E+01   0.393E-04 -.318E-04 0.406E-03
   0.433E+02 -.848E+01 -.464E+03   -.444E+02 0.914E+01 0.465E+03   0.186E+01 -.768E+00 -.235E+00   -.127E-03 -.379E-04 -.959E-03
   0.738E+01 -.156E+02 0.327E+03   -.920E+01 0.163E+02 -.327E+03   0.248E+01 -.551E+00 -.968E+00   -.405E-05 -.653E-04 0.423E-03
   0.139E+02 -.299E+01 0.402E+03   -.131E+02 0.358E+01 -.401E+03   -.759E+00 -.542E+00 -.881E+00   -.709E-04 0.606E-04 0.321E-03
   -.273E+02 0.924E+01 -.415E+03   0.266E+02 -.853E+01 0.415E+03   0.590E+00 -.811E+00 0.254E+00   0.737E-04 0.128E-03 -.998E-03
   -.195E+02 0.205E+02 0.234E+02   0.214E+02 -.215E+02 -.249E+02   -.293E+01 0.784E+00 0.172E+01   0.524E-04 -.196E-03 -.181E-03
   -.217E+02 -.125E+02 -.665E+03   0.230E+02 0.111E+02 0.662E+03   -.250E+01 0.104E+01 0.329E+01   0.194E-03 0.222E-03 -.538E-03
   -.860E+01 -.918E+01 -.327E+02   0.872E+01 0.912E+01 0.325E+02   -.616E-02 0.172E+00 0.181E+00   -.739E-04 0.195E-03 -.379E-03
   0.437E+02 -.120E+02 0.659E+03   -.419E+02 0.125E+02 -.657E+03   -.181E+01 -.412E+00 -.308E+01   -.393E-04 -.318E-04 0.406E-03
   -.433E+02 -.848E+01 -.464E+03   0.444E+02 0.914E+01 0.465E+03   -.186E+01 -.768E+00 -.235E+00   0.127E-03 -.379E-04 -.959E-03
   -.738E+01 -.156E+02 0.327E+03   0.920E+01 0.163E+02 -.327E+03   -.248E+01 -.551E+00 -.968E+00   0.405E-05 -.653E-04 0.423E-03
   0.117E-11 0.103E+02 -.923E+03   0.372E-13 -.107E+02 0.923E+03   0.145E-16 0.346E+00 -.186E+00   -.175E-12 -.115E-02 -.253E-02
   0.119E-11 -.136E+03 0.251E+04   -.124E-13 0.131E+03 -.251E+04   0.430E-15 0.750E+01 -.455E+00   0.139E-12 -.764E-03 0.243E-02
 -----------------------------------------------------------------------------------------------
   0.122E-10 -.585E+01 -.837E+00   -.148E-15 0.568E-13 -.136E-11   0.889E-15 0.585E+01 0.855E+00   -.452E-12 -.108E-02 -.198E-01
 
 
 POSITION                                       TOTAL-FORCE (eV/Angst)
 -----------------------------------------------------------------------------------
      0.00000      8.93760      9.21574         0.000000     -0.040496      0.497789
      0.00000      3.27247     14.00206         0.000000     -0.166424      0.470925
      0.00000      6.31661     11.43014         0.000000      0.150302     -0.210038
      0.00000      0.65148     16.21646         0.000000      0.314849     -0.151979
      0.00000      1.15651     11.49801        -0.000000     -0.023931     -0.116226
      0.00000      5.65091     16.28434        -0.000000     -0.216403     -0.130013
      0.00000      8.43257     13.93418         0.000000      0.000430      0.069485
      0.00000      3.93817      9.14786         0.000000      0.955273      1.866246
      2.92923     -2.26142     18.67750        -0.000000      0.179701     -0.940494
      2.92923      3.40371     13.89118        -0.000000     -0.234234     -0.276926
      2.92923      6.18537     11.54102        -0.000000     -0.151542     -0.071160
      2.92923      0.52024     16.32735         0.000000      0.393848      0.064582
      2.92923      0.86829     11.74152        -0.000000     -2.582179      2.174145
      2.92923      5.36269     16.52784        -0.000000     -3.393155      3.116986
      2.92923     -1.43874     13.69068         0.000000      3.017323     -2.045714
      2.92923      3.05566     18.47700        -0.000000     -0.489359     -1.283385
      1.42176      8.71783     11.48451        -0.058499      0.041597     -0.529526
      1.42176      3.05270     16.27083         0.135588     -0.096755      0.396251
      1.25322      5.75597     13.73997         0.948092     -0.161157      0.259889
      1.25322      0.09084     18.52630         1.236919     -0.396612      0.124691
      1.42176      0.87125     13.94769        -0.111381      0.113484      0.020586
      1.42176      6.53638      9.16137         0.021571      0.128224     -0.195830
      1.25322     -1.83202     16.47855         0.793321     -0.099456      0.508787
      1.25322      3.83311     11.69222         0.672937      0.144404     -0.262233
      4.43669      8.71783     11.48451         0.058499      0.041597     -0.529526
      4.43669      3.05270     16.27083        -0.135588     -0.096755      0.396251
      4.60523      5.75597     13.73997        -0.948092     -0.161157      0.259889
      4.60523      0.09084     18.52630        -1.236919     -0.396612      0.124691
      4.43669      0.87125     13.94769         0.111381      0.113484      0.020586
      4.43669      6.53638      9.16137        -0.021571      0.128224     -0.195830
      4.60523     -1.83202     16.47855        -0.793321     -0.099456      0.508787
      4.60523      3.83311     11.69222        -0.672937      0.144404     -0.262233
      2.92923      7.04174     15.10926         0.000000     -0.111232      0.101579
      2.92923      2.54734     10.32294         0.000000      3.049769     -3.781029
 -----------------------------------------------------------------------------------
    total drift:                                0.000000      0.000078     -0.001943


--------------------------------------------------------------------------------------------------------



  FREE ENERGIE OF THE ION-ELECTRON SYSTEM (eV)
  ---------------------------------------------------
  free  energy   TOTEN  =      -177.04339183 eV

  energy  without entropy=     -177.03032394  energy(sigma->0) =     -177.03903587
 


--------------------------------------------------------------------------------------------------------


    POTLOK:  cpu time      0.0454: real time      0.0454


--------------------------------------------------------------------------------------------------------


 writing wavefunctions
     LOOP+:  cpu time    368.5699: real time    368.5997
    4ORBIT:  cpu time      0.0000: real time      0.0000

 total amount of memory used by VASP MPI-rank0   249069. kBytes
=======================================================================

   base                                    :      30000. kBytes
   nonl-proj                               :     178688. kBytes
   fftplans                                :       3707. kBytes
   grid                                    :      18796. kBytes
   one-center                              :        528. kBytes
   wavefun                                 :      17350. kBytes
 
  
  
 General timing and accounting informations for this job:
 ========================================================
  
                  Total CPU time used (sec):      377.334
                            User time (sec):      356.809
                          System time (sec):       20.526
                         Elapsed time (sec):      377.623
  
                   Maximum memory used (kb):      540124.
                   Average memory used (kb):          N/A
  
                          Minor page faults:        95053
                          Major page faults:           22
                 Voluntary context switches:          127
