<?xml version="1.0" encoding="ISO-8859-1"?>
<modeling>
 <generator>
  <i name="program" type="string">vasp </i>
  <i name="version" type="string">6.5.0  </i>
  <i name="subversion" type="string">16Dec24 (build Apr 17 2025 17:55:45) complex                          parallel </i>
  <i name="platform" type="string">LinuxIFC </i>
  <i name="date" type="string">2025 06 10 </i>
  <i name="time" type="string">15:31:49 </i>
 </generator>
 <incar>
  <i type="int" name="ISTART">     0</i>
  <i type="string" name="PREC">N</i>
  <i type="string" name="ALGO">N</i>
  <i type="int" name="ICHARG">     2</i>
  <i type="int" name="NELM">   500</i>
  <i type="int" name="IBRION">    -1</i>
  <i name="EDIFF">      0.00001000</i>
  <i name="EDIFFG">     -0.01000000</i>
  <i type="int" name="NSW">     0</i>
  <i type="int" name="ISIF">     3</i>
  <i name="ENCUT">    520.00000000</i>
  <i type="logical" name="LREAL"> F  </i>
  <i type="int" name="ISMEAR">     1</i>
  <i name="SIGMA">      0.10000000</i>
  <i type="logical" name="LVTOT"> T  </i>
  <i type="logical" name="LVHAR"> T  </i>
 </incar>
 <primitive_cell>
  <structure name="primitive_cell" >
   <crystal>
    <varray name="basis" >
     <v>       5.85845550       0.00000000       0.00000000 </v>
     <v>       0.00000000      10.15952995       0.00000000 </v>
     <v>       0.00000000      -3.40301641      27.82536060 </v>
    </varray>
    <i name="volume">   1656.14192705 </i>
    <varray name="rec_basis" >
     <v>       0.17069345      -0.00000000      -0.00000000 </v>
     <v>       0.00000000       0.09842975       0.01203787 </v>
     <v>       0.00000000       0.00000000       0.03593844 </v>
    </varray>
   </crystal>
   <varray name="positions" >
    <v>       0.00000000       0.99066316       0.33119916 </v>
    <v>       0.00000000       0.49066316       0.50321211 </v>
    <v>       0.00000000       0.75933684       0.41078141 </v>
    <v>       0.00000000       0.25933684       0.58279436 </v>
    <v>       0.00000000       0.25224643       0.41322069 </v>
    <v>       0.00000000       0.75224643       0.58523364 </v>
    <v>       0.00000000       0.99775357       0.50077283 </v>
    <v>       0.00000000       0.49775357       0.32875988 </v>
    <v>       0.50000000       0.00224643       0.67124012 </v>
    <v>       0.50000000       0.50224643       0.49922717 </v>
    <v>       0.50000000       0.74775357       0.41476636 </v>
    <v>       0.50000000       0.24775357       0.58677931 </v>
    <v>       0.50000000       0.22680859       0.42197197 </v>
    <v>       0.50000000       0.72680859       0.59398492 </v>
    <v>       0.50000000       0.02319141       0.49202155 </v>
    <v>       0.50000000       0.52319141       0.66403451 </v>
    <v>       0.24268531       0.99634265       0.41273530 </v>
    <v>       0.24268531       0.49634265       0.58474825 </v>
    <v>       0.21391683       0.73195841       0.49379323 </v>
    <v>       0.21391683       0.23195841       0.66580618 </v>
    <v>       0.24268531       0.25365735       0.50125822 </v>
    <v>       0.24268531       0.75365735       0.32924527 </v>
    <v>       0.21391683       0.01804159       0.59221325 </v>
    <v>       0.21391683       0.51804159       0.42020030 </v>
    <v>       0.75731469       0.99634265       0.41273530 </v>
    <v>       0.75731469       0.49634265       0.58474825 </v>
    <v>       0.78608317       0.73195841       0.49379323 </v>
    <v>       0.78608317       0.23195841       0.66580618 </v>
    <v>       0.75731469       0.25365735       0.50125822 </v>
    <v>       0.75731469       0.75365735       0.32924527 </v>
    <v>       0.78608317       0.01804159       0.59221325 </v>
    <v>       0.78608317       0.51804159       0.42020030 </v>
    <v>       0.50000000       0.87500000       0.54300324 </v>
    <v>       0.50000000       0.37500000       0.37099029 </v>
   </varray>
  </structure>
  <varray name="primitive_index" >
   <v type="int" >        1 </v>
   <v type="int" >        2 </v>
   <v type="int" >        3 </v>
   <v type="int" >        4 </v>
   <v type="int" >        5 </v>
   <v type="int" >        6 </v>
   <v type="int" >        7 </v>
   <v type="int" >        8 </v>
   <v type="int" >        9 </v>
   <v type="int" >       10 </v>
   <v type="int" >       11 </v>
   <v type="int" >       12 </v>
   <v type="int" >       13 </v>
   <v type="int" >       14 </v>
   <v type="int" >       15 </v>
   <v type="int" >       16 </v>
   <v type="int" >       17 </v>
   <v type="int" >       18 </v>
   <v type="int" >       19 </v>
   <v type="int" >       20 </v>
   <v type="int" >       21 </v>
   <v type="int" >       22 </v>
   <v type="int" >       23 </v>
   <v type="int" >       24 </v>
   <v type="int" >       25 </v>
   <v type="int" >       26 </v>
   <v type="int" >       27 </v>
   <v type="int" >       28 </v>
   <v type="int" >       29 </v>
   <v type="int" >       30 </v>
   <v type="int" >       31 </v>
   <v type="int" >       32 </v>
   <v type="int" >       33 </v>
   <v type="int" >       34 </v>
  </varray>
 </primitive_cell>
 <kpoints>
  <generation param="Gamma">
   <v type="int" name="divisions">       6        3        1 </v>
   <v name="usershift">      0.00000000       0.00000000       0.00000000 </v>
   <v name="genvec1">      0.16666667       0.00000000       0.00000000 </v>
   <v name="genvec2">      0.00000000       0.33333333       0.00000000 </v>
   <v name="genvec3">      0.00000000       0.00000000       1.00000000 </v>
   <v name="shift">      0.00000000       0.00000000       0.00000000 </v>
  </generation>
  <varray name="kpointlist" >
   <v>       0.00000000       0.00000000       0.00000000 </v>
   <v>       0.16666667       0.00000000       0.00000000 </v>
   <v>       0.33333333       0.00000000       0.00000000 </v>
   <v>       0.50000000       0.00000000       0.00000000 </v>
   <v>       0.00000000       0.33333333       0.00000000 </v>
   <v>       0.16666667       0.33333333       0.00000000 </v>
   <v>       0.33333333       0.33333333       0.00000000 </v>
   <v>       0.50000000       0.33333333       0.00000000 </v>
  </varray>
  <varray name="weights" >
   <v>       0.05555556 </v>
   <v>       0.11111111 </v>
   <v>       0.11111111 </v>
   <v>       0.05555556 </v>
   <v>       0.11111111 </v>
   <v>       0.22222222 </v>
   <v>       0.22222222 </v>
   <v>       0.11111111 </v>
  </varray>
 </kpoints>
 <parameters>
  <separator name="general" >
   <i type="string" name="SYSTEM">unknown system</i>
   <i type="logical" name="LCOMPAT"> F  </i>
  </separator>
  <separator name="electronic" >
   <i type="string" name="PREC">n</i>
   <i name="ENMAX">    520.00000000</i>
   <i name="ENAUG">    490.69000000</i>
   <i name="EDIFF">      0.00001000</i>
   <i type="int" name="IALGO">    38</i>
   <i type="int" name="IWAVPR">    10</i>
   <i type="int" name="NBANDS">   192</i>
   <i type="int" name="NBANDSLOW">    -1</i>
   <i type="int" name="NBANDSHIGH">    -1</i>
   <i name="NELECT">    266.00000000</i>
   <i type="int" name="TURBO">     0</i>
   <i type="int" name="IRESTART">     0</i>
   <i type="int" name="NREBOOT">     0</i>
   <i type="int" name="NMIN">     0</i>
   <i name="EREF">      0.00000000</i>
   <separator name="electronic smearing" >
    <i type="int" name="ISMEAR">     1</i>
    <i name="SIGMA">      0.10000000</i>
    <i name="KSPACING">      0.50000000</i>
    <i type="logical" name="KGAMMA"> T  </i>
    <i type="logical" name="KBLOWUP"> T  </i>
   </separator>
   <separator name="electronic projectors" >
    <i type="logical" name="LREAL"> F  </i>
    <v name="ROPT">      0.00000000      0.00000000      0.00000000</v>
    <i type="int" name="LMAXPAW">  -100</i>
    <i type="int" name="LMAXMIX">     2</i>
    <i type="logical" name="NLSPLINE"> F  </i>
   </separator>
   <separator name="electronic startup" >
    <i type="int" name="ISTART">     0</i>
    <i type="int" name="ICHARG">     2</i>
    <i type="int" name="INIWAV">     1</i>
   </separator>
   <separator name="electronic spin" >
    <i type="int" name="ISPIN">     1</i>
    <i type="logical" name="LNONCOLLINEAR"> F  </i>
    <v name="MAGMOM">      1.00000000      1.00000000      1.00000000      1.00000000      1.00000000      1.00000000      1.00000000      1.00000000      1.00000000      1.00000000      1.00000000      1.00000000      1.00000000      1.00000000      1.00000000      1.00000000      1.00000000      1.00000000      1.00000000      1.00000000
      1.00000000      1.00000000      1.00000000      1.00000000      1.00000000      1.00000000      1.00000000      1.00000000      1.00000000      1.00000000      1.00000000      1.00000000      1.00000000      1.00000000</v>
    <i name="NUPDOWN">     -1.00000000</i>
    <i type="logical" name="LSORBIT"> F  </i>
    <v name="SAXIS">      0.00000000      0.00000000      1.00000000</v>
    <i type="logical" name="LSPIRAL"> F  </i>
    <v name="QSPIRAL">      0.00000000      0.00000000      0.00000000</v>
    <i type="logical" name="LZEROZ"> F  </i>
   </separator>
   <separator name="electronic exchange-correlation" >
    <i type="logical" name="LASPH"> F  </i>
   </separator>
   <separator name="electronic convergence" >
    <i type="int" name="NELM">   500</i>
    <i type="int" name="NELMDL">    -5</i>
    <i type="int" name="NELMIN">     2</i>
    <i name="ENINI">    520.00000000</i>
    <separator name="electronic convergence detail" >
     <i type="logical" name="LDIAG"> T  </i>
     <i type="logical" name="LSUBROT"> F  </i>
     <i name="WEIMIN">      0.00000000</i>
     <i name="EBREAK">      0.00000001</i>
     <i name="DEPER">      0.30000000</i>
     <i type="int" name="NRMM">     4</i>
     <i name="TIME">      0.40000000</i>
    </separator>
   </separator>
   <separator name="electronic mixer" >
    <i name="AMIX">      0.40000000</i>
    <i name="BMIX">      1.00000000</i>
    <i name="AMIN">      0.10000000</i>
    <i name="AMIX_MAG">      1.60000000</i>
    <i name="BMIX_MAG">      1.00000000</i>
    <separator name="electronic mixer details" >
     <i type="int" name="IMIX">     4</i>
     <i type="logical" name="MIXFIRST"> F  </i>
     <i type="int" name="MAXMIX">   -45</i>
     <i name="WC">    100.00000000</i>
     <i type="int" name="INIMIX">     1</i>
     <i type="int" name="MIXPRE">     1</i>
     <i type="int" name="MREMOVE">     5</i>
    </separator>
   </separator>
   <separator name="electronic dipolcorrection" >
    <i type="logical" name="LDIPOL"> F  </i>
    <i type="logical" name="LMONO"> F  </i>
    <i type="int" name="IDIPOL">     0</i>
    <i name="EPSILON">      1.00000000</i>
    <v name="DIPOL">   -100.00000000   -100.00000000   -100.00000000</v>
    <i name="EFIELD">      0.00000000</i>
    <i type="logical" name="LVACPOTAV"> F  </i>
   </separator>
  </separator>
  <separator name="grids" >
   <i type="int" name="NGX">    36</i>
   <i type="int" name="NGY">    60</i>
   <i type="int" name="NGZ">   160</i>
   <i type="int" name="NGXF">    72</i>
   <i type="int" name="NGYF">   120</i>
   <i type="int" name="NGZF">   320</i>
   <i type="logical" name="ADDGRID"> F  </i>
  </separator>
  <separator name="ionic" >
   <i type="int" name="NSW">     0</i>
   <i type="int" name="IBRION">    -1</i>
   <i type="int" name="MDALGO">     0</i>
   <i type="int" name="ISIF">     3</i>
   <i name="PSTRESS">      0.00000000</i>
   <i name="EDIFFG">     -0.01000000</i>
   <i type="int" name="NFREE">     0</i>
   <i name="POTIM">      0.50000000</i>
   <i name="SMASS">     -3.00000000</i>
   <i name="SCALEE">      1.00000000</i>
  </separator>
  <separator name="ionic md" >
   <i name="TEBEG">      0.00010000</i>
   <i name="TEEND">      0.00010000</i>
   <i type="int" name="NBLOCK">     1</i>
   <i type="int" name="KBLOCK">     1</i>
   <i type="int" name="NPACO">   256</i>
   <i name="APACO">     10.00000000</i>
  </separator>
  <separator name="symmetry" >
   <i type="int" name="ISYM">     2</i>
   <i name="SYMPREC">      0.00001000</i>
  </separator>
  <separator name="dos" >
   <i type="int" name="LORBIT">     0</i>
   <v name="RWIGS">     -1.00000000     -1.00000000     -1.00000000</v>
   <i type="int" name="NEDOS">   301</i>
   <i name="EMIN">     10.00000000</i>
   <i name="EMAX">    -10.00000000</i>
   <i name="EFERMI">      0.00000000</i>
  </separator>
  <separator name="writing" >
   <i type="int" name="NWRITE">     2</i>
   <i type="logical" name="LWAVE"> T  </i>
   <i type="logical" name="LDOWNSAMPLE"> F  </i>
   <i type="logical" name="LCHARG"> T  </i>
   <i type="logical" name="LPARD"> F  </i>
   <i type="logical" name="LVTOT"> F  </i>
   <i type="logical" name="LVHAR"> T  </i>
   <i type="logical" name="LELF"> F  </i>
   <i type="logical" name="LOPTICS"> F  </i>
   <v name="STM">      0.00000000      0.00000000      0.00000000      0.00000000      0.00000000      0.00000000      0.00000000</v>
  </separator>
  <separator name="performance" >
   <i type="int" name="NPAR">    64</i>
   <i type="int" name="NSIM">     4</i>
   <i type="int" name="NBLK">    -1</i>
   <i type="logical" name="LPLANE"> T  </i>
   <i type="logical" name="LSCALAPACK"> T  </i>
   <i type="logical" name="LSCAAWARE"> F  </i>
   <i type="logical" name="LSCALU"> F  </i>
   <i type="logical" name="LASYNC"> F  </i>
   <i type="logical" name="LORBITALREAL"> F  </i>
  </separator>
  <separator name="miscellaneous" >
   <i type="int" name="IDIOT">     3</i>
   <i type="int" name="PHON_NSTRUCT">    -1</i>
   <i type="logical" name="LMUSIC"> F  </i>
   <v name="POMASS">     47.88000000     26.98100000     69.72300000</v>
   <v name="DARWINR">      0.00000000      0.00000000      0.00000000</v>
   <v name="DARWINV">      1.00000000      1.00000000      1.00000000</v>
   <i type="logical" name="LCORR"> T  </i>
  </separator>
  <i type="logical" name="GGA_COMPAT"> T  </i>
  <i type="logical" name="LBERRY"> F  </i>
  <i type="int" name="ICORELEVEL">     0</i>
  <i type="logical" name="LDAU"> F  </i>
  <i type="int" name="I_CONSTRAINED_M">     0</i>
  <separator name="electronic exchange-correlation" >
   <i type="string" name="GGA    ">PE</i>
   <i type="string" name="XC_C">1</i>
   <i type="int" name="VOSKOWN">     0</i>
   <i type="logical" name="LHFCALC"> F  </i>
   <i type="string" name="PRECFOCK"></i>
   <i type="logical" name="LSYMGRAD"> F  </i>
   <i type="logical" name="LHFONE"> F  </i>
   <i type="logical" name="LRHFCALC"> F  </i>
   <i type="logical" name="LTHOMAS"> F  </i>
   <i type="logical" name="LMODELHF"> F  </i>
   <i type="logical" name="LFOCKACE"> F  </i>
   <i name="ENCUT4O">     -1.00000000</i>
   <i type="int" name="EXXOEP">     0</i>
   <i type="int" name="FOURORBIT">     0</i>
   <i name="AEXX">      0.00000000</i>
   <i name="HFALPHA">      0.00000000</i>
   <i name="MCALPHA">      0.00000000</i>
   <i name="ALDAX">      1.00000000</i>
   <i name="AGGAX">      1.00000000</i>
   <i name="AMGGAX">      1.00000000</i>
   <i name="ALDAC">      1.00000000</i>
   <i name="AGGAC">      1.00000000</i>
   <i name="AMGGAC">      1.00000000</i>
   <i type="int" name="NKREDX">     1</i>
   <i type="int" name="NKREDY">     1</i>
   <i type="int" name="NKREDZ">     1</i>
   <i type="logical" name="SHIFTRED"> F  </i>
   <i type="logical" name="ODDONLY"> F  </i>
   <i type="logical" name="EVENONLY"> F  </i>
   <i type="int" name="LMAXFOCK">     0</i>
   <i type="int" name="NMAXFOCKAE">     0</i>
   <i type="logical" name="LFOCKAEDFT"> F  </i>
   <i name="HFSCREEN">      0.00000000</i>
   <i name="HFSCREENC">      0.00000000</i>
   <i type="int" name="NBANDSGWLOW">     0</i>
  </separator>
  <separator name="vdW DFT" >
   <i type="logical" name="LUSE_VDW"> F  </i>
   <i type="int" name="IVDW_NL">    -1</i>
   <i type="logical" name="LSPIN_VDW"> F  </i>
   <i name="ZAB_VDW">     -0.84910000</i>
   <i name="GAMMA_VDW">      1.39626340</i>
   <i name="ALPHA_VDW">      0.00000000</i>
   <i name="PARAM1">      0.12340000</i>
   <i name="PARAM2">      1.00000000</i>
   <i name="BPARAM">      6.30000000</i>
   <i name="CPARAM">      0.00930000</i>
  </separator>
  <separator name="model GW" >
   <i type="int" name="MODEL_GW">     0</i>
   <i name="MODEL_EPS0">     29.22603401</i>
   <i name="MODEL_ALPHA">      1.00000000</i>
  </separator>
  <separator name="linear response parameters" >
   <i type="logical" name="LEPSILON"> F  </i>
   <i type="logical" name="LRPA"> F  </i>
   <i type="logical" name="LNABLA"> F  </i>
   <i type="logical" name="LVEL"> F  </i>
   <i name="CSHIFT">      0.10000000</i>
   <i name="OMEGAMAX">     -1.00000000</i>
   <i name="DEG_THRESHOLD">      0.00200000</i>
   <i name="RTIME">     -0.10000000</i>
   <i name="WPLASMAI">      0.00000000</i>
   <v name="DFIELD">      0.00000000      0.00000000      0.00000000</v>
   <v name="WPLASMA">      0.00000000      0.00000000      0.00000000      0.00000000      0.00000000      0.00000000      0.00000000      0.00000000      0.00000000</v>
  </separator>
  <separator name="orbital magnetization" >
   <i type="logical" name="NUCIND"> F  </i>
   <v name="MAGPOS">      0.00000000      0.00000000      0.00000000</v>
   <i type="logical" name="LNICSALL"> T  </i>
   <i type="logical" name="ORBITALMAG"> F  </i>
   <i type="logical" name="LMAGBLOCH"> F  </i>
   <i type="logical" name="LCHIMAG"> F  </i>
   <i type="logical" name="LGAUGE"> T  </i>
   <i type="int" name="MAGATOM">     0</i>
   <v name="MAGDIPOL">      0.00000000      0.00000000      0.00000000</v>
   <v name="AVECCONST">      0.00000000      0.00000000      0.00000000</v>
  </separator>
  <separator name="response functions" >
   <i type="logical" name="LALL_IN_ONE"> F  </i>
   <i type="int" name="IALL_IN_ONE">    -1</i>
   <i type="int" name="NBANDS_WAVE">    -1</i>
   <i type="logical" name="LFINITE_TEMPERATURE"> F  </i>
   <i type="logical" name="LADDER"> F  </i>
   <i type="logical" name="LRPAFORCE"> F  </i>
   <i type="logical" name="LFXC"> F  </i>
   <i type="logical" name="LHARTREE"> T  </i>
   <i type="int" name="IBSE">     2</i>
   <v type="int" name="KPOINT">    -1     0     0     0</v>
   <i type="logical" name="LTCTC"> F  </i>
   <i type="logical" name="LTCTE"> F  </i>
   <i type="logical" name="LTETE"> F  </i>
   <i type="logical" name="LTRIPLET"> F  </i>
   <i type="logical" name="LFXCEPS"> F  </i>
   <i type="logical" name="LFXHEG"> F  </i>
   <i type="int" name="NATURALO">     2</i>
   <i type="logical" name="LHOLEGF"> F  </i>
   <i type="logical" name="L2ORDER"> F  </i>
   <i type="logical" name="LDMP1"> F  </i>
   <i type="logical" name="LMP2LT"> F  </i>
   <i type="logical" name="LSMP2LT"> F  </i>
   <i type="logical" name="LGWLF"> F  </i>
   <i name="ENCUTGW">     -1.60000002</i>
   <i name="ENCUTGWSOFT">     -1.60000002</i>
   <i name="ENCUTLF">     -1.00000000</i>
   <i type="logical" name="ESF_SPLINES"> F  </i>
   <i name="ESF_CONV">      0.01000000</i>
   <i type="int" name="ESF_NINTER">    15</i>
   <i type="int" name="LMAXMP2">    -1</i>
   <i name="SCISSOR">      0.00000000</i>
   <i type="int" name="NOMEGA">     0</i>
   <i type="int" name="NOMEGAR">     0</i>
   <i type="int" name="NBANDSGW">    -1</i>
   <i type="int" name="NBANDSO">    -1</i>
   <i type="int" name="NBANDSV">    -1</i>
   <i type="int" name="NELMGW">     1</i>
   <i type="int" name="NELMHF">     1</i>
   <i type="int" name="DIM">     3</i>
   <i type="int" name="IESPILON">     4</i>
   <i type="int" name="ANTIRES">     0</i>
   <i name="OMEGAMAX">    -30.00000000</i>
   <i name="OMEGAMIN">    -30.00000000</i>
   <i name="OMEGATL">   -200.00000000</i>
   <i type="int" name="OMEGAGRID">     0</i>
   <i name="CSHIFT">     -0.10000000</i>
   <i type="logical" name="LSELFENERGY"> F  </i>
   <i type="logical" name="LSPECTRAL"> F  </i>
   <i type="logical" name="LSPECTRALGW"> F  </i>
   <i type="logical" name="LSINGLES"> F  </i>
   <i type="logical" name="LFERMIGW"> F  </i>
   <i type="logical" name="ODDONLYGW"> F  </i>
   <i type="logical" name="EVENONLYGW"> F  </i>
   <i type="int" name="NKREDLFX">     1</i>
   <i type="int" name="NKREDLFY">     1</i>
   <i type="int" name="NKREDLFZ">     1</i>
   <i type="int" name="MAXMEM">  2800</i>
   <i type="int" name="TELESCOPE">     0</i>
   <i type="int" name="NTAUPAR">    -1</i>
   <i type="int" name="NOMEGAPAR">    -1</i>
   <i name="DAMP_NEWTON">      0.80000001</i>
   <i name="LAMBDA">      1.00000000</i>
  </separator>
  <separator name="External order field" >
   <i name="OFIELD_KAPPA">      0.00000000</i>
   <v name="OFIELD_K">      0.00000000      0.00000000      0.00000000</v>
   <i name="OFIELD_Q6_NEAR">      0.00000000</i>
   <i name="OFIELD_Q6_FAR">      0.00000000</i>
   <i name="OFIELD_A">      0.00000000</i>
  </separator>
  <separator name="optional k-points parameters" >
   <i type="int" name="KPOINTS_OPT_MODE">     1</i>
   <i type="logical" name="LKPOINTS_OPT"> F  </i>
  </separator>
 </parameters>
 <atominfo>
  <atoms>      34 </atoms>
  <types>       3 </types>
  <array name="atoms" >
   <dimension dim="1">ion</dimension>
   <field type="string">element</field>
   <field type="int">atomtype</field>
   <set>
    <rc><c>Ti</c><c>   1</c></rc>
    <rc><c>Ti</c><c>   1</c></rc>
    <rc><c>Ti</c><c>   1</c></rc>
    <rc><c>Ti</c><c>   1</c></rc>
    <rc><c>Ti</c><c>   1</c></rc>
    <rc><c>Ti</c><c>   1</c></rc>
    <rc><c>Ti</c><c>   1</c></rc>
    <rc><c>Ti</c><c>   1</c></rc>
    <rc><c>Ti</c><c>   1</c></rc>
    <rc><c>Ti</c><c>   1</c></rc>
    <rc><c>Ti</c><c>   1</c></rc>
    <rc><c>Ti</c><c>   1</c></rc>
    <rc><c>Ti</c><c>   1</c></rc>
    <rc><c>Ti</c><c>   1</c></rc>
    <rc><c>Ti</c><c>   1</c></rc>
    <rc><c>Ti</c><c>   1</c></rc>
    <rc><c>Al</c><c>   2</c></rc>
    <rc><c>Al</c><c>   2</c></rc>
    <rc><c>Al</c><c>   2</c></rc>
    <rc><c>Al</c><c>   2</c></rc>
    <rc><c>Al</c><c>   2</c></rc>
    <rc><c>Al</c><c>   2</c></rc>
    <rc><c>Al</c><c>   2</c></rc>
    <rc><c>Al</c><c>   2</c></rc>
    <rc><c>Al</c><c>   2</c></rc>
    <rc><c>Al</c><c>   2</c></rc>
    <rc><c>Al</c><c>   2</c></rc>
    <rc><c>Al</c><c>   2</c></rc>
    <rc><c>Al</c><c>   2</c></rc>
    <rc><c>Al</c><c>   2</c></rc>
    <rc><c>Al</c><c>   2</c></rc>
    <rc><c>Al</c><c>   2</c></rc>
    <rc><c>Ga</c><c>   3</c></rc>
    <rc><c>Ga</c><c>   3</c></rc>
   </set>
  </array>
  <array name="atomtypes" >
   <dimension dim="1">type</dimension>
   <field type="int">atomspertype</field>
   <field type="string">element</field>
   <field>mass</field>
   <field>valence</field>
   <field type="string">pseudopotential</field>
   <set>
    <rc><c>  16</c><c>Ti</c><c>     47.88000000</c><c>     12.00000000</c><c>  PAW_PBE Ti_sv 26Sep2005               </c></rc>
    <rc><c>  16</c><c>Al</c><c>     26.98100000</c><c>      3.00000000</c><c>  PAW_PBE Al 04Jan2001                  </c></rc>
    <rc><c>   2</c><c>Ga</c><c>     69.72300000</c><c>     13.00000000</c><c>  PAW_PBE Ga_d 06Jul2010                </c></rc>
   </set>
  </array>
 </atominfo>
 <structure name="initialpos" >
  <crystal>
   <varray name="basis" >
    <v>       5.85845550       0.00000000       0.00000000 </v>
    <v>       0.00000000      10.15952995       0.00000000 </v>
    <v>       0.00000000      -3.40301641      27.82536060 </v>
   </varray>
   <i name="volume">   1656.14192705 </i>
   <varray name="rec_basis" >
    <v>       0.17069345      -0.00000000      -0.00000000 </v>
    <v>       0.00000000       0.09842975       0.01203787 </v>
    <v>       0.00000000       0.00000000       0.03593844 </v>
   </varray>
  </crystal>
  <varray name="positions" >
   <v>       0.00000000       0.99066316       0.33119916 </v>
   <v>       0.00000000       0.49066316       0.50321211 </v>
   <v>       0.00000000       0.75933684       0.41078141 </v>
   <v>       0.00000000       0.25933684       0.58279436 </v>
   <v>       0.00000000       0.25224643       0.41322069 </v>
   <v>       0.00000000       0.75224643       0.58523364 </v>
   <v>       0.00000000       0.99775357       0.50077283 </v>
   <v>       0.00000000       0.49775357       0.32875988 </v>
   <v>       0.50000000       0.00224643       0.67124012 </v>
   <v>       0.50000000       0.50224643       0.49922717 </v>
   <v>       0.50000000       0.74775357       0.41476636 </v>
   <v>       0.50000000       0.24775357       0.58677931 </v>
   <v>       0.50000000       0.22680859       0.42197197 </v>
   <v>       0.50000000       0.72680859       0.59398492 </v>
   <v>       0.50000000       0.02319141       0.49202155 </v>
   <v>       0.50000000       0.52319141       0.66403451 </v>
   <v>       0.24268531       0.99634265       0.41273530 </v>
   <v>       0.24268531       0.49634265       0.58474825 </v>
   <v>       0.21391683       0.73195841       0.49379323 </v>
   <v>       0.21391683       0.23195841       0.66580618 </v>
   <v>       0.24268531       0.25365735       0.50125822 </v>
   <v>       0.24268531       0.75365735       0.32924527 </v>
   <v>       0.21391683       0.01804159       0.59221325 </v>
   <v>       0.21391683       0.51804159       0.42020030 </v>
   <v>       0.75731469       0.99634265       0.41273530 </v>
   <v>       0.75731469       0.49634265       0.58474825 </v>
   <v>       0.78608317       0.73195841       0.49379323 </v>
   <v>       0.78608317       0.23195841       0.66580618 </v>
   <v>       0.75731469       0.25365735       0.50125822 </v>
   <v>       0.75731469       0.75365735       0.32924527 </v>
   <v>       0.78608317       0.01804159       0.59221325 </v>
   <v>       0.78608317       0.51804159       0.42020030 </v>
   <v>       0.50000000       0.87500000       0.54300324 </v>
   <v>       0.50000000       0.37500000       0.37099029 </v>
  </varray>
 </structure>
 <calculation>
  <scstep>
   <time name="dav">    6.45    6.45</time>
   <time name="total">    6.53    6.53</time>
   <energy>
    <i name="alphaZ">    243.40284528 </i>
    <i name="ewald">  84592.39660786 </i>
    <i name="hartreedc">-110772.22596894 </i>
    <i name="XCdc">    649.59066885 </i>
    <i name="pawpsdc">  24498.55701585 </i>
    <i name="pawaedc"> -24341.03228923 </i>
    <i name="eentropy">      0.00037771 </i>
    <i name="bandstr">  -3053.20408800 </i>
    <i name="atom">  30563.62952402 </i>
    <i name="e_fr_energy">   2381.11469340 </i>
    <i name="e_wo_entrp">   2381.11431569 </i>
    <i name="e_0_energy">   2381.11456750 </i>
   </energy>
  </scstep>
  <scstep>
   <time name="dav">    6.79    6.79</time>
   <time name="total">    6.79    6.80</time>
   <energy>
    <i name="e_fr_energy">     74.10463913 </i>
    <i name="e_wo_entrp">     74.10755483 </i>
    <i name="e_0_energy">     74.10561103 </i>
   </energy>
  </scstep>
  <scstep>
   <time name="dav">   12.42   12.43</time>
   <time name="total">   12.43   12.43</time>
   <energy>
    <i name="e_fr_energy">   -184.70235007 </i>
    <i name="e_wo_entrp">   -184.71108993 </i>
    <i name="e_0_energy">   -184.70526336 </i>
   </energy>
  </scstep>
  <scstep>
   <time name="dav">    9.64    9.64</time>
   <time name="total">    9.64    9.64</time>
   <energy>
    <i name="e_fr_energy">   -220.71593397 </i>
    <i name="e_wo_entrp">   -220.72688181 </i>
    <i name="e_0_energy">   -220.71958325 </i>
   </energy>
  </scstep>
  <scstep>
   <time name="dav">   10.12   10.12</time>
   <time name="total">   10.25   10.25</time>
   <energy>
    <i name="e_fr_energy">   -224.39067126 </i>
    <i name="e_wo_entrp">   -224.40116084 </i>
    <i name="e_0_energy">   -224.39416779 </i>
   </energy>
  </scstep>
  <scstep>
   <time name="dav">   10.59   10.59</time>
   <time name="total">   10.77   10.77</time>
   <energy>
    <i name="e_fr_energy">   -292.03867786 </i>
    <i name="e_wo_entrp">   -292.03255864 </i>
    <i name="e_0_energy">   -292.03663812 </i>
   </energy>
  </scstep>
  <scstep>
   <time name="dav">   10.61   10.61</time>
   <time name="total">   10.79   10.79</time>
   <energy>
    <i name="e_fr_energy">   -205.29886711 </i>
    <i name="e_wo_entrp">   -205.28271129 </i>
    <i name="e_0_energy">   -205.29348184 </i>
   </energy>
  </scstep>
  <scstep>
   <time name="dav">    9.44    9.44</time>
   <time name="total">    9.62    9.63</time>
   <energy>
    <i name="e_fr_energy">   -191.96718305 </i>
    <i name="e_wo_entrp">   -191.95755094 </i>
    <i name="e_0_energy">   -191.96397235 </i>
   </energy>
  </scstep>
  <scstep>
   <time name="dav">    9.38    9.38</time>
   <time name="total">    9.57    9.57</time>
   <energy>
    <i name="e_fr_energy">   -183.48885775 </i>
    <i name="e_wo_entrp">   -183.48572033 </i>
    <i name="e_0_energy">   -183.48781195 </i>
   </energy>
  </scstep>
  <scstep>
   <time name="dav">    9.27    9.27</time>
   <time name="total">    9.45    9.45</time>
   <energy>
    <i name="e_fr_energy">   -182.23023494 </i>
    <i name="e_wo_entrp">   -182.21426052 </i>
    <i name="e_0_energy">   -182.22491013 </i>
   </energy>
  </scstep>
  <scstep>
   <time name="dav">    9.27    9.28</time>
   <time name="total">    9.45    9.46</time>
   <energy>
    <i name="e_fr_energy">   -179.19357789 </i>
    <i name="e_wo_entrp">   -179.19802360 </i>
    <i name="e_0_energy">   -179.19505979 </i>
   </energy>
  </scstep>
  <scstep>
   <time name="dav">    9.35    9.35</time>
   <time name="total">    9.54    9.54</time>
   <energy>
    <i name="e_fr_energy">   -177.98249844 </i>
    <i name="e_wo_entrp">   -177.97423603 </i>
    <i name="e_0_energy">   -177.97974430 </i>
   </energy>
  </scstep>
  <scstep>
   <time name="dav">    9.37    9.37</time>
   <time name="total">    9.55    9.55</time>
   <energy>
    <i name="e_fr_energy">   -177.46343937 </i>
    <i name="e_wo_entrp">   -177.45884858 </i>
    <i name="e_0_energy">   -177.46190910 </i>
   </energy>
  </scstep>
  <scstep>
   <time name="dav">    9.46    9.47</time>
   <time name="total">    9.65    9.66</time>
   <energy>
    <i name="e_fr_energy">   -177.36007677 </i>
    <i name="e_wo_entrp">   -177.35563998 </i>
    <i name="e_0_energy">   -177.35859784 </i>
   </energy>
  </scstep>
  <scstep>
   <time name="dav">    9.38    9.38</time>
   <time name="total">    9.56    9.56</time>
   <energy>
    <i name="e_fr_energy">   -177.50379362 </i>
    <i name="e_wo_entrp">   -177.49503605 </i>
    <i name="e_0_energy">   -177.50087443 </i>
   </energy>
  </scstep>
  <scstep>
   <time name="dav">    9.33    9.33</time>
   <time name="total">    9.52    9.52</time>
   <energy>
    <i name="e_fr_energy">   -177.34283145 </i>
    <i name="e_wo_entrp">   -177.33003501 </i>
    <i name="e_0_energy">   -177.33856597 </i>
   </energy>
  </scstep>
  <scstep>
   <time name="dav">    9.34    9.34</time>
   <time name="total">    9.52    9.52</time>
   <energy>
    <i name="e_fr_energy">   -177.13196043 </i>
    <i name="e_wo_entrp">   -177.12226969 </i>
    <i name="e_0_energy">   -177.12873019 </i>
   </energy>
  </scstep>
  <scstep>
   <time name="dav">    9.31    9.31</time>
   <time name="total">    9.49    9.49</time>
   <energy>
    <i name="e_fr_energy">   -177.08025589 </i>
    <i name="e_wo_entrp">   -177.06589524 </i>
    <i name="e_0_energy">   -177.07546901 </i>
   </energy>
  </scstep>
  <scstep>
   <time name="dav">    9.37    9.38</time>
   <time name="total">    9.56    9.56</time>
   <energy>
    <i name="e_fr_energy">   -177.03891758 </i>
    <i name="e_wo_entrp">   -177.02662302 </i>
    <i name="e_0_energy">   -177.03481939 </i>
   </energy>
  </scstep>
  <scstep>
   <time name="dav">    9.43    9.43</time>
   <time name="total">    9.61    9.61</time>
   <energy>
    <i name="e_fr_energy">   -177.04204927 </i>
    <i name="e_wo_entrp">   -177.02916521 </i>
    <i name="e_0_energy">   -177.03775458 </i>
   </energy>
  </scstep>
  <scstep>
   <time name="dav">    9.34    9.34</time>
   <time name="total">    9.52    9.52</time>
   <energy>
    <i name="e_fr_energy">   -177.03779438 </i>
    <i name="e_wo_entrp">   -177.02562309 </i>
    <i name="e_0_energy">   -177.03373728 </i>
   </energy>
  </scstep>
  <scstep>
   <time name="dav">    9.30    9.30</time>
   <time name="total">    9.48    9.48</time>
   <energy>
    <i name="e_fr_energy">   -177.03485088 </i>
    <i name="e_wo_entrp">   -177.02173368 </i>
    <i name="e_0_energy">   -177.03047848 </i>
   </energy>
  </scstep>
  <scstep>
   <time name="dav">    9.29    9.29</time>
   <time name="total">    9.47    9.47</time>
   <energy>
    <i name="e_fr_energy">   -177.03459068 </i>
    <i name="e_wo_entrp">   -177.02125625 </i>
    <i name="e_0_energy">   -177.03014587 </i>
   </energy>
  </scstep>
  <scstep>
   <time name="dav">    9.34    9.34</time>
   <time name="total">    9.52    9.52</time>
   <energy>
    <i name="e_fr_energy">   -177.03686368 </i>
    <i name="e_wo_entrp">   -177.02400679 </i>
    <i name="e_0_energy">   -177.03257805 </i>
   </energy>
  </scstep>
  <scstep>
   <time name="dav">    9.30    9.30</time>
   <time name="total">    9.48    9.48</time>
   <energy>
    <i name="e_fr_energy">   -177.03804580 </i>
    <i name="e_wo_entrp">   -177.02509852 </i>
    <i name="e_0_energy">   -177.03373004 </i>
   </energy>
  </scstep>
  <scstep>
   <time name="dav">    9.32    9.32</time>
   <time name="total">    9.50    9.50</time>
   <energy>
    <i name="e_fr_energy">   -177.03908893 </i>
    <i name="e_wo_entrp">   -177.02601988 </i>
    <i name="e_0_energy">   -177.03473258 </i>
   </energy>
  </scstep>
  <scstep>
   <time name="dav">    9.16    9.16</time>
   <time name="total">    9.34    9.34</time>
   <energy>
    <i name="e_fr_energy">   -177.04037858 </i>
    <i name="e_wo_entrp">   -177.02712533 </i>
    <i name="e_0_energy">   -177.03596083 </i>
   </energy>
  </scstep>
  <scstep>
   <time name="dav">    9.34    9.34</time>
   <time name="total">    9.52    9.52</time>
   <energy>
    <i name="e_fr_energy">   -177.04077440 </i>
    <i name="e_wo_entrp">   -177.02764638 </i>
    <i name="e_0_energy">   -177.03639840 </i>
   </energy>
  </scstep>
  <scstep>
   <time name="dav">    8.88    8.88</time>
   <time name="total">    9.06    9.06</time>
   <energy>
    <i name="e_fr_energy">   -177.04170593 </i>
    <i name="e_wo_entrp">   -177.02864368 </i>
    <i name="e_0_energy">   -177.03735185 </i>
   </energy>
  </scstep>
  <scstep>
   <time name="dav">    8.74    8.74</time>
   <time name="total">    8.92    8.92</time>
   <energy>
    <i name="e_fr_energy">   -177.04198862 </i>
    <i name="e_wo_entrp">   -177.02890669 </i>
    <i name="e_0_energy">   -177.03762798 </i>
   </energy>
  </scstep>
  <scstep>
   <time name="dav">    8.23    8.23</time>
   <time name="total">    8.41    8.41</time>
   <energy>
    <i name="e_fr_energy">   -177.04259723 </i>
    <i name="e_wo_entrp">   -177.02955902 </i>
    <i name="e_0_energy">   -177.03825116 </i>
   </energy>
  </scstep>
  <scstep>
   <time name="dav">    8.57    8.57</time>
   <time name="total">    8.75    8.75</time>
   <energy>
    <i name="e_fr_energy">   -177.04275910 </i>
    <i name="e_wo_entrp">   -177.02968351 </i>
    <i name="e_0_energy">   -177.03840057 </i>
   </energy>
  </scstep>
  <scstep>
   <time name="dav">    8.02    8.02</time>
   <time name="total">    8.20    8.20</time>
   <energy>
    <i name="e_fr_energy">   -177.04305551 </i>
    <i name="e_wo_entrp">   -177.02999875 </i>
    <i name="e_0_energy">   -177.03870326 </i>
   </energy>
  </scstep>
  <scstep>
   <time name="dav">    7.82    7.82</time>
   <time name="total">    8.00    8.00</time>
   <energy>
    <i name="e_fr_energy">   -177.04319644 </i>
    <i name="e_wo_entrp">   -177.03011577 </i>
    <i name="e_0_energy">   -177.03883621 </i>
   </energy>
  </scstep>
  <scstep>
   <time name="dav">    6.76    6.76</time>
   <time name="total">    6.94    6.94</time>
   <energy>
    <i name="e_fr_energy">   -177.04325177 </i>
    <i name="e_wo_entrp">   -177.03018717 </i>
    <i name="e_0_energy">   -177.03889690 </i>
   </energy>
  </scstep>
  <scstep>
   <time name="dav">    7.43    7.43</time>
   <time name="total">    7.61    7.61</time>
   <energy>
    <i name="e_fr_energy">   -177.04333415 </i>
    <i name="e_wo_entrp">   -177.03026897 </i>
    <i name="e_0_energy">   -177.03897909 </i>
   </energy>
  </scstep>
  <scstep>
   <time name="dav">    6.82    6.82</time>
   <time name="total">    7.00    7.00</time>
   <energy>
    <i name="e_fr_energy">   -177.04336092 </i>
    <i name="e_wo_entrp">   -177.03029352 </i>
    <i name="e_0_energy">   -177.03900512 </i>
   </energy>
  </scstep>
  <scstep>
   <time name="dav">    6.42    6.43</time>
   <time name="total">    6.61    6.61</time>
   <energy>
    <i name="e_fr_energy">   -177.04338195 </i>
    <i name="e_wo_entrp">   -177.03031439 </i>
    <i name="e_0_energy">   -177.03902610 </i>
   </energy>
  </scstep>
  <scstep>
   <time name="dav">    6.32    6.32</time>
   <time name="total">    6.37    6.37</time>
   <energy>
    <i name="alphaZ">    243.40284528 </i>
    <i name="ewald">  84592.39660786 </i>
    <i name="hartreedc">-110934.76416198 </i>
    <i name="XCdc">    635.25450157 </i>
    <i name="pawpsdc">  28725.24750337 </i>
    <i name="pawaedc"> -28525.96433635 </i>
    <i name="eentropy">     -0.01306789 </i>
    <i name="bandstr">  -5476.23280771 </i>
    <i name="atom">  30563.62952402 </i>
    <i name="e_fr_energy">   -177.04339183 </i>
    <i name="e_wo_entrp">   -177.03032394 </i>
    <i name="e_0_energy">   -177.03903587 </i>
   </energy>
  </scstep>
  <structure>
   <crystal>
    <varray name="basis" >
     <v>       5.85845550       0.00000000       0.00000000 </v>
     <v>       0.00000000      10.15952995       0.00000000 </v>
     <v>       0.00000000      -3.40301641      27.82536060 </v>
    </varray>
    <i name="volume">   1656.14192705 </i>
    <varray name="rec_basis" >
     <v>       0.17069345      -0.00000000      -0.00000000 </v>
     <v>       0.00000000       0.09842975       0.01203787 </v>
     <v>       0.00000000       0.00000000       0.03593844 </v>
    </varray>
   </crystal>
   <varray name="positions" >
    <v>       0.00000000       0.99066316       0.33119916 </v>
    <v>       0.00000000       0.49066316       0.50321211 </v>
    <v>       0.00000000       0.75933684       0.41078141 </v>
    <v>       0.00000000       0.25933684       0.58279436 </v>
    <v>       0.00000000       0.25224643       0.41322069 </v>
    <v>       0.00000000       0.75224643       0.58523364 </v>
    <v>       0.00000000       0.99775357       0.50077283 </v>
    <v>       0.00000000       0.49775357       0.32875988 </v>
    <v>       0.50000000       0.00224643       0.67124012 </v>
    <v>       0.50000000       0.50224643       0.49922717 </v>
    <v>       0.50000000       0.74775357       0.41476636 </v>
    <v>       0.50000000       0.24775357       0.58677931 </v>
    <v>       0.50000000       0.22680859       0.42197197 </v>
    <v>       0.50000000       0.72680859       0.59398492 </v>
    <v>       0.50000000       0.02319141       0.49202155 </v>
    <v>       0.50000000       0.52319141       0.66403451 </v>
    <v>       0.24268531       0.99634265       0.41273530 </v>
    <v>       0.24268531       0.49634265       0.58474825 </v>
    <v>       0.21391683       0.73195841       0.49379323 </v>
    <v>       0.21391683       0.23195841       0.66580618 </v>
    <v>       0.24268531       0.25365735       0.50125822 </v>
    <v>       0.24268531       0.75365735       0.32924527 </v>
    <v>       0.21391683       0.01804159       0.59221325 </v>
    <v>       0.21391683       0.51804159       0.42020030 </v>
    <v>       0.75731469       0.99634265       0.41273530 </v>
    <v>       0.75731469       0.49634265       0.58474825 </v>
    <v>       0.78608317       0.73195841       0.49379323 </v>
    <v>       0.78608317       0.23195841       0.66580618 </v>
    <v>       0.75731469       0.25365735       0.50125822 </v>
    <v>       0.75731469       0.75365735       0.32924527 </v>
    <v>       0.78608317       0.01804159       0.59221325 </v>
    <v>       0.78608317       0.51804159       0.42020030 </v>
    <v>       0.50000000       0.87500000       0.54300324 </v>
    <v>       0.50000000       0.37500000       0.37099029 </v>
   </varray>
  </structure>
  <varray name="forces" >
   <v>       0.00000000      -0.04049616       0.49778922 </v>
   <v>       0.00000000      -0.16642423       0.47092506 </v>
   <v>       0.00000000       0.15030235      -0.21003829 </v>
   <v>       0.00000000       0.31484866      -0.15197941 </v>
   <v>      -0.00000000      -0.02393121      -0.11622635 </v>
   <v>      -0.00000000      -0.21640252      -0.13001303 </v>
   <v>       0.00000000       0.00043047       0.06948463 </v>
   <v>       0.00000000       0.95527311       1.86624553 </v>
   <v>      -0.00000000       0.17970134      -0.94049434 </v>
   <v>      -0.00000000      -0.23423416      -0.27692586 </v>
   <v>      -0.00000000      -0.15154162      -0.07115956 </v>
   <v>       0.00000000       0.39384826       0.06458170 </v>
   <v>      -0.00000000      -2.58217947       2.17414531 </v>
   <v>      -0.00000000      -3.39315511       3.11698610 </v>
   <v>       0.00000000       3.01732313      -2.04571396 </v>
   <v>      -0.00000000      -0.48935948      -1.28338459 </v>
   <v>      -0.05849914       0.04159698      -0.52952640 </v>
   <v>       0.13558830      -0.09675537       0.39625110 </v>
   <v>       0.94809208      -0.16115650       0.25988852 </v>
   <v>       1.23691870      -0.39661178       0.12469092 </v>
   <v>      -0.11138115       0.11348409       0.02058585 </v>
   <v>       0.02157109       0.12822433      -0.19583049 </v>
   <v>       0.79332108      -0.09945560       0.50878736 </v>
   <v>       0.67293650       0.14440351      -0.26223321 </v>
   <v>       0.05849914       0.04159698      -0.52952640 </v>
   <v>      -0.13558830      -0.09675537       0.39625110 </v>
   <v>      -0.94809208      -0.16115650       0.25988852 </v>
   <v>      -1.23691870      -0.39661178       0.12469092 </v>
   <v>       0.11138115       0.11348409       0.02058585 </v>
   <v>      -0.02157109       0.12822433      -0.19583049 </v>
   <v>      -0.79332108      -0.09945560       0.50878736 </v>
   <v>      -0.67293650       0.14440351      -0.26223321 </v>
   <v>       0.00000000      -0.11123165       0.10157946 </v>
   <v>       0.00000000       3.04976895      -3.78102892 </v>
  </varray>
  <varray name="stress" >
   <v>     -17.34511342      -0.00000000      -0.00000000 </v>
   <v>      -0.00000000     -16.39750874     -25.31849654 </v>
   <v>      -0.00000000     -25.31849640       7.28423657 </v>
  </varray>
  <energy>
   <i name="e_fr_energy">   -177.04339183 </i>
   <i name="e_wo_entrp">   -177.03032394 </i>
   <i name="e_0_energy">   -177.03903587 </i>
  </energy>
  <time name="totalsc">  368.57  368.60</time>
  <eigenvalues>
   <array>
    <dimension dim="1">band</dimension>
    <dimension dim="2">kpoint</dimension>
    <dimension dim="3">spin</dimension>
    <field>eigene</field>
    <field>occ</field>
    <set>
     <set comment="spin 1">
      <set comment="kpoint 1">
       <r>  -56.9769    1.0000 </r>
       <r>  -56.9353    1.0000 </r>
       <r>  -56.9170    1.0000 </r>
       <r>  -56.8257    1.0000 </r>
       <r>  -56.6111    1.0000 </r>
       <r>  -56.5813    1.0000 </r>
       <r>  -56.4308    1.0000 </r>
       <r>  -56.3804    1.0000 </r>
       <r>  -56.3688    1.0000 </r>
       <r>  -56.3298    1.0000 </r>
       <r>  -56.1688    1.0000 </r>
       <r>  -56.1368    1.0000 </r>
       <r>  -56.0804    1.0000 </r>
       <r>  -56.0719    1.0000 </r>
       <r>  -56.0251    1.0000 </r>
       <r>  -55.9899    1.0000 </r>
       <r>  -33.3546    1.0000 </r>
       <r>  -33.3352    1.0000 </r>
       <r>  -33.2651    1.0000 </r>
       <r>  -33.2444    1.0000 </r>
       <r>  -33.2222    1.0000 </r>
       <r>  -33.1660    1.0000 </r>
       <r>  -33.1593    1.0000 </r>
       <r>  -33.1470    1.0000 </r>
       <r>  -33.1236    1.0000 </r>
       <r>  -33.0943    1.0000 </r>
       <r>  -33.0905    1.0000 </r>
       <r>  -32.9871    1.0000 </r>
       <r>  -32.9790    1.0000 </r>
       <r>  -32.9481    1.0000 </r>
       <r>  -32.8659    1.0000 </r>
       <r>  -32.8051    1.0000 </r>
       <r>  -32.8017    1.0000 </r>
       <r>  -32.7837    1.0000 </r>
       <r>  -32.7616    1.0000 </r>
       <r>  -32.7574    1.0000 </r>
       <r>  -32.7283    1.0000 </r>
       <r>  -32.7026    1.0000 </r>
       <r>  -32.7018    1.0000 </r>
       <r>  -32.6800    1.0000 </r>
       <r>  -32.6684    1.0000 </r>
       <r>  -32.6536    1.0000 </r>
       <r>  -32.6398    1.0000 </r>
       <r>  -32.5782    1.0000 </r>
       <r>  -32.5741    1.0000 </r>
       <r>  -32.5693    1.0000 </r>
       <r>  -32.5212    1.0000 </r>
       <r>  -32.5132    1.0000 </r>
       <r>  -32.5021    1.0000 </r>
       <r>  -32.4472    1.0000 </r>
       <r>  -32.4191    1.0000 </r>
       <r>  -32.4128    1.0000 </r>
       <r>  -32.4041    1.0000 </r>
       <r>  -32.3822    1.0000 </r>
       <r>  -32.3809    1.0000 </r>
       <r>  -32.3534    1.0000 </r>
       <r>  -32.3244    1.0000 </r>
       <r>  -32.3116    1.0000 </r>
       <r>  -32.2907    1.0000 </r>
       <r>  -32.2656    1.0000 </r>
       <r>  -32.2616    1.0000 </r>
       <r>  -32.2015    1.0000 </r>
       <r>  -32.1796    1.0000 </r>
       <r>  -32.1410    1.0000 </r>
       <r>  -14.5702    1.0000 </r>
       <r>  -14.4726    1.0000 </r>
       <r>  -14.4554    1.0000 </r>
       <r>  -14.4451    1.0000 </r>
       <r>  -14.3585    1.0000 </r>
       <r>  -14.1940    1.0000 </r>
       <r>  -14.1486    1.0000 </r>
       <r>  -14.1089    1.0000 </r>
       <r>  -14.1012    1.0000 </r>
       <r>  -14.0498    1.0000 </r>
       <r>   -8.5261    1.0000 </r>
       <r>   -7.6119    1.0000 </r>
       <r>   -6.9954    1.0000 </r>
       <r>   -6.5123    1.0000 </r>
       <r>   -6.4276    1.0000 </r>
       <r>   -6.0128    1.0000 </r>
       <r>   -5.4478    1.0000 </r>
       <r>   -4.9958    1.0000 </r>
       <r>   -4.6548    1.0000 </r>
       <r>   -4.3398    1.0000 </r>
       <r>   -4.0167    1.0000 </r>
       <r>   -3.7663    1.0000 </r>
       <r>   -3.7651    1.0000 </r>
       <r>   -3.7142    1.0000 </r>
       <r>   -3.3705    1.0000 </r>
       <r>   -3.3128    1.0000 </r>
       <r>   -3.2080    1.0000 </r>
       <r>   -2.9186    1.0000 </r>
       <r>   -2.8399    1.0000 </r>
       <r>   -2.6775    1.0000 </r>
       <r>   -2.4994    1.0000 </r>
       <r>   -2.4140    1.0000 </r>
       <r>   -2.4057    1.0000 </r>
       <r>   -2.1873    1.0000 </r>
       <r>   -2.0090    1.0000 </r>
       <r>   -1.9548    1.0000 </r>
       <r>   -1.8225    1.0000 </r>
       <r>   -1.8010    1.0000 </r>
       <r>   -1.7579    1.0000 </r>
       <r>   -1.5959    1.0000 </r>
       <r>   -1.4657    1.0000 </r>
       <r>   -1.3142    1.0000 </r>
       <r>   -1.2735    1.0000 </r>
       <r>   -1.1410    1.0000 </r>
       <r>   -1.0705    1.0000 </r>
       <r>   -0.9907    1.0000 </r>
       <r>   -0.9186    1.0000 </r>
       <r>   -0.8216    1.0000 </r>
       <r>   -0.6827    1.0000 </r>
       <r>   -0.6670    1.0000 </r>
       <r>   -0.5709    1.0000 </r>
       <r>   -0.5275    1.0000 </r>
       <r>   -0.4135    1.0000 </r>
       <r>   -0.3024    1.0000 </r>
       <r>   -0.2814    1.0000 </r>
       <r>   -0.1727    1.0000 </r>
       <r>   -0.1356    1.0000 </r>
       <r>   -0.0733    1.0000 </r>
       <r>   -0.0315    1.0000 </r>
       <r>    0.0303    1.0000 </r>
       <r>    0.0568    1.0000 </r>
       <r>    0.1424    1.0000 </r>
       <r>    0.1965    1.0000 </r>
       <r>    0.2252    1.0000 </r>
       <r>    0.2868    1.0002 </r>
       <r>    0.3362    1.0021 </r>
       <r>    0.3648    1.0063 </r>
       <r>    0.4980    0.9723 </r>
       <r>    0.5349    0.7901 </r>
       <r>    0.5670    0.5404 </r>
       <r>    0.5682    0.5301 </r>
       <r>    0.5884    0.3618 </r>
       <r>    0.6762   -0.0291 </r>
       <r>    0.7236   -0.0268 </r>
       <r>    0.7950   -0.0035 </r>
       <r>    0.8056   -0.0023 </r>
       <r>    0.8641   -0.0001 </r>
       <r>    0.9012   -0.0000 </r>
       <r>    0.9295   -0.0000 </r>
       <r>    1.0182   -0.0000 </r>
       <r>    1.0677   -0.0000 </r>
       <r>    1.0770   -0.0000 </r>
       <r>    1.1421   -0.0000 </r>
       <r>    1.1898   -0.0000 </r>
       <r>    1.2046   -0.0000 </r>
       <r>    1.2333   -0.0000 </r>
       <r>    1.2622   -0.0000 </r>
       <r>    1.2845   -0.0000 </r>
       <r>    1.3475   -0.0000 </r>
       <r>    1.4008   -0.0000 </r>
       <r>    1.4929   -0.0000 </r>
       <r>    1.5107   -0.0000 </r>
       <r>    1.5289   -0.0000 </r>
       <r>    1.6081   -0.0000 </r>
       <r>    1.6413   -0.0000 </r>
       <r>    1.6860   -0.0000 </r>
       <r>    1.7860   -0.0000 </r>
       <r>    1.8389   -0.0000 </r>
       <r>    1.8682   -0.0000 </r>
       <r>    1.9901   -0.0000 </r>
       <r>    2.0478   -0.0000 </r>
       <r>    2.1172   -0.0000 </r>
       <r>    2.1220   -0.0000 </r>
       <r>    2.1629   -0.0000 </r>
       <r>    2.1852   -0.0000 </r>
       <r>    2.2075   -0.0000 </r>
       <r>    2.2484   -0.0000 </r>
       <r>    2.2727   -0.0000 </r>
       <r>    2.3009   -0.0000 </r>
       <r>    2.3144   -0.0000 </r>
       <r>    2.3456   -0.0000 </r>
       <r>    2.3794   -0.0000 </r>
       <r>    2.4008   -0.0000 </r>
       <r>    2.4082   -0.0000 </r>
       <r>    2.4988   -0.0000 </r>
       <r>    2.5520   -0.0000 </r>
       <r>    2.6268    0.0000 </r>
       <r>    2.6534    0.0000 </r>
       <r>    2.7839    0.0000 </r>
       <r>    2.7861    0.0000 </r>
       <r>    2.8161    0.0000 </r>
       <r>    2.9353    0.0000 </r>
       <r>    2.9389    0.0000 </r>
       <r>    3.0286    0.0000 </r>
       <r>    3.1384    0.0000 </r>
       <r>    3.2662    0.0000 </r>
       <r>    3.2969    0.0000 </r>
       <r>    3.3836    0.0000 </r>
      </set>
      <set comment="kpoint 2">
       <r>  -56.9769    1.0000 </r>
       <r>  -56.9353    1.0000 </r>
       <r>  -56.9170    1.0000 </r>
       <r>  -56.8257    1.0000 </r>
       <r>  -56.6109    1.0000 </r>
       <r>  -56.5811    1.0000 </r>
       <r>  -56.4306    1.0000 </r>
       <r>  -56.3802    1.0000 </r>
       <r>  -56.3686    1.0000 </r>
       <r>  -56.3295    1.0000 </r>
       <r>  -56.1690    1.0000 </r>
       <r>  -56.1370    1.0000 </r>
       <r>  -56.0806    1.0000 </r>
       <r>  -56.0722    1.0000 </r>
       <r>  -56.0254    1.0000 </r>
       <r>  -55.9901    1.0000 </r>
       <r>  -33.3546    1.0000 </r>
       <r>  -33.3352    1.0000 </r>
       <r>  -33.2651    1.0000 </r>
       <r>  -33.2444    1.0000 </r>
       <r>  -33.2222    1.0000 </r>
       <r>  -33.1660    1.0000 </r>
       <r>  -33.1594    1.0000 </r>
       <r>  -33.1470    1.0000 </r>
       <r>  -33.1236    1.0000 </r>
       <r>  -33.0943    1.0000 </r>
       <r>  -33.0905    1.0000 </r>
       <r>  -32.9871    1.0000 </r>
       <r>  -32.9790    1.0000 </r>
       <r>  -32.9482    1.0000 </r>
       <r>  -32.8659    1.0000 </r>
       <r>  -32.8048    1.0000 </r>
       <r>  -32.7899    1.0000 </r>
       <r>  -32.7722    1.0000 </r>
       <r>  -32.7613    1.0000 </r>
       <r>  -32.7577    1.0000 </r>
       <r>  -32.7281    1.0000 </r>
       <r>  -32.7022    1.0000 </r>
       <r>  -32.6889    1.0000 </r>
       <r>  -32.6799    1.0000 </r>
       <r>  -32.6682    1.0000 </r>
       <r>  -32.6534    1.0000 </r>
       <r>  -32.6397    1.0000 </r>
       <r>  -32.5609    1.0000 </r>
       <r>  -32.5561    1.0000 </r>
       <r>  -32.5532    1.0000 </r>
       <r>  -32.5213    1.0000 </r>
       <r>  -32.5133    1.0000 </r>
       <r>  -32.5022    1.0000 </r>
       <r>  -32.4472    1.0000 </r>
       <r>  -32.4192    1.0000 </r>
       <r>  -32.4133    1.0000 </r>
       <r>  -32.4044    1.0000 </r>
       <r>  -32.3822    1.0000 </r>
       <r>  -32.3812    1.0000 </r>
       <r>  -32.3657    1.0000 </r>
       <r>  -32.3246    1.0000 </r>
       <r>  -32.3238    1.0000 </r>
       <r>  -32.2910    1.0000 </r>
       <r>  -32.2789    1.0000 </r>
       <r>  -32.2618    1.0000 </r>
       <r>  -32.2208    1.0000 </r>
       <r>  -32.1975    1.0000 </r>
       <r>  -32.1576    1.0000 </r>
       <r>  -14.5701    1.0000 </r>
       <r>  -14.4726    1.0000 </r>
       <r>  -14.4555    1.0000 </r>
       <r>  -14.4452    1.0000 </r>
       <r>  -14.3583    1.0000 </r>
       <r>  -14.1940    1.0000 </r>
       <r>  -14.1486    1.0000 </r>
       <r>  -14.1090    1.0000 </r>
       <r>  -14.1013    1.0000 </r>
       <r>  -14.0496    1.0000 </r>
       <r>   -8.4199    1.0000 </r>
       <r>   -7.5144    1.0000 </r>
       <r>   -6.8958    1.0000 </r>
       <r>   -6.4038    1.0000 </r>
       <r>   -6.3533    1.0000 </r>
       <r>   -6.0236    1.0000 </r>
       <r>   -5.5315    1.0000 </r>
       <r>   -4.9912    1.0000 </r>
       <r>   -4.9402    1.0000 </r>
       <r>   -4.6878    1.0000 </r>
       <r>   -4.3819    1.0000 </r>
       <r>   -4.1639    1.0000 </r>
       <r>   -3.9634    1.0000 </r>
       <r>   -3.8901    1.0000 </r>
       <r>   -3.6081    1.0000 </r>
       <r>   -3.4164    1.0000 </r>
       <r>   -3.0833    1.0000 </r>
       <r>   -2.9100    1.0000 </r>
       <r>   -2.7582    1.0000 </r>
       <r>   -2.6003    1.0000 </r>
       <r>   -2.3863    1.0000 </r>
       <r>   -2.1309    1.0000 </r>
       <r>   -2.0381    1.0000 </r>
       <r>   -1.9525    1.0000 </r>
       <r>   -1.8775    1.0000 </r>
       <r>   -1.8667    1.0000 </r>
       <r>   -1.7163    1.0000 </r>
       <r>   -1.6497    1.0000 </r>
       <r>   -1.5575    1.0000 </r>
       <r>   -1.5072    1.0000 </r>
       <r>   -1.4201    1.0000 </r>
       <r>   -1.2343    1.0000 </r>
       <r>   -1.1974    1.0000 </r>
       <r>   -1.0939    1.0000 </r>
       <r>   -1.0351    1.0000 </r>
       <r>   -1.0063    1.0000 </r>
       <r>   -0.8824    1.0000 </r>
       <r>   -0.7999    1.0000 </r>
       <r>   -0.7619    1.0000 </r>
       <r>   -0.6369    1.0000 </r>
       <r>   -0.5648    1.0000 </r>
       <r>   -0.4775    1.0000 </r>
       <r>   -0.4149    1.0000 </r>
       <r>   -0.3028    1.0000 </r>
       <r>   -0.1692    1.0000 </r>
       <r>   -0.1543    1.0000 </r>
       <r>   -0.0929    1.0000 </r>
       <r>   -0.0432    1.0000 </r>
       <r>    0.0395    1.0000 </r>
       <r>    0.1140    1.0000 </r>
       <r>    0.1760    1.0000 </r>
       <r>    0.2196    1.0000 </r>
       <r>    0.2466    1.0000 </r>
       <r>    0.2853    1.0002 </r>
       <r>    0.3017    1.0004 </r>
       <r>    0.3608    1.0055 </r>
       <r>    0.3811    1.0107 </r>
       <r>    0.4349    1.0328 </r>
       <r>    0.5288    0.8291 </r>
       <r>    0.5512    0.6703 </r>
       <r>    0.5714    0.5037 </r>
       <r>    0.6240    0.1181 </r>
       <r>    0.7181   -0.0293 </r>
       <r>    0.7513   -0.0146 </r>
       <r>    0.7622   -0.0108 </r>
       <r>    0.8213   -0.0012 </r>
       <r>    0.8965   -0.0000 </r>
       <r>    0.9427   -0.0000 </r>
       <r>    0.9864   -0.0000 </r>
       <r>    1.0232   -0.0000 </r>
       <r>    1.0621   -0.0000 </r>
       <r>    1.0951   -0.0000 </r>
       <r>    1.1236   -0.0000 </r>
       <r>    1.1646   -0.0000 </r>
       <r>    1.1853   -0.0000 </r>
       <r>    1.2510   -0.0000 </r>
       <r>    1.2685   -0.0000 </r>
       <r>    1.3079   -0.0000 </r>
       <r>    1.3748   -0.0000 </r>
       <r>    1.3962   -0.0000 </r>
       <r>    1.4101   -0.0000 </r>
       <r>    1.4660   -0.0000 </r>
       <r>    1.5154   -0.0000 </r>
       <r>    1.5433   -0.0000 </r>
       <r>    1.6417   -0.0000 </r>
       <r>    1.6783   -0.0000 </r>
       <r>    1.6979   -0.0000 </r>
       <r>    1.7460   -0.0000 </r>
       <r>    1.8154   -0.0000 </r>
       <r>    1.8584   -0.0000 </r>
       <r>    1.8917   -0.0000 </r>
       <r>    1.9228   -0.0000 </r>
       <r>    1.9964   -0.0000 </r>
       <r>    2.0126   -0.0000 </r>
       <r>    2.0812   -0.0000 </r>
       <r>    2.1131   -0.0000 </r>
       <r>    2.1371   -0.0000 </r>
       <r>    2.1578   -0.0000 </r>
       <r>    2.2161   -0.0000 </r>
       <r>    2.2435   -0.0000 </r>
       <r>    2.3013   -0.0000 </r>
       <r>    2.3515   -0.0000 </r>
       <r>    2.3942   -0.0000 </r>
       <r>    2.4577   -0.0000 </r>
       <r>    2.5210   -0.0000 </r>
       <r>    2.5750    0.0000 </r>
       <r>    2.6322    0.0000 </r>
       <r>    2.6388    0.0000 </r>
       <r>    2.7004    0.0000 </r>
       <r>    2.7230    0.0000 </r>
       <r>    2.8768    0.0000 </r>
       <r>    2.9147    0.0000 </r>
       <r>    3.0038    0.0000 </r>
       <r>    3.1010    0.0000 </r>
       <r>    3.1443    0.0000 </r>
       <r>    3.2920    0.0000 </r>
       <r>    3.3617    0.0000 </r>
       <r>    3.4047    0.0000 </r>
      </set>
      <set comment="kpoint 3">
       <r>  -56.9769    1.0000 </r>
       <r>  -56.9353    1.0000 </r>
       <r>  -56.9170    1.0000 </r>
       <r>  -56.8257    1.0000 </r>
       <r>  -56.6106    1.0000 </r>
       <r>  -56.5809    1.0000 </r>
       <r>  -56.4302    1.0000 </r>
       <r>  -56.3798    1.0000 </r>
       <r>  -56.3682    1.0000 </r>
       <r>  -56.3288    1.0000 </r>
       <r>  -56.1693    1.0000 </r>
       <r>  -56.1373    1.0000 </r>
       <r>  -56.0810    1.0000 </r>
       <r>  -56.0729    1.0000 </r>
       <r>  -56.0259    1.0000 </r>
       <r>  -55.9906    1.0000 </r>
       <r>  -33.3546    1.0000 </r>
       <r>  -33.3352    1.0000 </r>
       <r>  -33.2651    1.0000 </r>
       <r>  -33.2444    1.0000 </r>
       <r>  -33.2221    1.0000 </r>
       <r>  -33.1660    1.0000 </r>
       <r>  -33.1594    1.0000 </r>
       <r>  -33.1470    1.0000 </r>
       <r>  -33.1236    1.0000 </r>
       <r>  -33.0943    1.0000 </r>
       <r>  -33.0905    1.0000 </r>
       <r>  -32.9871    1.0000 </r>
       <r>  -32.9791    1.0000 </r>
       <r>  -32.9484    1.0000 </r>
       <r>  -32.8656    1.0000 </r>
       <r>  -32.8044    1.0000 </r>
       <r>  -32.7641    1.0000 </r>
       <r>  -32.7609    1.0000 </r>
       <r>  -32.7578    1.0000 </r>
       <r>  -32.7474    1.0000 </r>
       <r>  -32.7278    1.0000 </r>
       <r>  -32.7012    1.0000 </r>
       <r>  -32.6800    1.0000 </r>
       <r>  -32.6677    1.0000 </r>
       <r>  -32.6605    1.0000 </r>
       <r>  -32.6529    1.0000 </r>
       <r>  -32.6392    1.0000 </r>
       <r>  -32.5212    1.0000 </r>
       <r>  -32.5202    1.0000 </r>
       <r>  -32.5180    1.0000 </r>
       <r>  -32.5135    1.0000 </r>
       <r>  -32.5103    1.0000 </r>
       <r>  -32.5023    1.0000 </r>
       <r>  -32.4469    1.0000 </r>
       <r>  -32.4192    1.0000 </r>
       <r>  -32.4144    1.0000 </r>
       <r>  -32.4048    1.0000 </r>
       <r>  -32.3930    1.0000 </r>
       <r>  -32.3818    1.0000 </r>
       <r>  -32.3818    1.0000 </r>
       <r>  -32.3504    1.0000 </r>
       <r>  -32.3248    1.0000 </r>
       <r>  -32.3087    1.0000 </r>
       <r>  -32.2914    1.0000 </r>
       <r>  -32.2682    1.0000 </r>
       <r>  -32.2623    1.0000 </r>
       <r>  -32.2395    1.0000 </r>
       <r>  -32.1957    1.0000 </r>
       <r>  -14.5699    1.0000 </r>
       <r>  -14.4727    1.0000 </r>
       <r>  -14.4559    1.0000 </r>
       <r>  -14.4454    1.0000 </r>
       <r>  -14.3579    1.0000 </r>
       <r>  -14.1939    1.0000 </r>
       <r>  -14.1486    1.0000 </r>
       <r>  -14.1092    1.0000 </r>
       <r>  -14.1016    1.0000 </r>
       <r>  -14.0493    1.0000 </r>
       <r>   -8.1267    1.0000 </r>
       <r>   -7.2643    1.0000 </r>
       <r>   -6.6930    1.0000 </r>
       <r>   -6.4982    1.0000 </r>
       <r>   -6.0971    1.0000 </r>
       <r>   -6.0314    1.0000 </r>
       <r>   -5.4907    1.0000 </r>
       <r>   -5.4343    1.0000 </r>
       <r>   -5.1793    1.0000 </r>
       <r>   -4.9723    1.0000 </r>
       <r>   -4.7298    1.0000 </r>
       <r>   -4.6475    1.0000 </r>
       <r>   -4.5067    1.0000 </r>
       <r>   -4.2298    1.0000 </r>
       <r>   -3.8773    1.0000 </r>
       <r>   -3.5395    1.0000 </r>
       <r>   -3.2683    1.0000 </r>
       <r>   -3.2214    1.0000 </r>
       <r>   -2.6633    1.0000 </r>
       <r>   -2.2884    1.0000 </r>
       <r>   -2.1973    1.0000 </r>
       <r>   -2.0186    1.0000 </r>
       <r>   -1.9084    1.0000 </r>
       <r>   -1.7124    1.0000 </r>
       <r>   -1.6862    1.0000 </r>
       <r>   -1.5761    1.0000 </r>
       <r>   -1.4821    1.0000 </r>
       <r>   -1.4016    1.0000 </r>
       <r>   -1.3359    1.0000 </r>
       <r>   -1.2119    1.0000 </r>
       <r>   -1.1668    1.0000 </r>
       <r>   -1.1041    1.0000 </r>
       <r>   -0.9991    1.0000 </r>
       <r>   -0.9698    1.0000 </r>
       <r>   -0.8289    1.0000 </r>
       <r>   -0.8083    1.0000 </r>
       <r>   -0.7576    1.0000 </r>
       <r>   -0.6714    1.0000 </r>
       <r>   -0.5988    1.0000 </r>
       <r>   -0.4835    1.0000 </r>
       <r>   -0.4069    1.0000 </r>
       <r>   -0.3337    1.0000 </r>
       <r>   -0.2503    1.0000 </r>
       <r>   -0.2085    1.0000 </r>
       <r>   -0.1343    1.0000 </r>
       <r>   -0.1000    1.0000 </r>
       <r>    0.0084    1.0000 </r>
       <r>    0.0366    1.0000 </r>
       <r>    0.1329    1.0000 </r>
       <r>    0.1980    1.0000 </r>
       <r>    0.2446    1.0000 </r>
       <r>    0.3142    1.0008 </r>
       <r>    0.3521    1.0040 </r>
       <r>    0.3727    1.0082 </r>
       <r>    0.3963    1.0162 </r>
       <r>    0.4283    1.0304 </r>
       <r>    0.4615    1.0328 </r>
       <r>    0.5099    0.9286 </r>
       <r>    0.5554    0.6368 </r>
       <r>    0.5745    0.4769 </r>
       <r>    0.5932    0.3235 </r>
       <r>    0.6737   -0.0270 </r>
       <r>    0.6838   -0.0335 </r>
       <r>    0.7659   -0.0096 </r>
       <r>    0.8145   -0.0016 </r>
       <r>    0.8559   -0.0002 </r>
       <r>    0.8968   -0.0000 </r>
       <r>    0.9523   -0.0000 </r>
       <r>    0.9711   -0.0000 </r>
       <r>    0.9932   -0.0000 </r>
       <r>    1.0328   -0.0000 </r>
       <r>    1.1016   -0.0000 </r>
       <r>    1.1176   -0.0000 </r>
       <r>    1.1432   -0.0000 </r>
       <r>    1.1560   -0.0000 </r>
       <r>    1.1747   -0.0000 </r>
       <r>    1.1854   -0.0000 </r>
       <r>    1.2336   -0.0000 </r>
       <r>    1.2911   -0.0000 </r>
       <r>    1.3256   -0.0000 </r>
       <r>    1.3499   -0.0000 </r>
       <r>    1.3769   -0.0000 </r>
       <r>    1.3990   -0.0000 </r>
       <r>    1.4718   -0.0000 </r>
       <r>    1.4948   -0.0000 </r>
       <r>    1.5488   -0.0000 </r>
       <r>    1.5627   -0.0000 </r>
       <r>    1.5850   -0.0000 </r>
       <r>    1.6222   -0.0000 </r>
       <r>    1.6664   -0.0000 </r>
       <r>    1.6826   -0.0000 </r>
       <r>    1.7443   -0.0000 </r>
       <r>    1.7956   -0.0000 </r>
       <r>    1.8130   -0.0000 </r>
       <r>    1.8509   -0.0000 </r>
       <r>    1.9130   -0.0000 </r>
       <r>    1.9634   -0.0000 </r>
       <r>    2.0792   -0.0000 </r>
       <r>    2.0870   -0.0000 </r>
       <r>    2.1409   -0.0000 </r>
       <r>    2.1617   -0.0000 </r>
       <r>    2.2376   -0.0000 </r>
       <r>    2.2529   -0.0000 </r>
       <r>    2.2991   -0.0000 </r>
       <r>    2.3902   -0.0000 </r>
       <r>    2.4393   -0.0000 </r>
       <r>    2.4995   -0.0000 </r>
       <r>    2.6278    0.0000 </r>
       <r>    2.6781    0.0000 </r>
       <r>    2.8420    0.0000 </r>
       <r>    2.9335    0.0000 </r>
       <r>    2.9970    0.0000 </r>
       <r>    3.1005    0.0000 </r>
       <r>    3.1924    0.0000 </r>
       <r>    3.2197    0.0000 </r>
       <r>    3.3013    0.0000 </r>
       <r>    3.3911    0.0000 </r>
       <r>    3.5045    0.0000 </r>
      </set>
      <set comment="kpoint 4">
       <r>  -56.9769    1.0000 </r>
       <r>  -56.9353    1.0000 </r>
       <r>  -56.9170    1.0000 </r>
       <r>  -56.8257    1.0000 </r>
       <r>  -56.6105    1.0000 </r>
       <r>  -56.5807    1.0000 </r>
       <r>  -56.4300    1.0000 </r>
       <r>  -56.3795    1.0000 </r>
       <r>  -56.3680    1.0000 </r>
       <r>  -56.3285    1.0000 </r>
       <r>  -56.1695    1.0000 </r>
       <r>  -56.1375    1.0000 </r>
       <r>  -56.0813    1.0000 </r>
       <r>  -56.0732    1.0000 </r>
       <r>  -56.0261    1.0000 </r>
       <r>  -55.9908    1.0000 </r>
       <r>  -33.3546    1.0000 </r>
       <r>  -33.3352    1.0000 </r>
       <r>  -33.2651    1.0000 </r>
       <r>  -33.2444    1.0000 </r>
       <r>  -33.2221    1.0000 </r>
       <r>  -33.1660    1.0000 </r>
       <r>  -33.1594    1.0000 </r>
       <r>  -33.1470    1.0000 </r>
       <r>  -33.1236    1.0000 </r>
       <r>  -33.0943    1.0000 </r>
       <r>  -33.0905    1.0000 </r>
       <r>  -32.9871    1.0000 </r>
       <r>  -32.9791    1.0000 </r>
       <r>  -32.9484    1.0000 </r>
       <r>  -32.8655    1.0000 </r>
       <r>  -32.8041    1.0000 </r>
       <r>  -32.7606    1.0000 </r>
       <r>  -32.7578    1.0000 </r>
       <r>  -32.7498    1.0000 </r>
       <r>  -32.7339    1.0000 </r>
       <r>  -32.7277    1.0000 </r>
       <r>  -32.7007    1.0000 </r>
       <r>  -32.6799    1.0000 </r>
       <r>  -32.6674    1.0000 </r>
       <r>  -32.6526    1.0000 </r>
       <r>  -32.6448    1.0000 </r>
       <r>  -32.6389    1.0000 </r>
       <r>  -32.5210    1.0000 </r>
       <r>  -32.5134    1.0000 </r>
       <r>  -32.5022    1.0000 </r>
       <r>  -32.4963    1.0000 </r>
       <r>  -32.4945    1.0000 </r>
       <r>  -32.4798    1.0000 </r>
       <r>  -32.4462    1.0000 </r>
       <r>  -32.4192    1.0000 </r>
       <r>  -32.4150    1.0000 </r>
       <r>  -32.4086    1.0000 </r>
       <r>  -32.4045    1.0000 </r>
       <r>  -32.3819    1.0000 </r>
       <r>  -32.3812    1.0000 </r>
       <r>  -32.3653    1.0000 </r>
       <r>  -32.3261    1.0000 </r>
       <r>  -32.3245    1.0000 </r>
       <r>  -32.3007    1.0000 </r>
       <r>  -32.2916    1.0000 </r>
       <r>  -32.2667    1.0000 </r>
       <r>  -32.2619    1.0000 </r>
       <r>  -32.2185    1.0000 </r>
       <r>  -14.5698    1.0000 </r>
       <r>  -14.4727    1.0000 </r>
       <r>  -14.4561    1.0000 </r>
       <r>  -14.4456    1.0000 </r>
       <r>  -14.3577    1.0000 </r>
       <r>  -14.1938    1.0000 </r>
       <r>  -14.1486    1.0000 </r>
       <r>  -14.1093    1.0000 </r>
       <r>  -14.1017    1.0000 </r>
       <r>  -14.0492    1.0000 </r>
       <r>   -7.8635    1.0000 </r>
       <r>   -7.1980    1.0000 </r>
       <r>   -6.8136    1.0000 </r>
       <r>   -6.4421    1.0000 </r>
       <r>   -5.8441    1.0000 </r>
       <r>   -5.8136    1.0000 </r>
       <r>   -5.6841    1.0000 </r>
       <r>   -5.4882    1.0000 </r>
       <r>   -5.4017    1.0000 </r>
       <r>   -5.3554    1.0000 </r>
       <r>   -4.9358    1.0000 </r>
       <r>   -4.7710    1.0000 </r>
       <r>   -4.4206    1.0000 </r>
       <r>   -4.2415    1.0000 </r>
       <r>   -4.1434    1.0000 </r>
       <r>   -3.9029    1.0000 </r>
       <r>   -3.3026    1.0000 </r>
       <r>   -2.9461    1.0000 </r>
       <r>   -2.6844    1.0000 </r>
       <r>   -2.6269    1.0000 </r>
       <r>   -2.0978    1.0000 </r>
       <r>   -2.0137    1.0000 </r>
       <r>   -1.8660    1.0000 </r>
       <r>   -1.6949    1.0000 </r>
       <r>   -1.6381    1.0000 </r>
       <r>   -1.5136    1.0000 </r>
       <r>   -1.4827    1.0000 </r>
       <r>   -1.2349    1.0000 </r>
       <r>   -1.2121    1.0000 </r>
       <r>   -1.1936    1.0000 </r>
       <r>   -1.1246    1.0000 </r>
       <r>   -1.0724    1.0000 </r>
       <r>   -0.7846    1.0000 </r>
       <r>   -0.7525    1.0000 </r>
       <r>   -0.6996    1.0000 </r>
       <r>   -0.6074    1.0000 </r>
       <r>   -0.5424    1.0000 </r>
       <r>   -0.4058    1.0000 </r>
       <r>   -0.3966    1.0000 </r>
       <r>   -0.3224    1.0000 </r>
       <r>   -0.2931    1.0000 </r>
       <r>   -0.2130    1.0000 </r>
       <r>   -0.2072    1.0000 </r>
       <r>   -0.0760    1.0000 </r>
       <r>   -0.0256    1.0000 </r>
       <r>   -0.0110    1.0000 </r>
       <r>    0.0573    1.0000 </r>
       <r>    0.1209    1.0000 </r>
       <r>    0.1255    1.0000 </r>
       <r>    0.2028    1.0000 </r>
       <r>    0.2856    1.0002 </r>
       <r>    0.3148    1.0008 </r>
       <r>    0.3601    1.0054 </r>
       <r>    0.3875    1.0128 </r>
       <r>    0.3974    1.0167 </r>
       <r>    0.4183    1.0261 </r>
       <r>    0.4743    1.0224 </r>
       <r>    0.5490    0.6876 </r>
       <r>    0.5804    0.4279 </r>
       <r>    0.5992    0.2776 </r>
       <r>    0.6583   -0.0047 </r>
       <r>    0.6953   -0.0354 </r>
       <r>    0.7314   -0.0233 </r>
       <r>    0.7590   -0.0118 </r>
       <r>    0.7931   -0.0038 </r>
       <r>    0.7974   -0.0032 </r>
       <r>    0.8539   -0.0002 </r>
       <r>    0.8742   -0.0001 </r>
       <r>    0.8962   -0.0000 </r>
       <r>    0.9427   -0.0000 </r>
       <r>    0.9859   -0.0000 </r>
       <r>    1.0412   -0.0000 </r>
       <r>    1.0488   -0.0000 </r>
       <r>    1.0652   -0.0000 </r>
       <r>    1.1006   -0.0000 </r>
       <r>    1.1594   -0.0000 </r>
       <r>    1.1785   -0.0000 </r>
       <r>    1.1867   -0.0000 </r>
       <r>    1.2539   -0.0000 </r>
       <r>    1.2797   -0.0000 </r>
       <r>    1.3216   -0.0000 </r>
       <r>    1.3585   -0.0000 </r>
       <r>    1.3639   -0.0000 </r>
       <r>    1.3844   -0.0000 </r>
       <r>    1.4175   -0.0000 </r>
       <r>    1.5206   -0.0000 </r>
       <r>    1.5423   -0.0000 </r>
       <r>    1.5619   -0.0000 </r>
       <r>    1.5786   -0.0000 </r>
       <r>    1.6147   -0.0000 </r>
       <r>    1.6804   -0.0000 </r>
       <r>    1.6887   -0.0000 </r>
       <r>    1.7321   -0.0000 </r>
       <r>    1.7334   -0.0000 </r>
       <r>    1.7463   -0.0000 </r>
       <r>    1.8546   -0.0000 </r>
       <r>    1.8670   -0.0000 </r>
       <r>    1.8833   -0.0000 </r>
       <r>    1.9022   -0.0000 </r>
       <r>    2.0053   -0.0000 </r>
       <r>    2.0633   -0.0000 </r>
       <r>    2.1023   -0.0000 </r>
       <r>    2.1598   -0.0000 </r>
       <r>    2.2130   -0.0000 </r>
       <r>    2.3152   -0.0000 </r>
       <r>    2.4307   -0.0000 </r>
       <r>    2.4515   -0.0000 </r>
       <r>    2.5567   -0.0000 </r>
       <r>    2.6936    0.0000 </r>
       <r>    2.7214    0.0000 </r>
       <r>    2.9498    0.0000 </r>
       <r>    3.1125    0.0000 </r>
       <r>    3.1931    0.0000 </r>
       <r>    3.2479    0.0000 </r>
       <r>    3.2900    0.0000 </r>
       <r>    3.3995    0.0000 </r>
       <r>    3.5034    0.0000 </r>
       <r>    3.5644    0.0000 </r>
      </set>
      <set comment="kpoint 5">
       <r>  -56.9769    1.0000 </r>
       <r>  -56.9353    1.0000 </r>
       <r>  -56.9170    1.0000 </r>
       <r>  -56.8257    1.0000 </r>
       <r>  -56.6111    1.0000 </r>
       <r>  -56.5813    1.0000 </r>
       <r>  -56.4308    1.0000 </r>
       <r>  -56.3804    1.0000 </r>
       <r>  -56.3688    1.0000 </r>
       <r>  -56.3298    1.0000 </r>
       <r>  -56.1688    1.0000 </r>
       <r>  -56.1368    1.0000 </r>
       <r>  -56.0804    1.0000 </r>
       <r>  -56.0719    1.0000 </r>
       <r>  -56.0251    1.0000 </r>
       <r>  -55.9899    1.0000 </r>
       <r>  -33.3546    1.0000 </r>
       <r>  -33.3352    1.0000 </r>
       <r>  -33.2651    1.0000 </r>
       <r>  -33.2444    1.0000 </r>
       <r>  -33.2222    1.0000 </r>
       <r>  -33.1660    1.0000 </r>
       <r>  -33.1593    1.0000 </r>
       <r>  -33.1470    1.0000 </r>
       <r>  -33.1236    1.0000 </r>
       <r>  -33.0943    1.0000 </r>
       <r>  -33.0905    1.0000 </r>
       <r>  -32.9871    1.0000 </r>
       <r>  -32.9790    1.0000 </r>
       <r>  -32.9481    1.0000 </r>
       <r>  -32.8659    1.0000 </r>
       <r>  -32.8051    1.0000 </r>
       <r>  -32.8017    1.0000 </r>
       <r>  -32.7837    1.0000 </r>
       <r>  -32.7616    1.0000 </r>
       <r>  -32.7574    1.0000 </r>
       <r>  -32.7283    1.0000 </r>
       <r>  -32.7027    1.0000 </r>
       <r>  -32.7018    1.0000 </r>
       <r>  -32.6800    1.0000 </r>
       <r>  -32.6684    1.0000 </r>
       <r>  -32.6536    1.0000 </r>
       <r>  -32.6399    1.0000 </r>
       <r>  -32.5782    1.0000 </r>
       <r>  -32.5741    1.0000 </r>
       <r>  -32.5693    1.0000 </r>
       <r>  -32.5218    1.0000 </r>
       <r>  -32.5118    1.0000 </r>
       <r>  -32.5030    1.0000 </r>
       <r>  -32.4472    1.0000 </r>
       <r>  -32.4191    1.0000 </r>
       <r>  -32.4128    1.0000 </r>
       <r>  -32.4041    1.0000 </r>
       <r>  -32.3822    1.0000 </r>
       <r>  -32.3808    1.0000 </r>
       <r>  -32.3534    1.0000 </r>
       <r>  -32.3244    1.0000 </r>
       <r>  -32.3116    1.0000 </r>
       <r>  -32.2907    1.0000 </r>
       <r>  -32.2656    1.0000 </r>
       <r>  -32.2616    1.0000 </r>
       <r>  -32.2015    1.0000 </r>
       <r>  -32.1796    1.0000 </r>
       <r>  -32.1410    1.0000 </r>
       <r>  -14.5702    1.0000 </r>
       <r>  -14.4726    1.0000 </r>
       <r>  -14.4554    1.0000 </r>
       <r>  -14.4451    1.0000 </r>
       <r>  -14.3585    1.0000 </r>
       <r>  -14.1940    1.0000 </r>
       <r>  -14.1486    1.0000 </r>
       <r>  -14.1089    1.0000 </r>
       <r>  -14.1012    1.0000 </r>
       <r>  -14.0498    1.0000 </r>
       <r>   -8.4537    1.0000 </r>
       <r>   -7.7468    1.0000 </r>
       <r>   -7.0414    1.0000 </r>
       <r>   -6.7277    1.0000 </r>
       <r>   -6.1389    1.0000 </r>
       <r>   -5.8259    1.0000 </r>
       <r>   -5.5272    1.0000 </r>
       <r>   -4.9734    1.0000 </r>
       <r>   -4.6488    1.0000 </r>
       <r>   -4.3376    1.0000 </r>
       <r>   -4.0633    1.0000 </r>
       <r>   -3.8198    1.0000 </r>
       <r>   -3.6828    1.0000 </r>
       <r>   -3.5331    1.0000 </r>
       <r>   -3.3304    1.0000 </r>
       <r>   -3.2627    1.0000 </r>
       <r>   -3.1472    1.0000 </r>
       <r>   -2.9956    1.0000 </r>
       <r>   -2.9058    1.0000 </r>
       <r>   -2.7673    1.0000 </r>
       <r>   -2.6580    1.0000 </r>
       <r>   -2.5440    1.0000 </r>
       <r>   -2.4745    1.0000 </r>
       <r>   -2.2897    1.0000 </r>
       <r>   -2.1884    1.0000 </r>
       <r>   -2.0572    1.0000 </r>
       <r>   -2.0134    1.0000 </r>
       <r>   -1.8884    1.0000 </r>
       <r>   -1.7398    1.0000 </r>
       <r>   -1.4683    1.0000 </r>
       <r>   -1.3700    1.0000 </r>
       <r>   -1.3397    1.0000 </r>
       <r>   -1.1956    1.0000 </r>
       <r>   -1.1233    1.0000 </r>
       <r>   -1.0262    1.0000 </r>
       <r>   -0.9138    1.0000 </r>
       <r>   -0.9005    1.0000 </r>
       <r>   -0.7434    1.0000 </r>
       <r>   -0.6637    1.0000 </r>
       <r>   -0.5008    1.0000 </r>
       <r>   -0.4817    1.0000 </r>
       <r>   -0.3806    1.0000 </r>
       <r>   -0.3479    1.0000 </r>
       <r>   -0.2205    1.0000 </r>
       <r>   -0.1990    1.0000 </r>
       <r>   -0.1803    1.0000 </r>
       <r>   -0.0909    1.0000 </r>
       <r>   -0.0535    1.0000 </r>
       <r>   -0.0295    1.0000 </r>
       <r>    0.0017    1.0000 </r>
       <r>    0.1032    1.0000 </r>
       <r>    0.1421    1.0000 </r>
       <r>    0.1910    1.0000 </r>
       <r>    0.2127    1.0000 </r>
       <r>    0.2370    1.0000 </r>
       <r>    0.3258    1.0014 </r>
       <r>    0.3773    1.0095 </r>
       <r>    0.4067    1.0207 </r>
       <r>    0.4327    1.0321 </r>
       <r>    0.4864    1.0025 </r>
       <r>    0.5694    0.5202 </r>
       <r>    0.5801    0.4299 </r>
       <r>    0.7123   -0.0316 </r>
       <r>    0.7593   -0.0117 </r>
       <r>    0.8127   -0.0017 </r>
       <r>    0.8264   -0.0009 </r>
       <r>    0.9205   -0.0000 </r>
       <r>    0.9209   -0.0000 </r>
       <r>    0.9868   -0.0000 </r>
       <r>    1.0250   -0.0000 </r>
       <r>    1.0587   -0.0000 </r>
       <r>    1.0795   -0.0000 </r>
       <r>    1.1306   -0.0000 </r>
       <r>    1.1746   -0.0000 </r>
       <r>    1.2069   -0.0000 </r>
       <r>    1.2422   -0.0000 </r>
       <r>    1.3121   -0.0000 </r>
       <r>    1.3241   -0.0000 </r>
       <r>    1.3289   -0.0000 </r>
       <r>    1.3897   -0.0000 </r>
       <r>    1.4934   -0.0000 </r>
       <r>    1.5640   -0.0000 </r>
       <r>    1.6279   -0.0000 </r>
       <r>    1.6392   -0.0000 </r>
       <r>    1.7103   -0.0000 </r>
       <r>    1.7519   -0.0000 </r>
       <r>    1.8022   -0.0000 </r>
       <r>    1.8615   -0.0000 </r>
       <r>    1.8716   -0.0000 </r>
       <r>    1.9586   -0.0000 </r>
       <r>    2.0111   -0.0000 </r>
       <r>    2.0361   -0.0000 </r>
       <r>    2.0933   -0.0000 </r>
       <r>    2.0974   -0.0000 </r>
       <r>    2.1576   -0.0000 </r>
       <r>    2.2086   -0.0000 </r>
       <r>    2.2250   -0.0000 </r>
       <r>    2.2542   -0.0000 </r>
       <r>    2.3057   -0.0000 </r>
       <r>    2.3250   -0.0000 </r>
       <r>    2.3594   -0.0000 </r>
       <r>    2.4101   -0.0000 </r>
       <r>    2.4489   -0.0000 </r>
       <r>    2.4977   -0.0000 </r>
       <r>    2.5023   -0.0000 </r>
       <r>    2.5303   -0.0000 </r>
       <r>    2.5502   -0.0000 </r>
       <r>    2.6287    0.0000 </r>
       <r>    2.6670    0.0000 </r>
       <r>    2.6922    0.0000 </r>
       <r>    2.7370    0.0000 </r>
       <r>    2.8541    0.0000 </r>
       <r>    2.8913    0.0000 </r>
       <r>    2.9822    0.0000 </r>
       <r>    3.0457    0.0000 </r>
       <r>    3.1450    0.0000 </r>
       <r>    3.2437    0.0000 </r>
       <r>    3.3532    0.0000 </r>
      </set>
      <set comment="kpoint 6">
       <r>  -56.9769    1.0000 </r>
       <r>  -56.9353    1.0000 </r>
       <r>  -56.9170    1.0000 </r>
       <r>  -56.8257    1.0000 </r>
       <r>  -56.6109    1.0000 </r>
       <r>  -56.5812    1.0000 </r>
       <r>  -56.4306    1.0000 </r>
       <r>  -56.3802    1.0000 </r>
       <r>  -56.3686    1.0000 </r>
       <r>  -56.3295    1.0000 </r>
       <r>  -56.1690    1.0000 </r>
       <r>  -56.1370    1.0000 </r>
       <r>  -56.0806    1.0000 </r>
       <r>  -56.0722    1.0000 </r>
       <r>  -56.0254    1.0000 </r>
       <r>  -55.9901    1.0000 </r>
       <r>  -33.3546    1.0000 </r>
       <r>  -33.3352    1.0000 </r>
       <r>  -33.2651    1.0000 </r>
       <r>  -33.2444    1.0000 </r>
       <r>  -33.2222    1.0000 </r>
       <r>  -33.1660    1.0000 </r>
       <r>  -33.1594    1.0000 </r>
       <r>  -33.1470    1.0000 </r>
       <r>  -33.1236    1.0000 </r>
       <r>  -33.0943    1.0000 </r>
       <r>  -33.0905    1.0000 </r>
       <r>  -32.9871    1.0000 </r>
       <r>  -32.9790    1.0000 </r>
       <r>  -32.9482    1.0000 </r>
       <r>  -32.8658    1.0000 </r>
       <r>  -32.8049    1.0000 </r>
       <r>  -32.7899    1.0000 </r>
       <r>  -32.7722    1.0000 </r>
       <r>  -32.7614    1.0000 </r>
       <r>  -32.7577    1.0000 </r>
       <r>  -32.7281    1.0000 </r>
       <r>  -32.7022    1.0000 </r>
       <r>  -32.6889    1.0000 </r>
       <r>  -32.6799    1.0000 </r>
       <r>  -32.6681    1.0000 </r>
       <r>  -32.6534    1.0000 </r>
       <r>  -32.6397    1.0000 </r>
       <r>  -32.5610    1.0000 </r>
       <r>  -32.5561    1.0000 </r>
       <r>  -32.5532    1.0000 </r>
       <r>  -32.5218    1.0000 </r>
       <r>  -32.5119    1.0000 </r>
       <r>  -32.5031    1.0000 </r>
       <r>  -32.4472    1.0000 </r>
       <r>  -32.4192    1.0000 </r>
       <r>  -32.4134    1.0000 </r>
       <r>  -32.4044    1.0000 </r>
       <r>  -32.3822    1.0000 </r>
       <r>  -32.3812    1.0000 </r>
       <r>  -32.3657    1.0000 </r>
       <r>  -32.3246    1.0000 </r>
[...]
       <r>    0.8475   -0.0003 </r>
       <r>    0.8840   -0.0000 </r>
       <r>    0.8859   -0.0000 </r>
       <r>    0.9512   -0.0000 </r>
       <r>    0.9670   -0.0000 </r>
       <r>    1.0323   -0.0000 </r>
       <r>    1.0707   -0.0000 </r>
       <r>    1.0946   -0.0000 </r>
       <r>    1.1092   -0.0000 </r>
       <r>    1.1414   -0.0000 </r>
       <r>    1.1925   -0.0000 </r>
       <r>    1.2023   -0.0000 </r>
       <r>    1.2199   -0.0000 </r>
       <r>    1.2804   -0.0000 </r>
       <r>    1.2965   -0.0000 </r>
       <r>    1.3062   -0.0000 </r>
       <r>    1.3472   -0.0000 </r>
       <r>    1.3874   -0.0000 </r>
       <r>    1.3918   -0.0000 </r>
       <r>    1.4233   -0.0000 </r>
       <r>    1.4720   -0.0000 </r>
       <r>    1.5212   -0.0000 </r>
       <r>    1.5312   -0.0000 </r>
       <r>    1.5708   -0.0000 </r>
       <r>    1.5892   -0.0000 </r>
       <r>    1.6507   -0.0000 </r>
       <r>    1.6655   -0.0000 </r>
       <r>    1.7472   -0.0000 </r>
       <r>    1.7495   -0.0000 </r>
       <r>    1.8103   -0.0000 </r>
       <r>    1.8291   -0.0000 </r>
       <r>    1.9035   -0.0000 </r>
       <r>    1.9210   -0.0000 </r>
       <r>    1.9704   -0.0000 </r>
       <r>    1.9822   -0.0000 </r>
       <r>    2.0729   -0.0000 </r>
       <r>    2.0873   -0.0000 </r>
       <r>    2.1804   -0.0000 </r>
       <r>    2.2489   -0.0000 </r>
       <r>    2.3058   -0.0000 </r>
       <r>    2.3229   -0.0000 </r>
       <r>    2.4024   -0.0000 </r>
       <r>    2.5268   -0.0000 </r>
       <r>    2.6333    0.0000 </r>
       <r>    2.6784    0.0000 </r>
       <r>    2.7801    0.0000 </r>
       <r>    2.7921    0.0000 </r>
       <r>    3.0191    0.0000 </r>
       <r>    3.0784    0.0000 </r>
       <r>    3.1429    0.0000 </r>
       <r>    3.3398    0.0000 </r>
       <r>    3.4112    0.0000 </r>
       <r>    3.4418    0.0000 </r>
      </set>
     </set>
    </set>
   </array>
  </eigenvalues>
  <separator name="orbital magnetization" >
   <v name="MAGDIPOLOUT">      0.00000000      0.00000000      0.00000000</v>
  </separator>
  <dos>
   <i name="efermi">      0.57180871 </i>
   <total>
    <array>
     <dimension dim="1">gridpoints</dimension>
     <dimension dim="2">spin</dimension>
     <field>energy</field>
     <field>total</field>
     <field>integrated</field>
     <set>
      <set comment="spin 1">
       <r>   -60.0039     0.0000     0.0000 </r>
       <r>   -59.7819     0.0000     0.0000 </r>
       <r>   -59.5600     0.0000     0.0000 </r>
       <r>   -59.3380     0.0000     0.0000 </r>
       <r>   -59.1160     0.0000     0.0000 </r>
       <r>   -58.8940     0.0000     0.0000 </r>
       <r>   -58.6720     0.0000     0.0000 </r>
       <r>   -58.4500     0.0000     0.0000 </r>
       <r>   -58.2281     0.0000     0.0000 </r>
       <r>   -58.0061     0.0000     0.0000 </r>
       <r>   -57.7841    -0.0000    -0.0000 </r>
       <r>   -57.5621    -0.0000    -0.0000 </r>
       <r>   -57.3401    -0.0000    -0.0000 </r>
       <r>   -57.1181    -0.4732    -0.1050 </r>
       <r>   -56.8961    23.0643     5.0149 </r>
       <r>   -56.6742    14.1361     8.1529 </r>
       <r>   -56.4522    20.7266    12.7539 </r>
       <r>   -56.2302    33.4569    20.1808 </r>
       <r>   -56.0082    43.8862    29.9228 </r>
       <r>   -55.7862     9.4396    32.0183 </r>
       <r>   -55.5642    -0.0823    32.0000 </r>
       <r>   -55.3423    -0.0000    32.0000 </r>
       <r>   -55.1203     0.0000    32.0000 </r>
       <r>   -54.8983     0.0000    32.0000 </r>
       <r>   -54.6763     0.0000    32.0000 </r>
       <r>   -54.4543     0.0000    32.0000 </r>
       <r>   -54.2323     0.0000    32.0000 </r>
       <r>   -54.0103     0.0000    32.0000 </r>
       <r>   -53.7884     0.0000    32.0000 </r>
       <r>   -53.5664     0.0000    32.0000 </r>
       <r>   -53.3444     0.0000    32.0000 </r>
       <r>   -53.1224     0.0000    32.0000 </r>
       <r>   -52.9004     0.0000    32.0000 </r>
       <r>   -52.6784     0.0000    32.0000 </r>
       <r>   -52.4565     0.0000    32.0000 </r>
       <r>   -52.2345     0.0000    32.0000 </r>
       <r>   -52.0125     0.0000    32.0000 </r>
       <r>   -51.7905     0.0000    32.0000 </r>
       <r>   -51.5685     0.0000    32.0000 </r>
       <r>   -51.3465     0.0000    32.0000 </r>
       <r>   -51.1245     0.0000    32.0000 </r>
       <r>   -50.9026     0.0000    32.0000 </r>
       <r>   -50.6806     0.0000    32.0000 </r>
       <r>   -50.4586     0.0000    32.0000 </r>
       <r>   -50.2366     0.0000    32.0000 </r>
       <r>   -50.0146     0.0000    32.0000 </r>
       <r>   -49.7926     0.0000    32.0000 </r>
       <r>   -49.5707     0.0000    32.0000 </r>
       <r>   -49.3487     0.0000    32.0000 </r>
       <r>   -49.1267     0.0000    32.0000 </r>
       <r>   -48.9047     0.0000    32.0000 </r>
       <r>   -48.6827     0.0000    32.0000 </r>
       <r>   -48.4607     0.0000    32.0000 </r>
       <r>   -48.2387     0.0000    32.0000 </r>
       <r>   -48.0168     0.0000    32.0000 </r>
       <r>   -47.7948     0.0000    32.0000 </r>
       <r>   -47.5728     0.0000    32.0000 </r>
       <r>   -47.3508     0.0000    32.0000 </r>
       <r>   -47.1288     0.0000    32.0000 </r>
       <r>   -46.9068     0.0000    32.0000 </r>
       <r>   -46.6849     0.0000    32.0000 </r>
       <r>   -46.4629     0.0000    32.0000 </r>
       <r>   -46.2409     0.0000    32.0000 </r>
       <r>   -46.0189     0.0000    32.0000 </r>
       <r>   -45.7969     0.0000    32.0000 </r>
       <r>   -45.5749     0.0000    32.0000 </r>
       <r>   -45.3529     0.0000    32.0000 </r>
       <r>   -45.1310     0.0000    32.0000 </r>
       <r>   -44.9090     0.0000    32.0000 </r>
       <r>   -44.6870     0.0000    32.0000 </r>
       <r>   -44.4650     0.0000    32.0000 </r>
       <r>   -44.2430     0.0000    32.0000 </r>
       <r>   -44.0210     0.0000    32.0000 </r>
       <r>   -43.7991     0.0000    32.0000 </r>
       <r>   -43.5771     0.0000    32.0000 </r>
       <r>   -43.3551     0.0000    32.0000 </r>
       <r>   -43.1331     0.0000    32.0000 </r>
       <r>   -42.9111     0.0000    32.0000 </r>
       <r>   -42.6891     0.0000    32.0000 </r>
       <r>   -42.4671     0.0000    32.0000 </r>
       <r>   -42.2452     0.0000    32.0000 </r>
       <r>   -42.0232     0.0000    32.0000 </r>
       <r>   -41.8012     0.0000    32.0000 </r>
       <r>   -41.5792     0.0000    32.0000 </r>
       <r>   -41.3572     0.0000    32.0000 </r>
       <r>   -41.1352     0.0000    32.0000 </r>
       <r>   -40.9133     0.0000    32.0000 </r>
       <r>   -40.6913     0.0000    32.0000 </r>
       <r>   -40.4693     0.0000    32.0000 </r>
       <r>   -40.2473     0.0000    32.0000 </r>
       <r>   -40.0253     0.0000    32.0000 </r>
       <r>   -39.8033     0.0000    32.0000 </r>
       <r>   -39.5813     0.0000    32.0000 </r>
       <r>   -39.3594     0.0000    32.0000 </r>
       <r>   -39.1374     0.0000    32.0000 </r>
       <r>   -38.9154     0.0000    32.0000 </r>
       <r>   -38.6934     0.0000    32.0000 </r>
       <r>   -38.4714     0.0000    32.0000 </r>
       <r>   -38.2494     0.0000    32.0000 </r>
       <r>   -38.0275     0.0000    32.0000 </r>
       <r>   -37.8055     0.0000    32.0000 </r>
       <r>   -37.5835     0.0000    32.0000 </r>
       <r>   -37.3615     0.0000    32.0000 </r>
       <r>   -37.1395     0.0000    32.0000 </r>
       <r>   -36.9175     0.0000    32.0000 </r>
       <r>   -36.6955     0.0000    32.0000 </r>
       <r>   -36.4736     0.0000    32.0000 </r>
       <r>   -36.2516     0.0000    32.0000 </r>
       <r>   -36.0296     0.0000    32.0000 </r>
       <r>   -35.8076     0.0000    32.0000 </r>
       <r>   -35.5856     0.0000    32.0000 </r>
       <r>   -35.3636     0.0000    32.0000 </r>
       <r>   -35.1417     0.0000    32.0000 </r>
       <r>   -34.9197     0.0000    32.0000 </r>
       <r>   -34.6977     0.0000    32.0000 </r>
       <r>   -34.4757     0.0000    32.0000 </r>
       <r>   -34.2537    -0.0000    32.0000 </r>
       <r>   -34.0317    -0.0000    32.0000 </r>
       <r>   -33.8097    -0.0000    32.0000 </r>
       <r>   -33.5878    -0.0310    31.9931 </r>
       <r>   -33.3658     4.9627    33.0948 </r>
       <r>   -33.1438    61.9734    46.8519 </r>
       <r>   -32.9218    55.3214    59.1324 </r>
       <r>   -32.6998    76.0732    76.0195 </r>
       <r>   -32.4778    92.4113    96.5334 </r>
       <r>   -32.2559   114.4480   121.9390 </r>
       <r>   -32.0339    27.7932   128.1087 </r>
       <r>   -31.8119    -0.4897   128.0000 </r>
       <r>   -31.5899    -0.0000   128.0000 </r>
       <r>   -31.3679    -0.0000   128.0000 </r>
       <r>   -31.1459     0.0000   128.0000 </r>
       <r>   -30.9239     0.0000   128.0000 </r>
       <r>   -30.7020     0.0000   128.0000 </r>
       <r>   -30.4800     0.0000   128.0000 </r>
       <r>   -30.2580     0.0000   128.0000 </r>
       <r>   -30.0360     0.0000   128.0000 </r>
       <r>   -29.8140     0.0000   128.0000 </r>
       <r>   -29.5920     0.0000   128.0000 </r>
       <r>   -29.3701     0.0000   128.0000 </r>
       <r>   -29.1481     0.0000   128.0000 </r>
       <r>   -28.9261     0.0000   128.0000 </r>
       <r>   -28.7041     0.0000   128.0000 </r>
       <r>   -28.4821     0.0000   128.0000 </r>
       <r>   -28.2601     0.0000   128.0000 </r>
       <r>   -28.0381     0.0000   128.0000 </r>
       <r>   -27.8162     0.0000   128.0000 </r>
       <r>   -27.5942     0.0000   128.0000 </r>
       <r>   -27.3722     0.0000   128.0000 </r>
       <r>   -27.1502     0.0000   128.0000 </r>
       <r>   -26.9282     0.0000   128.0000 </r>
       <r>   -26.7062     0.0000   128.0000 </r>
       <r>   -26.4843     0.0000   128.0000 </r>
       <r>   -26.2623     0.0000   128.0000 </r>
       <r>   -26.0403     0.0000   128.0000 </r>
       <r>   -25.8183     0.0000   128.0000 </r>
       <r>   -25.5963     0.0000   128.0000 </r>
       <r>   -25.3743     0.0000   128.0000 </r>
       <r>   -25.1523     0.0000   128.0000 </r>
       <r>   -24.9304     0.0000   128.0000 </r>
       <r>   -24.7084     0.0000   128.0000 </r>
       <r>   -24.4864     0.0000   128.0000 </r>
       <r>   -24.2644     0.0000   128.0000 </r>
       <r>   -24.0424     0.0000   128.0000 </r>
       <r>   -23.8204     0.0000   128.0000 </r>
       <r>   -23.5985     0.0000   128.0000 </r>
       <r>   -23.3765     0.0000   128.0000 </r>
       <r>   -23.1545     0.0000   128.0000 </r>
       <r>   -22.9325     0.0000   128.0000 </r>
       <r>   -22.7105     0.0000   128.0000 </r>
       <r>   -22.4885     0.0000   128.0000 </r>
       <r>   -22.2665     0.0000   128.0000 </r>
       <r>   -22.0446     0.0000   128.0000 </r>
       <r>   -21.8226     0.0000   128.0000 </r>
       <r>   -21.6006     0.0000   128.0000 </r>
       <r>   -21.3786     0.0000   128.0000 </r>
       <r>   -21.1566     0.0000   128.0000 </r>
       <r>   -20.9346     0.0000   128.0000 </r>
       <r>   -20.7127     0.0000   128.0000 </r>
       <r>   -20.4907     0.0000   128.0000 </r>
       <r>   -20.2687     0.0000   128.0000 </r>
       <r>   -20.0467     0.0000   128.0000 </r>
       <r>   -19.8247     0.0000   128.0000 </r>
       <r>   -19.6027     0.0000   128.0000 </r>
       <r>   -19.3807     0.0000   128.0000 </r>
       <r>   -19.1588     0.0000   128.0000 </r>
       <r>   -18.9368     0.0000   128.0000 </r>
       <r>   -18.7148     0.0000   128.0000 </r>
       <r>   -18.4928     0.0000   128.0000 </r>
       <r>   -18.2708     0.0000   128.0000 </r>
       <r>   -18.0488     0.0000   128.0000 </r>
       <r>   -17.8269     0.0000   128.0000 </r>
       <r>   -17.6049     0.0000   128.0000 </r>
       <r>   -17.3829     0.0000   128.0000 </r>
       <r>   -17.1609     0.0000   128.0000 </r>
       <r>   -16.9389     0.0000   128.0000 </r>
       <r>   -16.7169     0.0000   128.0000 </r>
       <r>   -16.4949     0.0000   128.0000 </r>
       <r>   -16.2730     0.0000   128.0000 </r>
       <r>   -16.0510     0.0000   128.0000 </r>
       <r>   -15.8290     0.0000   128.0000 </r>
       <r>   -15.6070     0.0000   128.0000 </r>
       <r>   -15.3850    -0.0000   128.0000 </r>
       <r>   -15.1630    -0.0000   128.0000 </r>
       <r>   -14.9411    -0.0000   128.0000 </r>
       <r>   -14.7191    -0.2742   127.9391 </r>
       <r>   -14.4971    14.1387   131.0777 </r>
       <r>   -14.2751    30.9139   137.9401 </r>
       <r>   -14.0531    38.8530   146.5649 </r>
       <r>   -13.8311     6.5101   148.0100 </r>
       <r>   -13.6091    -0.0452   148.0000 </r>
       <r>   -13.3872    -0.0000   148.0000 </r>
       <r>   -13.1652     0.0000   148.0000 </r>
       <r>   -12.9432     0.0000   148.0000 </r>
       <r>   -12.7212     0.0000   148.0000 </r>
       <r>   -12.4992     0.0000   148.0000 </r>
       <r>   -12.2772     0.0000   148.0000 </r>
       <r>   -12.0553     0.0000   148.0000 </r>
       <r>   -11.8333     0.0000   148.0000 </r>
       <r>   -11.6113     0.0000   148.0000 </r>
       <r>   -11.3893     0.0000   148.0000 </r>
       <r>   -11.1673     0.0000   148.0000 </r>
       <r>   -10.9453     0.0000   148.0000 </r>
       <r>   -10.7233     0.0000   148.0000 </r>
       <r>   -10.5014     0.0000   148.0000 </r>
       <r>   -10.2794     0.0000   148.0000 </r>
       <r>   -10.0574     0.0000   148.0000 </r>
       <r>    -9.8354     0.0000   148.0000 </r>
       <r>    -9.6134     0.0000   148.0000 </r>
       <r>    -9.3914    -0.0000   148.0000 </r>
       <r>    -9.1695    -0.0000   148.0000 </r>
       <r>    -8.9475    -0.0000   148.0000 </r>
       <r>    -8.7255    -0.0046   147.9990 </r>
       <r>    -8.5035     0.4264   148.0936 </r>
       <r>    -8.2815     4.0182   148.9856 </r>
       <r>    -8.0595     2.2672   149.4889 </r>
       <r>    -7.8375     1.6451   149.8541 </r>
       <r>    -7.6156     3.2783   150.5818 </r>
       <r>    -7.3936     2.0677   151.0408 </r>
       <r>    -7.1716     3.2451   151.7612 </r>
       <r>    -6.9496     3.4232   152.5211 </r>
       <r>    -6.7276     5.0768   153.6480 </r>
       <r>    -6.5056     8.0996   155.4460 </r>
       <r>    -6.2837     4.2288   156.3848 </r>
       <r>    -6.0617     5.3930   157.5819 </r>
       <r>    -5.8397     7.9216   159.3404 </r>
       <r>    -5.6177     4.5498   160.3504 </r>
       <r>    -5.3957    10.3117   162.6394 </r>
       <r>    -5.1737     4.7468   163.6931 </r>
       <r>    -4.9517    10.3011   165.9798 </r>
       <r>    -4.7298     8.6782   167.9062 </r>
       <r>    -4.5078     8.7038   169.8384 </r>
       <r>    -4.2858     8.9726   171.8301 </r>
       <r>    -4.0638     8.8017   173.7840 </r>
       <r>    -3.8418     8.6874   175.7125 </r>
       <r>    -3.6198     6.6767   177.1946 </r>
       <r>    -3.3979     7.2281   178.7991 </r>
       <r>    -3.1759    11.4488   181.3406 </r>
       <r>    -2.9539     8.0508   183.1277 </r>
       <r>    -2.7319     9.8381   185.3116 </r>
       <r>    -2.5099    12.9319   188.1823 </r>
       <r>    -2.2879    10.5822   190.5314 </r>
       <r>    -2.0659    13.2076   193.4633 </r>
       <r>    -1.8440    18.5598   197.5833 </r>
       <r>    -1.6220    16.7273   201.2965 </r>
       <r>    -1.4000    20.4089   205.8269 </r>
       <r>    -1.1780    21.1054   210.5120 </r>
       <r>    -0.9560    23.4013   215.7067 </r>
       <r>    -0.7340    25.8700   221.4495 </r>
       <r>    -0.5121    25.2444   227.0534 </r>
       <r>    -0.2901    26.4504   232.9249 </r>
       <r>    -0.0681    34.3019   240.5394 </r>
       <r>     0.1539    32.3384   247.7181 </r>
       <r>     0.3759    42.8905   257.2391 </r>
       <r>     0.5979    45.1783   267.2680 </r>
       <r>     0.8199    43.9864   277.0323 </r>
       <r>     1.0418    52.5378   288.6949 </r>
       <r>     1.2638    61.2913   302.3006 </r>
       <r>     1.4858    53.5533   314.1886 </r>
       <r>     1.7078    48.6280   324.9832 </r>
       <r>     1.9298    43.6096   334.6639 </r>
       <r>     2.1518    44.6146   344.5677 </r>
       <r>     2.3738    47.7849   355.1752 </r>
       <r>     2.5957    32.4978   362.3892 </r>
       <r>     2.8177    31.2993   369.3371 </r>
       <r>     3.0397    23.7343   374.6058 </r>
       <r>     3.2617    21.2962   379.3332 </r>
       <r>     3.4837    19.4820   383.6579 </r>
       <r>     3.7057     1.5695   384.0063 </r>
       <r>     3.9276    -0.0284   384.0000 </r>
       <r>     4.1496    -0.0000   384.0000 </r>
       <r>     4.3716     0.0000   384.0000 </r>
       <r>     4.5936     0.0000   384.0000 </r>
       <r>     4.8156     0.0000   384.0000 </r>
       <r>     5.0376     0.0000   384.0000 </r>
       <r>     5.2596     0.0000   384.0000 </r>
       <r>     5.4815     0.0000   384.0000 </r>
       <r>     5.7035     0.0000   384.0000 </r>
       <r>     5.9255     0.0000   384.0000 </r>
       <r>     6.1475     0.0000   384.0000 </r>
       <r>     6.3695     0.0000   384.0000 </r>
       <r>     6.5915     0.0000   384.0000 </r>
      </set>
     </set>
    </array>
   </total>
  </dos>
 </calculation>
 <structure name="finalpos" >
  <crystal>
   <varray name="basis" >
    <v>       5.85845550       0.00000000       0.00000000 </v>
    <v>       0.00000000      10.15952995       0.00000000 </v>
    <v>       0.00000000      -3.40301641      27.82536060 </v>
   </varray>
   <i name="volume">   1656.14192705 </i>
   <varray name="rec_basis" >
    <v>       0.17069345      -0.00000000      -0.00000000 </v>
    <v>       0.00000000       0.09842975       0.01203787 </v>
    <v>       0.00000000       0.00000000       0.03593844 </v>
   </varray>
  </crystal>
  <varray name="positions" >
   <v>       0.00000000       0.99066316       0.33119916 </v>
   <v>       0.00000000       0.49066316       0.50321211 </v>
   <v>       0.00000000       0.75933684       0.41078141 </v>
   <v>       0.00000000       0.25933684       0.58279436 </v>
   <v>       0.00000000       0.25224643       0.41322069 </v>
   <v>       0.00000000       0.75224643       0.58523364 </v>
   <v>       0.00000000       0.99775357       0.50077283 </v>
   <v>       0.00000000       0.49775357       0.32875988 </v>
   <v>       0.50000000       0.00224643       0.67124012 </v>
   <v>       0.50000000       0.50224643       0.49922717 </v>
   <v>       0.50000000       0.74775357       0.41476636 </v>
   <v>       0.50000000       0.24775357       0.58677931 </v>
   <v>       0.50000000       0.22680859       0.42197197 </v>
   <v>       0.50000000       0.72680859       0.59398492 </v>
   <v>       0.50000000       0.02319141       0.49202155 </v>
   <v>       0.50000000       0.52319141       0.66403451 </v>
   <v>       0.24268531       0.99634265       0.41273530 </v>
   <v>       0.24268531       0.49634265       0.58474825 </v>
   <v>       0.21391683       0.73195841       0.49379323 </v>
   <v>       0.21391683       0.23195841       0.66580618 </v>
   <v>       0.24268531       0.25365735       0.50125822 </v>
   <v>       0.24268531       0.75365735       0.32924527 </v>
   <v>       0.21391683       0.01804159       0.59221325 </v>
   <v>       0.21391683       0.51804159       0.42020030 </v>
   <v>       0.75731469       0.99634265       0.41273530 </v>
   <v>       0.75731469       0.49634265       0.58474825 </v>
   <v>       0.78608317       0.73195841       0.49379323 </v>
   <v>       0.78608317       0.23195841       0.66580618 </v>
   <v>       0.75731469       0.25365735       0.50125822 </v>
   <v>       0.75731469       0.75365735       0.32924527 </v>
   <v>       0.78608317       0.01804159       0.59221325 </v>
   <v>       0.78608317       0.51804159       0.42020030 </v>
   <v>       0.50000000       0.87500000       0.54300324 </v>
   <v>       0.50000000       0.37500000       0.37099029 </v>
  </varray>
 </structure>
</modeling>
