  32  32   0   0
  0.4527679E+02  0.9881350E-09  0.5645286E-09  0.2619871E-08  0.5000000E-15
  1.000000000000000E-004
  CAR 
 unknown system                          
      7.29855271    -59.84170877  301      0.50958231      1.00000000
    -59.842  0.0000E+00  0.0000E+00
    -59.618  0.0000E+00  0.0000E+00
    -59.394  0.0000E+00  0.0000E+00
    -59.170  0.0000E+00  0.0000E+00
    -58.947  0.0000E+00  0.0000E+00
    -58.723  0.0000E+00  0.0000E+00
    -58.499  0.0000E+00  0.0000E+00
    -58.275  0.0000E+00  0.0000E+00
    -58.051  0.0000E+00  0.0000E+00
    -57.828  0.0000E+00  0.0000E+00
    -57.604 -0.1388E-27 -0.3106E-28
    -57.380 -0.5218E-14 -0.1168E-14
    -57.156 -0.7983E-05 -0.1787E-05
    -56.932 -0.3451E+00 -0.7724E-01
    -56.708  0.1596E+02  0.3494E+01
    -56.485  0.1670E+01  0.3868E+01
    -56.261  0.5904E+02  0.1708E+02
    -56.037  0.6820E+02  0.3235E+02
    -55.813 -0.1543E+01  0.3200E+02
    -55.589 -0.4431E-03  0.3200E+02
    -55.366 -0.3450E-11  0.3200E+02
    -55.142  0.0000E+00  0.3200E+02
    -54.918  0.0000E+00  0.3200E+02
    -54.694  0.0000E+00  0.3200E+02
    -54.470  0.0000E+00  0.3200E+02
    -54.247  0.0000E+00  0.3200E+02
    -54.023  0.0000E+00  0.3200E+02
    -53.799  0.0000E+00  0.3200E+02
    -53.575  0.0000E+00  0.3200E+02
    -53.351  0.0000E+00  0.3200E+02
    -53.128  0.0000E+00  0.3200E+02
    -52.904  0.0000E+00  0.3200E+02
    -52.680  0.0000E+00  0.3200E+02
    -52.456  0.0000E+00  0.3200E+02
    -52.232  0.0000E+00  0.3200E+02
    -52.009  0.0000E+00  0.3200E+02
    -51.785  0.0000E+00  0.3200E+02
    -51.561  0.0000E+00  0.3200E+02
    -51.337  0.0000E+00  0.3200E+02
    -51.113  0.0000E+00  0.3200E+02
    -50.890  0.0000E+00  0.3200E+02
    -50.666  0.0000E+00  0.3200E+02
    -50.442  0.0000E+00  0.3200E+02
    -50.218  0.0000E+00  0.3200E+02
    -49.994  0.0000E+00  0.3200E+02
    -49.771  0.0000E+00  0.3200E+02
    -49.547  0.0000E+00  0.3200E+02
    -49.323  0.0000E+00  0.3200E+02
    -49.099  0.0000E+00  0.3200E+02
    -48.875  0.0000E+00  0.3200E+02
    -48.652  0.0000E+00  0.3200E+02
    -48.428  0.0000E+00  0.3200E+02
    -48.204  0.0000E+00  0.3200E+02
    -47.980  0.0000E+00  0.3200E+02
    -47.756  0.0000E+00  0.3200E+02
    -47.533  0.0000E+00  0.3200E+02
    -47.309  0.0000E+00  0.3200E+02
    -47.085  0.0000E+00  0.3200E+02
    -46.861  0.0000E+00  0.3200E+02
    -46.637  0.0000E+00  0.3200E+02
    -46.414  0.0000E+00  0.3200E+02
    -46.190  0.0000E+00  0.3200E+02
    -45.966  0.0000E+00  0.3200E+02
    -45.742  0.0000E+00  0.3200E+02
    -45.518  0.0000E+00  0.3200E+02
    -45.295  0.0000E+00  0.3200E+02
    -45.071  0.0000E+00  0.3200E+02
    -44.847  0.0000E+00  0.3200E+02
    -44.623  0.0000E+00  0.3200E+02
    -44.399  0.0000E+00  0.3200E+02
    -44.176  0.0000E+00  0.3200E+02
    -43.952  0.0000E+00  0.3200E+02
    -43.728  0.0000E+00  0.3200E+02
    -43.504  0.0000E+00  0.3200E+02
    -43.280  0.0000E+00  0.3200E+02
    -43.057  0.0000E+00  0.3200E+02
    -42.833  0.0000E+00  0.3200E+02
    -42.609  0.0000E+00  0.3200E+02
    -42.385  0.0000E+00  0.3200E+02
    -42.161  0.0000E+00  0.3200E+02
    -41.938  0.0000E+00  0.3200E+02
    -41.714  0.0000E+00  0.3200E+02
    -41.490  0.0000E+00  0.3200E+02
    -41.266  0.0000E+00  0.3200E+02
    -41.042  0.0000E+00  0.3200E+02
    -40.819  0.0000E+00  0.3200E+02
    -40.595  0.0000E+00  0.3200E+02
    -40.371  0.0000E+00  0.3200E+02
    -40.147  0.0000E+00  0.3200E+02
    -39.923  0.0000E+00  0.3200E+02
    -39.700  0.0000E+00  0.3200E+02
    -39.476  0.0000E+00  0.3200E+02
    -39.252  0.0000E+00  0.3200E+02
    -39.028  0.0000E+00  0.3200E+02
    -38.804  0.0000E+00  0.3200E+02
    -38.581  0.0000E+00  0.3200E+02
    -38.357  0.0000E+00  0.3200E+02
    -38.133  0.0000E+00  0.3200E+02
    -37.909  0.0000E+00  0.3200E+02
    -37.685  0.0000E+00  0.3200E+02
    -37.462  0.0000E+00  0.3200E+02
    -37.238  0.0000E+00  0.3200E+02
    -37.014  0.0000E+00  0.3200E+02
    -36.790  0.0000E+00  0.3200E+02
    -36.566  0.0000E+00  0.3200E+02
    -36.343  0.0000E+00  0.3200E+02
    -36.119  0.0000E+00  0.3200E+02
    -35.895  0.0000E+00  0.3200E+02
    -35.671  0.0000E+00  0.3200E+02
    -35.447  0.0000E+00  0.3200E+02
    -35.224  0.0000E+00  0.3200E+02
    -35.000  0.0000E+00  0.3200E+02
    -34.776  0.0000E+00  0.3200E+02
    -34.552  0.0000E+00  0.3200E+02
    -34.328  0.0000E+00  0.3200E+02
    -34.105 -0.7949E-34  0.3200E+02
    -33.881 -0.1365E-18  0.3200E+02
    -33.657 -0.9771E-08  0.3200E+02
    -33.433 -0.2901E-01  0.3199E+02
    -33.209  0.6363E+01  0.3342E+02
    -32.986  0.3041E+02  0.4022E+02
    -32.762  0.3580E+02  0.4823E+02
    -32.538  0.1848E+03  0.8960E+02
    -32.314  0.1348E+03  0.1198E+03
    -32.090  0.3602E+02  0.1278E+03
    -31.867  0.7248E+00  0.1280E+03
    -31.643 -0.5329E-02  0.1280E+03
    -31.419 -0.1121E-08  0.1280E+03
    -31.195  0.0000E+00  0.1280E+03
    -30.971  0.0000E+00  0.1280E+03
    -30.748  0.0000E+00  0.1280E+03
    -30.524  0.0000E+00  0.1280E+03
    -30.300  0.0000E+00  0.1280E+03
    -30.076  0.0000E+00  0.1280E+03
    -29.852  0.0000E+00  0.1280E+03
    -29.629  0.0000E+00  0.1280E+03
    -29.405  0.0000E+00  0.1280E+03
    -29.181  0.0000E+00  0.1280E+03
    -28.957  0.0000E+00  0.1280E+03
    -28.733  0.0000E+00  0.1280E+03
    -28.510  0.0000E+00  0.1280E+03
    -28.286  0.0000E+00  0.1280E+03
    -28.062  0.0000E+00  0.1280E+03
    -27.838  0.0000E+00  0.1280E+03
    -27.614  0.0000E+00  0.1280E+03
    -27.391  0.0000E+00  0.1280E+03
    -27.167  0.0000E+00  0.1280E+03
    -26.943  0.0000E+00  0.1280E+03
    -26.719  0.0000E+00  0.1280E+03
    -26.495  0.0000E+00  0.1280E+03
    -26.272  0.0000E+00  0.1280E+03
    -26.048  0.0000E+00  0.1280E+03
    -25.824  0.0000E+00  0.1280E+03
    -25.600  0.0000E+00  0.1280E+03
    -25.376  0.0000E+00  0.1280E+03
    -25.153  0.0000E+00  0.1280E+03
    -24.929  0.0000E+00  0.1280E+03
    -24.705  0.0000E+00  0.1280E+03
    -24.481  0.0000E+00  0.1280E+03
    -24.257  0.0000E+00  0.1280E+03
    -24.034  0.0000E+00  0.1280E+03
    -23.810  0.0000E+00  0.1280E+03
    -23.586  0.0000E+00  0.1280E+03
    -23.362  0.0000E+00  0.1280E+03
    -23.138  0.0000E+00  0.1280E+03
    -22.915  0.0000E+00  0.1280E+03
    -22.691  0.0000E+00  0.1280E+03
    -22.467  0.0000E+00  0.1280E+03
    -22.243  0.0000E+00  0.1280E+03
    -22.019  0.0000E+00  0.1280E+03
    -21.796  0.0000E+00  0.1280E+03
    -21.572  0.0000E+00  0.1280E+03
    -21.348  0.0000E+00  0.1280E+03
    -21.124  0.0000E+00  0.1280E+03
    -20.900  0.0000E+00  0.1280E+03
    -20.677  0.0000E+00  0.1280E+03
    -20.453  0.0000E+00  0.1280E+03
    -20.229  0.0000E+00  0.1280E+03
    -20.005  0.0000E+00  0.1280E+03
    -19.781  0.0000E+00  0.1280E+03
    -19.558  0.0000E+00  0.1280E+03
    -19.334  0.0000E+00  0.1280E+03
    -19.110  0.0000E+00  0.1280E+03
    -18.886  0.0000E+00  0.1280E+03
    -18.662  0.0000E+00  0.1280E+03
    -18.439  0.0000E+00  0.1280E+03
    -18.215  0.0000E+00  0.1280E+03
    -17.991  0.0000E+00  0.1280E+03
    -17.767  0.0000E+00  0.1280E+03
    -17.543  0.0000E+00  0.1280E+03
    -17.320  0.0000E+00  0.1280E+03
    -17.096  0.0000E+00  0.1280E+03
    -16.872  0.0000E+00  0.1280E+03
    -16.648  0.0000E+00  0.1280E+03
    -16.424  0.0000E+00  0.1280E+03
    -16.201  0.0000E+00  0.1280E+03
    -15.977  0.0000E+00  0.1280E+03
    -15.753  0.0000E+00  0.1280E+03
    -15.529  0.0000E+00  0.1280E+03
    -15.305  0.0000E+00  0.1280E+03
    -15.082  0.0000E+00  0.1280E+03
    -14.858 -0.2668E-26  0.1280E+03
    -14.634 -0.6369E-13  0.1280E+03
    -14.410 -0.6041E-04  0.1280E+03
    -14.186 -0.1224E+01  0.1277E+03
    -13.963  0.4680E+02  0.1382E+03
    -13.739  0.4483E+02  0.1482E+03
    -13.515 -0.1049E+01  0.1480E+03
    -13.291 -0.8555E-04  0.1480E+03
    -13.067 -0.2189E-12  0.1480E+03
    -12.844  0.0000E+00  0.1480E+03
    -12.620  0.0000E+00  0.1480E+03
    -12.396  0.0000E+00  0.1480E+03
    -12.172  0.0000E+00  0.1480E+03
    -11.948  0.0000E+00  0.1480E+03
    -11.725  0.0000E+00  0.1480E+03
    -11.501  0.0000E+00  0.1480E+03
    -11.277  0.0000E+00  0.1480E+03
    -11.053  0.0000E+00  0.1480E+03
    -10.829  0.0000E+00  0.1480E+03
    -10.606  0.0000E+00  0.1480E+03
    -10.382  0.0000E+00  0.1480E+03
    -10.158  0.0000E+00  0.1480E+03
     -9.934  0.0000E+00  0.1480E+03
     -9.710  0.0000E+00  0.1480E+03
     -9.487  0.0000E+00  0.1480E+03
     -9.263 -0.1142E-38  0.1480E+03
     -9.039 -0.1593E-22  0.1480E+03
     -8.815 -0.8616E-11  0.1480E+03
     -8.591 -0.1581E-03  0.1480E+03
     -8.368  0.3627E-01  0.1480E+03
     -8.144  0.1877E+01  0.1484E+03
     -7.920  0.2583E+01  0.1490E+03
     -7.696  0.2012E+01  0.1495E+03
     -7.472  0.4406E+01  0.1504E+03
     -7.249  0.2637E+01  0.1510E+03
     -7.025  0.3150E+01  0.1517E+03
     -6.801  0.4798E+01  0.1528E+03
     -6.577  0.5044E+01  0.1539E+03
     -6.353  0.5784E+01  0.1552E+03
     -6.129  0.4858E+01  0.1563E+03
     -5.906  0.6083E+01  0.1577E+03
     -5.682  0.7386E+01  0.1593E+03
     -5.458  0.8286E+01  0.1612E+03
     -5.234  0.6988E+01  0.1628E+03
     -5.010  0.9606E+01  0.1649E+03
     -4.787  0.8960E+01  0.1669E+03
     -4.563  0.9893E+01  0.1691E+03
     -4.339  0.5968E+01  0.1705E+03
     -4.115  0.5394E+01  0.1717E+03
     -3.891  0.8899E+01  0.1737E+03
     -3.668  0.9188E+01  0.1757E+03
     -3.444  0.7179E+01  0.1773E+03
     -3.220  0.8340E+01  0.1792E+03
     -2.996  0.1053E+02  0.1815E+03
     -2.772  0.6032E+01  0.1829E+03
     -2.549  0.1050E+02  0.1852E+03
     -2.325  0.1159E+02  0.1878E+03
     -2.101  0.1287E+02  0.1907E+03
     -1.877  0.1978E+02  0.1951E+03
     -1.653  0.1528E+02  0.1986E+03
     -1.430  0.2202E+02  0.2035E+03
     -1.206  0.2094E+02  0.2082E+03
     -0.982  0.2168E+02  0.2130E+03
     -0.758  0.2406E+02  0.2184E+03
     -0.534  0.2339E+02  0.2237E+03
     -0.311  0.2882E+02  0.2301E+03
     -0.087  0.3348E+02  0.2376E+03
      0.137  0.2792E+02  0.2438E+03
      0.361  0.3910E+02  0.2526E+03
      0.585  0.4605E+02  0.2629E+03
      0.808  0.3208E+02  0.2701E+03
      1.032  0.4451E+02  0.2800E+03
      1.256  0.3938E+02  0.2889E+03
      1.480  0.4526E+02  0.2990E+03
      1.704  0.4280E+02  0.3086E+03
      1.927  0.4178E+02  0.3179E+03
      2.151  0.3488E+02  0.3257E+03
      2.375  0.4751E+02  0.3364E+03
      2.599  0.5236E+02  0.3481E+03
      2.823  0.3503E+02  0.3559E+03
      3.046  0.2953E+02  0.3625E+03
      3.270  0.2442E+02  0.3680E+03
      3.494  0.1960E+02  0.3724E+03
      3.718  0.2183E+02  0.3773E+03
      3.942  0.1674E+02  0.3810E+03
      4.165  0.1162E+02  0.3836E+03
      4.389  0.1782E+01  0.3840E+03
      4.613 -0.2475E-01  0.3840E+03
      4.837 -0.7274E-06  0.3840E+03
      5.061  0.0000E+00  0.3840E+03
      5.284  0.0000E+00  0.3840E+03
      5.508  0.0000E+00  0.3840E+03
      5.732  0.0000E+00  0.3840E+03
      5.956  0.0000E+00  0.3840E+03
      6.180  0.0000E+00  0.3840E+03
      6.403  0.0000E+00  0.3840E+03
      6.627  0.0000E+00  0.3840E+03
      6.851  0.0000E+00  0.3840E+03
      7.075  0.0000E+00  0.3840E+03
      7.299  0.0000E+00  0.3840E+03
