   32   32    1    1
  0.4527679E+02  0.9881350E-09  0.5645286E-09  0.2619871E-08  0.5000000E-15
  1.000000000000000E-004
  CAR 
 unknown system                          
    260      8    192
 
  0.1276756E-14  0.1276756E-14  0.1276756E-14  0.5555556E-01
      1        -56.789876   1.000000
      2        -56.735260   1.000000
      3        -56.421475   1.000000
      4        -56.410438   1.000000
      5        -56.365766   1.000000
      6        -56.354346   1.000000
      7        -56.337213   1.000000
      8        -56.280982   1.000000
      9        -56.257554   1.000000
     10        -56.234165   1.000000
     11        -56.203228   1.000000
     12        -56.200200   1.000000
     13        -56.178519   1.000000
     14        -56.176575   1.000000
     15        -56.145905   1.000000
     16        -56.121343   1.000000
     17        -33.206199   1.000000
     18        -33.168311   1.000000
     19        -33.157814   1.000000
     20        -33.116267   1.000000
     21        -32.971271   1.000000
     22        -32.848738   1.000000
     23        -32.812846   1.000000
     24        -32.795587   1.000000
     25        -32.759493   1.000000
     26        -32.757315   1.000000
     27        -32.724459   1.000000
     28        -32.706558   1.000000
     29        -32.693351   1.000000
     30        -32.691062   1.000000
     31        -32.669755   1.000000
     32        -32.652019   1.000000
     33        -32.650226   1.000000
     34        -32.644433   1.000000
     35        -32.639053   1.000000
     36        -32.638071   1.000000
     37        -32.613524   1.000000
     38        -32.609252   1.000000
     39        -32.603404   1.000000
     40        -32.592258   1.000000
     41        -32.591712   1.000000
     42        -32.579652   1.000000
     43        -32.572834   1.000000
     44        -32.570640   1.000000
     45        -32.551470   1.000000
     46        -32.542982   1.000000
     47        -32.534457   1.000000
     48        -32.524367   1.000000
     49        -32.523039   1.000000
     50        -32.517349   1.000000
     51        -32.514524   1.000000
     52        -32.485625   1.000000
     53        -32.478291   1.000000
     54        -32.460570   1.000000
     55        -32.457307   1.000000
     56        -32.422801   1.000000
     57        -32.405125   1.000000
     58        -32.301727   1.000000
     59        -32.270368   1.000000
     60        -32.233972   1.000000
     61        -32.174958   1.000000
     62        -32.170548   1.000000
     63        -32.136733   1.000000
     64        -32.105122   1.000000
     65        -14.053495   1.000000
     66        -14.047745   1.000000
     67        -14.041481   1.000000
     68        -14.038058   1.000000
     69        -14.000061   1.000000
     70        -13.910623   1.000000
     71        -13.907651   1.000000
     72        -13.902540   1.000000
     73        -13.899421   1.000000
     74        -13.854881   1.000000
     75         -8.314282   1.000000
     76         -7.510537   1.000000
     77         -6.773484   1.000000
     78         -6.615630   1.000000
     79         -6.360159   1.000000
     80         -5.748740   1.000000
     81         -5.447253   1.000000
     82         -5.005517   1.000000
     83         -4.124624   1.000000
     84         -3.911788   1.000000
     85         -3.812046   1.000000
     86         -3.759374   1.000000
     87         -3.698197   1.000000
     88         -3.480989   1.000000
     89         -3.358074   1.000000
     90         -3.099614   1.000000
     91         -2.835238   1.000000
     92         -2.699860   1.000000
     93         -2.618459   1.000000
     94         -2.590201   1.000000
     95         -2.405798   1.000000
     96         -2.220468   1.000000
     97         -2.186171   1.000000
     98         -2.131484   1.000000
     99         -2.026617   1.000000
    100         -1.937913   1.000000
    101         -1.854919   1.000000
    102         -1.760661   1.000000
    103         -1.610635   1.000000
    104         -1.556014   1.000000
    105         -1.524948   1.000000
    106         -1.429427   1.000000
    107         -1.337747   1.000000
    108         -1.170222   1.000000
    109         -1.098857   1.000000
    110         -0.954109   1.000000
    111         -0.913077   1.000000
    112         -0.713891   1.000000
    113         -0.693292   1.000000
    114         -0.585971   1.000000
    115         -0.516463   1.000000
    116         -0.448332   1.000000
    117         -0.408242   1.000000
    118         -0.308540   1.000000
    119         -0.218487   1.000000
    120         -0.182445   1.000000
    121         -0.169155   1.000000
    122         -0.017917   1.000000
    123          0.032503   1.000000
    124          0.050703   1.000000
    125          0.059845   1.000000
    126          0.128915   1.000001
    127          0.196917   1.000045
    128          0.232489   1.000317
    129          0.296225   1.005071
    130          0.358299   1.027076
    131          0.360351   1.027993
    132          0.581796   0.032635
    133          0.584175   0.025109
    134          0.742153  -0.002434
    135          0.780386  -0.000435
    136          0.884063  -0.000001
    137          0.889364  -0.000001
    138          0.959697  -0.000000
    139          0.961495  -0.000000
    140          1.027103  -0.000000
    141          1.032552  -0.000000
    142          1.129149  -0.000000
    143          1.170575  -0.000000
    144          1.305581  -0.000000
    145          1.308407  -0.000000
    146          1.461800  -0.000000
    147          1.462790  -0.000000
    148          1.575879  -0.000000
    149          1.635177  -0.000000
    150          1.649915  -0.000000
    151          1.678846  -0.000000
    152          1.685260  -0.000000
    153          1.743680  -0.000000
    154          1.829424  -0.000000
    155          1.926837  -0.000000
    156          2.144901  -0.000000
    157          2.236093  -0.000000
    158          2.244541  -0.000000
    159          2.258931  -0.000000
    160          2.314492  -0.000000
    161          2.319457  -0.000000
    162          2.390319  -0.000000
    163          2.396264  -0.000000
    164          2.426545  -0.000000
    165          2.470652  -0.000000
    166          2.514993   0.000000
    167          2.543926   0.000000
    168          2.551336   0.000000
    169          2.567970   0.000000
    170          2.580993   0.000000
    171          2.641893   0.000000
    172          2.694722   0.000000
    173          2.715479   0.000000
    174          2.762536   0.000000
    175          2.770321   0.000000
    176          2.789819   0.000000
    177          2.830194   0.000000
    178          2.862312   0.000000
    179          2.898488   0.000000
    180          2.904285   0.000000
    181          3.019041   0.000000
    182          3.087213   0.000000
    183          3.129255   0.000000
    184          3.139841   0.000000
    185          3.193692   0.000000
    186          3.286294   0.000000
    187          3.453531   0.000000
    188          3.521804   0.000000
    189          3.702144   0.000000
    190          3.912632   0.000000
    191          3.929131   0.000000
    192          4.166099   0.000000
 
  0.3333333E+00  0.1276756E-14  0.1332268E-14  0.1111111E+00
      1        -56.789879   1.000000
      2        -56.735258   1.000000
      3        -56.421477   1.000000
      4        -56.410440   1.000000
      5        -56.365765   1.000000
      6        -56.354345   1.000000
      7        -56.337215   1.000000
      8        -56.280981   1.000000
      9        -56.257556   1.000000
     10        -56.234168   1.000000
     11        -56.203230   1.000000
     12        -56.200199   1.000000
     13        -56.178522   1.000000
     14        -56.176574   1.000000
     15        -56.145903   1.000000
     16        -56.121342   1.000000
     17        -33.206203   1.000000
     18        -33.168314   1.000000
     19        -33.157809   1.000000
     20        -33.116266   1.000000
     21        -32.971268   1.000000
     22        -32.848740   1.000000
     23        -32.812842   1.000000
     24        -32.795586   1.000000
     25        -32.759492   1.000000
     26        -32.757310   1.000000
     27        -32.724456   1.000000
     28        -32.706555   1.000000
     29        -32.693364   1.000000
     30        -32.691058   1.000000
     31        -32.669701   1.000000
     32        -32.652023   1.000000
     33        -32.650123   1.000000
     34        -32.644428   1.000000
     35        -32.639059   1.000000
     36        -32.638065   1.000000
     37        -32.613485   1.000000
     38        -32.609654   1.000000
     39        -32.603393   1.000000
     40        -32.592882   1.000000
     41        -32.591606   1.000000
     42        -32.579481   1.000000
     43        -32.571825   1.000000
     44        -32.570621   1.000000
     45        -32.551763   1.000000
     46        -32.543248   1.000000
     47        -32.534885   1.000000
     48        -32.524370   1.000000
     49        -32.523042   1.000000
     50        -32.516503   1.000000
     51        -32.514732   1.000000
     52        -32.485774   1.000000
     53        -32.478124   1.000000
     54        -32.460710   1.000000
     55        -32.457386   1.000000
     56        -32.422688   1.000000
     57        -32.405178   1.000000
     58        -32.301730   1.000000
     59        -32.270371   1.000000
     60        -32.233975   1.000000
     61        -32.174961   1.000000
     62        -32.170551   1.000000
     63        -32.136735   1.000000
     64        -32.105125   1.000000
     65        -14.053495   1.000000
     66        -14.047736   1.000000
     67        -14.041481   1.000000
     68        -14.038063   1.000000
     69        -14.000062   1.000000
     70        -13.910623   1.000000
     71        -13.907646   1.000000
     72        -13.902544   1.000000
     73        -13.899417   1.000000
     74        -13.854881   1.000000
     75         -8.165444   1.000000
     76         -7.713916   1.000000
     77         -7.027551   1.000000
     78         -6.649110   1.000000
     79         -6.005249   1.000000
     80         -5.653137   1.000000
     81         -5.437646   1.000000
     82         -5.038073   1.000000
     83         -4.135410   1.000000
     84         -3.887917   1.000000
     85         -3.724298   1.000000
     86         -3.680970   1.000000
     87         -3.531564   1.000000
     88         -3.347324   1.000000
     89         -3.251529   1.000000
     90         -3.073041   1.000000
     91         -3.026936   1.000000
     92         -2.925590   1.000000
     93         -2.756816   1.000000
     94         -2.622513   1.000000
     95         -2.585170   1.000000
     96         -2.533989   1.000000
     97         -2.358087   1.000000
     98         -2.231496   1.000000
     99         -2.125577   1.000000
    100         -2.003533   1.000000
    101         -1.943202   1.000000
    102         -1.824935   1.000000
    103         -1.617877   1.000000
    104         -1.482237   1.000000
    105         -1.421007   1.000000
    106         -1.197019   1.000000
    107         -1.134633   1.000000
    108         -1.035531   1.000000
    109         -1.005189   1.000000
    110         -0.947377   1.000000
    111         -0.891810   1.000000
    112         -0.701197   1.000000
    113         -0.619368   1.000000
    114         -0.570632   1.000000
    115         -0.509106   1.000000
    116         -0.457416   1.000000
    117         -0.397572   1.000000
    118         -0.346337   1.000000
    119         -0.210288   1.000000
    120         -0.202409   1.000000
    121         -0.125235   1.000000
    122         -0.050813   1.000000
    123         -0.012176   1.000000
    124          0.061456   1.000000
    125          0.168615   1.000008
    126          0.188951   1.000028
    127          0.241070   1.000487
    128          0.257313   1.001046
    129          0.381992   1.035082
    130          0.436370   0.970591
    131          0.450317   0.916693
    132          0.548654   0.195671
    133          0.581311   0.034237
    134          0.780691  -0.000428
    135          0.813472  -0.000075
    136          0.830390  -0.000028
    137          0.879505  -0.000001
    138          0.890625  -0.000000
    139          0.903297  -0.000000
    140          1.013616  -0.000000
    141          1.053446  -0.000000
    142          1.054631  -0.000000
    143          1.224106  -0.000000
    144          1.290389  -0.000000
    145          1.341332  -0.000000
    146          1.355676  -0.000000
    147          1.442270  -0.000000
    148          1.568343  -0.000000
    149          1.592065  -0.000000
    150          1.627615  -0.000000
    151          1.679014  -0.000000
    152          1.761972  -0.000000
    153          1.809754  -0.000000
    154          1.890410  -0.000000
    155          1.942134  -0.000000
    156          2.072743  -0.000000
    157          2.261120  -0.000000
    158          2.264724  -0.000000
    159          2.274011  -0.000000
    160          2.338138  -0.000000
    161          2.351848  -0.000000
    162          2.378818  -0.000000
    163          2.408841  -0.000000
    164          2.441736  -0.000000
    165          2.458424  -0.000000
    166          2.505315  -0.000000
    167          2.522854   0.000000
    168          2.523732   0.000000
    169          2.579814   0.000000
    170          2.594726   0.000000
    171          2.638951   0.000000
    172          2.655323   0.000000
    173          2.696842   0.000000
    174          2.737314   0.000000
    175          2.773650   0.000000
    176          2.825181   0.000000
    177          2.868121   0.000000
    178          2.877131   0.000000
    179          2.890096   0.000000
    180          3.059015   0.000000
    181          3.074765   0.000000
    182          3.087131   0.000000
    183          3.092296   0.000000
    184          3.123700   0.000000
    185          3.285194   0.000000
    186          3.300692   0.000000
    187          3.372384   0.000000
    188          3.489526   0.000000
    189          3.511650   0.000000
    190          3.656540   0.000000
    191          3.793232   0.000000
    192          3.873367   0.000000
 
  0.1276756E-14  0.1666667E+00  0.1276756E-14  0.1111111E+00
      1        -56.786243   1.000000
      2        -56.738942   1.000000
      3        -56.417770   1.000000
      4        -56.406707   1.000000
      5        -56.369522   1.000000
      6        -56.358128   1.000000
      7        -56.333473   1.000000
      8        -56.284773   1.000000
      9        -56.253740   1.000000
     10        -56.230335   1.000000
     11        -56.204068   1.000000
     12        -56.199416   1.000000
     13        -56.180459   1.000000
     14        -56.174717   1.000000
     15        -56.149770   1.000000
     16        -56.125199   1.000000
     17        -33.202971   1.000000
     18        -33.164833   1.000000
     19        -33.161066   1.000000
     20        -33.119769   1.000000
     21        -32.941985   1.000000
     22        -32.845190   1.000000
     23        -32.809252   1.000000
     24        -32.799179   1.000000
     25        -32.763124   1.000000
     26        -32.727559   1.000000
     27        -32.702859   1.000000
     28        -32.695104   1.000000
     29        -32.689340   1.000000
     30        -32.665991   1.000000
     31        -32.661819   1.000000
     32        -32.655321   1.000000
     33        -32.646098   1.000000
     34        -32.641798   1.000000
     35        -32.617402   1.000000
     36        -32.613957   1.000000
     37        -32.609519   1.000000
     38        -32.604408   1.000000
     39        -32.595644   1.000000
     40        -32.588219   1.000000
     41        -32.576268   1.000000
     42        -32.573190   1.000000
     43        -32.568563   1.000000
     44        -32.555354   1.000000
     45        -32.553818   1.000000
     46        -32.540418   1.000000
     47        -32.539147   1.000000
     48        -32.538293   1.000000
     49        -32.528056   1.000000
     50        -32.521093   1.000000
     51        -32.510901   1.000000
     52        -32.489489   1.000000
     53        -32.474610   1.000000
     54        -32.464197   1.000000
     55        -32.453839   1.000000
     56        -32.426556   1.000000
     57        -32.408649   1.000000
     58        -32.333019   1.000000
     59        -32.301550   1.000000
     60        -32.265350   1.000000
     61        -32.207215   1.000000
     62        -32.202752   1.000000
     63        -32.168827   1.000000
     64        -32.137138   1.000000
     65        -14.053611   1.000000
     66        -14.047650   1.000000
     67        -14.040536   1.000000
     68        -14.038170   1.000000
     69        -13.999972   1.000000
     70        -13.910736   1.000000
     71        -13.907293   1.000000
     72        -13.902648   1.000000
     73        -13.898680   1.000000
     74        -13.854842   1.000000
     75         -8.182201   1.000000
     76         -7.395247   1.000000
     77         -6.663161   1.000000
     78         -6.494428   1.000000
     79         -6.260411   1.000000
     80         -5.635633   1.000000
     81         -5.378405   1.000000
     82         -5.089834   1.000000
     83         -4.856465   1.000000
     84         -4.555192   1.000000
     85         -4.309495   1.000000
     86         -3.865618   1.000000
     87         -3.796917   1.000000
     88         -3.723759   1.000000
     89         -3.365583   1.000000
     90         -3.252504   1.000000
     91         -3.113579   1.000000
     92         -2.516132   1.000000
     93         -2.490357   1.000000
     94         -2.443254   1.000000
     95         -2.062648   1.000000
     96         -2.030653   1.000000
     97         -1.963699   1.000000
     98         -1.954691   1.000000
     99         -1.758922   1.000000
    100         -1.727342   1.000000
    101         -1.663500   1.000000
    102         -1.591253   1.000000
    103         -1.491157   1.000000
    104         -1.463570   1.000000
    105         -1.361879   1.000000
    106         -1.260158   1.000000
    107         -1.218835   1.000000
    108         -1.199252   1.000000
    109         -1.040900   1.000000
    110         -0.870140   1.000000
    111         -0.749101   1.000000
    112         -0.681449   1.000000
    113         -0.646404   1.000000
    114         -0.495237   1.000000
    115         -0.456534   1.000000
    116         -0.413194   1.000000
    117         -0.292764   1.000000
    118         -0.228232   1.000000
    119         -0.213230   1.000000
    120         -0.107573   1.000000
    121         -0.094946   1.000000
    122         -0.075397   1.000000
    123         -0.062017   1.000000
    124          0.135031   1.000001
    125          0.144805   1.000002
    126          0.193346   1.000037
    127          0.215458   1.000129
    128          0.325016   1.012739
    129          0.417358   1.015062
    130          0.420070   1.010544
    131          0.451372   0.911820
    132          0.526531   0.358829
    133          0.646549  -0.032822
    134          0.754533  -0.001447
    135          0.768766  -0.000761
    136          0.819936  -0.000052
    137          0.887094  -0.000001
    138          0.910582  -0.000000
    139          0.969016  -0.000000
    140          0.992957  -0.000000
    141          1.116621  -0.000000
    142          1.166008  -0.000000
    143          1.204636  -0.000000
    144          1.240094  -0.000000
    145          1.292722  -0.000000
    146          1.333356  -0.000000
    147          1.429185  -0.000000
    148          1.461802  -0.000000
    149          1.503122  -0.000000
    150          1.586595  -0.000000
    151          1.616846  -0.000000
    152          1.726090  -0.000000
    153          1.776531  -0.000000
    154          1.798192  -0.000000
    155          1.854249  -0.000000
    156          2.028676  -0.000000
    157          2.061565  -0.000000
    158          2.085231  -0.000000
    159          2.147364  -0.000000
    160          2.201024  -0.000000
    161          2.207853  -0.000000
    162          2.259896  -0.000000
    163          2.273265  -0.000000
    164          2.320158  -0.000000
    165          2.342131  -0.000000
    166          2.358226  -0.000000
    167          2.437908  -0.000000
    168          2.439967  -0.000000
    169          2.480524  -0.000000
    170          2.507142  -0.000000
    171          2.509157  -0.000000
    172          2.552928   0.000000
    173          2.592148   0.000000
    174          2.614809   0.000000
    175          2.666794   0.000000
    176          2.770231   0.000000
    177          2.795667   0.000000
    178          2.837993   0.000000
    179          2.862105   0.000000
    180          2.925700   0.000000
    181          3.038850   0.000000
    182          3.043061   0.000000
    183          3.126865   0.000000
    184          3.241076   0.000000
    185          3.391679   0.000000
    186          3.445370   0.000000
    187          3.463414   0.000000
    188          3.573204   0.000000
    189          3.644352   0.000000
    190          3.690202   0.000000
    191          4.032017   0.000000
    192          4.055541   0.000000
 
  0.3333333E+00  0.1666667E+00  0.1332268E-14  0.2222222E+00
      1        -56.786243   1.000000
      2        -56.738941   1.000000
      3        -56.417770   1.000000
      4        -56.406707   1.000000
      5        -56.369522   1.000000
      6        -56.358128   1.000000
      7        -56.333473   1.000000
      8        -56.284773   1.000000
      9        -56.253740   1.000000
     10        -56.230336   1.000000
     11        -56.204067   1.000000
     12        -56.199416   1.000000
     13        -56.180459   1.000000
     14        -56.174717   1.000000
     15        -56.149770   1.000000
     16        -56.125199   1.000000
     17        -33.202970   1.000000
     18        -33.164832   1.000000
     19        -33.161065   1.000000
     20        -33.119767   1.000000
     21        -32.941986   1.000000
     22        -32.845188   1.000000
     23        -32.809246   1.000000
     24        -32.799177   1.000000
     25        -32.763121   1.000000
     26        -32.727559   1.000000
     27        -32.702854   1.000000
     28        -32.695105   1.000000
     29        -32.689346   1.000000
     30        -32.665923   1.000000
     31        -32.661831   1.000000
     32        -32.655325   1.000000
     33        -32.645990   1.000000
     34        -32.641797   1.000000
     35        -32.617368   1.000000
     36        -32.613963   1.000000
     37        -32.609614   1.000000
     38        -32.604703   1.000000
     39        -32.595543   1.000000
     40        -32.588830   1.000000
     41        -32.576133   1.000000
     42        -32.573035   1.000000
     43        -32.567662   1.000000
     44        -32.555658   1.000000
     45        -32.553816   1.000000
     46        -32.540401   1.000000
     47        -32.539398   1.000000
     48        -32.538758   1.000000
     49        -32.528049   1.000000
     50        -32.520235   1.000000
     51        -32.511100   1.000000
     52        -32.489643   1.000000
     53        -32.474443   1.000000
     54        -32.464343   1.000000
     55        -32.453912   1.000000
     56        -32.426438   1.000000
     57        -32.408703   1.000000
     58        -32.333017   1.000000
     59        -32.301548   1.000000
     60        -32.265348   1.000000
     61        -32.207212   1.000000
     62        -32.202751   1.000000
     63        -32.168824   1.000000
     64        -32.137137   1.000000
     65        -14.053611   1.000000
     66        -14.047642   1.000000
     67        -14.040535   1.000000
     68        -14.038177   1.000000
     69        -13.999972   1.000000
     70        -13.910736   1.000000
     71        -13.907288   1.000000
     72        -13.902654   1.000000
     73        -13.898677   1.000000
     74        -13.854843   1.000000
     75         -8.036245   1.000000
     76         -7.591839   1.000000
     77         -6.908935   1.000000
     78         -6.539565   1.000000
     79         -5.901704   1.000000
     80         -5.547604   1.000000
     81         -5.375804   1.000000
     82         -4.999414   1.000000
     83         -4.889537   1.000000
     84         -4.696573   1.000000
     85         -4.299464   1.000000
     86         -3.973000   1.000000
     87         -3.578834   1.000000
     88         -3.545647   1.000000
     89         -3.235372   1.000000
     90         -3.130177   1.000000
     91         -3.042256   1.000000
     92         -2.815278   1.000000
     93         -2.730249   1.000000
     94         -2.514954   1.000000
     95         -2.406613   1.000000
     96         -2.242131   1.000000
     97         -2.171006   1.000000
     98         -1.916130   1.000000
     99         -1.883666   1.000000
    100         -1.837494   1.000000
    101         -1.549269   1.000000
    102         -1.524665   1.000000
    103         -1.491220   1.000000
    104         -1.432070   1.000000
    105         -1.345230   1.000000
    106         -1.120932   1.000000
    107         -1.107538   1.000000
    108         -1.018008   1.000000
    109         -0.956498   1.000000
    110         -0.831361   1.000000
    111         -0.808601   1.000000
    112         -0.638813   1.000000
    113         -0.609513   1.000000
    114         -0.488877   1.000000
    115         -0.438608   1.000000
    116         -0.372948   1.000000
    117         -0.299937   1.000000
    118         -0.258725   1.000000
    119         -0.209402   1.000000
    120         -0.113980   1.000000
    121         -0.094671   1.000000
    122         -0.021330   1.000000
    123          0.087924   1.000000
    124          0.160322   1.000005
    125          0.200423   1.000055
    126          0.233990   1.000342
    127          0.246108   1.000621
    128          0.319041   1.010721
    129          0.432381   0.982536
    130          0.452575   0.906133
    131          0.505841   0.531635
    132          0.513377   0.467910
    133          0.539381   0.259807
    134          0.703434  -0.009702
    135          0.797037  -0.000185
    136          0.839910  -0.000016
    137          0.846060  -0.000011
    138          0.907450  -0.000000
    139          1.001250  -0.000000
    140          1.041520  -0.000000
    141          1.088991  -0.000000
    142          1.112847  -0.000000
    143          1.185956  -0.000000
    144          1.279691  -0.000000
    145          1.282255  -0.000000
    146          1.331691  -0.000000
    147          1.399314  -0.000000
    148          1.524746  -0.000000
    149          1.563996  -0.000000
    150          1.586327  -0.000000
    151          1.620343  -0.000000
    152          1.688273  -0.000000
    153          1.810088  -0.000000
    154          1.859648  -0.000000
    155          1.884929  -0.000000
    156          2.003625  -0.000000
    157          2.052535  -0.000000
    158          2.069226  -0.000000
    159          2.165778  -0.000000
    160          2.204259  -0.000000
    161          2.246666  -0.000000
    162          2.252145  -0.000000
    163          2.305266  -0.000000
    164          2.321576  -0.000000
    165          2.350034  -0.000000
    166          2.377165  -0.000000
    167          2.414009  -0.000000
    168          2.468739  -0.000000
    169          2.484110  -0.000000
    170          2.511792   0.000000
    171          2.520886   0.000000
    172          2.550835   0.000000
    173          2.587879   0.000000
    174          2.617521   0.000000
    175          2.688492   0.000000
    176          2.715889   0.000000
    177          2.795240   0.000000
    178          2.823308   0.000000
    179          2.886916   0.000000
    180          2.912745   0.000000
    181          2.928113   0.000000
    182          3.018320   0.000000
    183          3.067435   0.000000
    184          3.163734   0.000000
    185          3.221084   0.000000
    186          3.307299   0.000000
    187          3.456839   0.000000
    188          3.566893   0.000000
    189          3.630546   0.000000
    190          3.704456   0.000000
    191          3.724011   0.000000
    192          3.906494   0.000000
 
  0.1276756E-14  0.3333333E+00  0.1276756E-14  0.1111111E+00
      1        -56.776296   1.000000
      2        -56.748984   1.000000
      3        -56.407624   1.000000
      4        -56.396493   1.000000
      5        -56.379767   1.000000
      6        -56.368443   1.000000
      7        -56.323233   1.000000
      8        -56.295113   1.000000
      9        -56.243297   1.000000
     10        -56.219849   1.000000
     11        -56.214616   1.000000
     12        -56.191051   1.000000
     13        -56.188979   1.000000
     14        -56.164306   1.000000
     15        -56.160313   1.000000
     16        -56.135715   1.000000
     17        -33.194141   1.000000
     18        -33.169947   1.000000
     19        -33.155330   1.000000
     20        -33.129317   1.000000
     21        -32.861457   1.000000
     22        -32.835493   1.000000
     23        -32.808939   1.000000
     24        -32.799506   1.000000
     25        -32.772892   1.000000
     26        -32.692917   1.000000
     27        -32.679668   1.000000
     28        -32.665751   1.000000
     29        -32.656126   1.000000