       N       E                     dE             d eps       ncg     rms          rms(c)
DAV:   1     0.244363164168E+04    0.24436E+04   -0.12879E+05  3072   0.127E+03
DAV:   2     0.883808249407E+02   -0.23553E+04   -0.22821E+04  3328   0.385E+02
DAV:   3    -0.173768778298E+03   -0.26215E+03   -0.25491E+03  5696   0.113E+02
DAV:   4    -0.212707755950E+03   -0.38939E+02   -0.38592E+02  4864   0.355E+01
DAV:   5    -0.216055223438E+03   -0.33475E+01   -0.33469E+01  4800   0.888E+00    0.390E+01
DAV:   6    -0.323278845905E+03   -0.10722E+03   -0.71505E+02  5120   0.426E+01    0.821E+01
DAV:   7    -0.238749571256E+03    0.84529E+02   -0.49458E+02  5120   0.506E+01    0.572E+01
DAV:   8    -0.202495248842E+03    0.36254E+02   -0.23883E+02  5120   0.370E+01    0.337E+01
DAV:   9    -0.186178838378E+03    0.16316E+02   -0.76814E+01  4608   0.181E+01    0.174E+01
DAV:  10    -0.181303786687E+03    0.48751E+01   -0.15619E+01  4544   0.852E+00    0.109E+01
DAV:  11    -0.180070567274E+03    0.12332E+01   -0.61210E+00  5120   0.660E+00    0.895E+00
DAV:  12    -0.179120710735E+03    0.94986E+00   -0.47406E+00  4608   0.579E+00    0.703E+00
DAV:  13    -0.178820836346E+03    0.29987E+00   -0.35675E+00  4928   0.516E+00    0.498E+00
DAV:  14    -0.178674727808E+03    0.14611E+00   -0.15602E+00  4544   0.271E+00    0.352E+00
DAV:  15    -0.178605860691E+03    0.68867E-01   -0.97646E-01  4608   0.223E+00    0.247E+00
DAV:  16    -0.178566593432E+03    0.39267E-01   -0.34354E-01  5120   0.173E+00    0.170E+00
DAV:  17    -0.178558889262E+03    0.77042E-02   -0.15598E-01  4608   0.132E+00    0.147E+00
DAV:  18    -0.178543777350E+03    0.15112E-01   -0.11765E-01  4608   0.922E-01    0.923E-01
DAV:  19    -0.178537819009E+03    0.59583E-02   -0.28495E-02  4864   0.372E-01    0.488E-01
DAV:  20    -0.178537683138E+03    0.13587E-03   -0.77485E-03  4608   0.373E-01    0.423E-01
DAV:  21    -0.178536661034E+03    0.10221E-02   -0.45559E-03  4608   0.230E-01    0.146E-01
DAV:  22    -0.178537745463E+03   -0.10844E-02   -0.33211E-03  4864   0.113E-01    0.139E-01
DAV:  23    -0.178538559958E+03   -0.81450E-03   -0.13609E-03  4160   0.647E-02    0.670E-02
DAV:  24    -0.178539509701E+03   -0.94974E-03   -0.48717E-04  3840   0.556E-02    0.283E-02
DAV:  25    -0.178540002555E+03   -0.49285E-03   -0.83495E-05  4352   0.186E-02    0.190E-02
DAV:  26    -0.178540425496E+03   -0.42294E-03   -0.70652E-05  3456   0.143E-02    0.100E-02
DAV:  27    -0.178540586904E+03   -0.16141E-03   -0.26026E-05  3904   0.106E-02    0.464E-03
DAV:  28    -0.178540669522E+03   -0.82619E-04   -0.59592E-06  3712   0.360E-03    0.418E-03
DAV:  29    -0.178540743582E+03   -0.74060E-04   -0.48688E-06  3520   0.303E-03    0.191E-03
DAV:  30    -0.178540788180E+03   -0.44597E-04   -0.31846E-06  3456   0.194E-03    0.175E-03
DAV:  31    -0.178540810092E+03   -0.21912E-04   -0.12291E-06  3072   0.143E-03    0.912E-04
DAV:  32    -0.178540833324E+03   -0.23232E-04   -0.83844E-07  2816   0.102E-03    0.536E-04
DAV:  33    -0.178540843364E+03   -0.10040E-04   -0.37570E-07  2816   0.664E-04    0.506E-04
DAV:  34    -0.178540850067E+03   -0.67034E-05   -0.35508E-07  2688   0.527E-04
   1 F= -.17854085E+03 E0= -.17853568E+03  d E =-.154985E-01
