 vasp.6.5.0 16Dec24 (build Apr 17 2025 17:55:45) complex                        
  
 executed on             LinuxIFC date 2025.06.10  11:57:32
 running   64 mpi-ranks, on    1 nodes
 distrk:  each k-point on   64 cores,    1 groups
 distr:  one band on NCORE=   1 cores,   64 groups


--------------------------------------------------------------------------------------------------------


 INCAR:
   ISTART = 0
   ICHARG = 2
   PREC = N
   LREAL = .FALSE.
   ENCUT = 520
   ALGO = N
   NELM = 500
   EDIFF = 1E-05
   IBRION = -1
   ISIF = 3
   NSW = 0
   EDIFFG = -0.01
   ISMEAR = 1
   SIGMA = 0.1
   LVHAR = .TRUE.
   LVTOT = .TRUE.

 POTCAR:    PAW_PBE Ti_sv 26Sep2005               
 POTCAR:    PAW_PBE Ga_d 06Jul2010                
 POTCAR:    PAW_PBE Al 04Jan2001                  
 -----------------------------------------------------------------------------
|                                                                             |
|           W    W    AA    RRRRR   N    N  II  N    N   GGGG   !!!           |
|           W    W   A  A   R    R  NN   N  II  NN   N  G    G  !!!           |
|           W    W  A    A  R    R  N N  N  II  N N  N  G       !!!           |
|           W WW W  AAAAAA  RRRRR   N  N N  II  N  N N  G  GGG   !            |
|           WW  WW  A    A  R   R   N   NN  II  N   NN  G    G                |
|           W    W  A    A  R    R  N    N  II  N    N   GGGG   !!!           |
|                                                                             |
|     For optimal performance we recommend to set                             |
|       NCORE = 2 up to number-of-cores-per-socket                            |
|     NCORE specifies how many cores store one orbital (NPAR=cpu/NCORE).      |
|     This setting can greatly improve the performance of VASP for DFT.       |
|     The default, NCORE=1 might be grossly inefficient on modern             |
|     multi-core architectures or massively parallel machines. Do your        |
|     own testing! More info at https://www.vasp.at/wiki/index.php/NCORE      |
|     Unfortunately you need to use the default for GW and RPA                |
|     calculations (for HF NCORE is supported but not extensively tested      |
|     yet).                                                                   |
|                                                                             |
 -----------------------------------------------------------------------------

 POTCAR:    PAW_PBE Ti_sv 26Sep2005               
   SHA256 =  4d747badb5a5ea28d858fbac70885b3f8929d6fd9e5b0dbe1ecb9878dc164da1 Ti_sv/POTCAR          
   COPYR  = (c) Copyright 26Sep2005 Georg Kresse                                                    
   COPYR  = This file is part of the software VASP. Any use, copying, and all other rights are regul
   COPYR  = If you do not have a valid VASP license, you may not use, copy or distribute this file. 
   VRHFIN =Ti: 3p4s3d                                                                               
   LEXCH  = PE                                                                                      
   EATOM  =  1588.0892 eV,  116.7213 Ry                                                             
                                                                                                    
   TITEL  = PAW_PBE Ti_sv 26Sep2005                                                                 
   LULTRA =        F    use ultrasoft PP ?                                                          
   IUNSCR =        1    unscreen: 0-lin 1-nonlin 2-no                                               
   RPACOR =    2.000    partial core radius                                                         
   POMASS =   47.880; ZVAL   =   12.000    mass and valenz                                          
   RCORE  =    2.300    outmost cutoff radius                                                       
   RWIGS  =    2.300; RWIGS  =    1.217    wigner-seitz radius (au A)                               
   ENMAX  =  274.610; ENMIN  =  205.957 eV                                                          
   ICORE  =        3    local potential                                                             
   LCOR   =        T    correct aug charges                                                         
   LPAW   =        T    paw PP                                                                      
   EAUG   =  482.848                                                                                
   RMAX   =    2.348    core radius for proj-oper                                                   
   RAUG   =    1.300    factor for augmentation sphere                                              
   RDEP   =    2.381    radius for radial grids                                                     
   RDEPT  =    1.930    core radius for aug-charge                                                  
                                                                                                    
   Atomic configuration                                                                             
    8 entries                                                                                       
     n  l   j            E        occ.                                                              
     1  0  0.50     -4865.3608   2.0000                                                             
     2  0  0.50      -533.1368   2.0000                                                             
     2  1  1.50      -440.5031   6.0000                                                             
     3  0  0.50       -59.3186   2.0000                                                             
     4  0  0.50        -3.7291   1.0000                                                             
     3  1  1.50       -35.7012   6.0000                                                             
     3  2  2.50        -1.9157   3.0000                                                             
     4  3  2.50        -1.3606   0.0000                                                             
   Description                                                                                      
     l       E           TYP  RCUT    TYP  RCUT                                                     
     0    -59.3185931     23  1.800                                                                 
     0     -3.7290822     23  2.300                                                                 
     1    -35.7012045     23  2.300                                                                 
     1     -1.3605826     23  2.300                                                                 
     2     -1.9156920     23  2.300                                                                 
     2     -0.0236318     23  2.300                                                                 
     3     -1.3605826     23  2.300                                                                 
  local pseudopotential read in
  partial core-charges read in
  partial kinetic energy density read in
  atomic valenz-charges read in
  non local Contribution for L=           0  read in
    real space projection operators read in
  non local Contribution for L=           0  read in
    real space projection operators read in
  non local Contribution for L=           1  read in
    real space projection operators read in
  non local Contribution for L=           1  read in
    real space projection operators read in
  non local Contribution for L=           2  read in
    real space projection operators read in
  non local Contribution for L=           2  read in
    real space projection operators read in
    PAW grid and wavefunctions read in
 
   number of l-projection  operators is LMAX  =           6
   number of lm-projection operators is LMMAX =          18
 
 POTCAR:    PAW_PBE Ga_d 06Jul2010                
   SHA256 =  a60ddf36e14f00ea098d9e3914b3745f1b7105e68786148f49ae384e44b4226c Ga_d/POTCAR           
   COPYR  = (c) Copyright 06Jul2010 Georg Kresse                                                    
   COPYR  = This file is part of the software VASP. Any use, copying, and all other rights are regul
   COPYR  = If you do not have a valid VASP license, you may not use, copy or distribute this file. 
   VRHFIN =Ga: s2p1                                                                                 
   LEXCH  = PE                                                                                      
   EATOM  =  2148.8298 eV,  157.9345 Ry                                                             
                                                                                                    
   TITEL  = PAW_PBE Ga_d 06Jul2010                                                                  
   LULTRA =        F    use ultrasoft PP ?                                                          
   IUNSCR =        1    unscreen: 0-lin 1-nonlin 2-no                                               
   RPACOR =    1.700    partial core radius                                                         
   POMASS =   69.723; ZVAL   =   13.000    mass and valenz                                          
   RCORE  =    2.300    outmost cutoff radius                                                       
   RWIGS  =    2.300; RWIGS  =    1.217    wigner-seitz radius (au A)                               
   ENMAX  =  282.691; ENMIN  =  212.018 eV                                                          
   ICORE  =        3    local potential                                                             
   LCOR   =        T    correct aug charges                                                         
   LPAW   =        T    paw PP                                                                      
   EAUG   =  490.690                                                                                
   DEXC   =    0.000                                                                                
   RMAX   =    2.341    core radius for proj-oper                                                   
   RAUG   =    1.300    factor for augmentation sphere                                              
   RDEP   =    2.413    radius for radial grids                                                     
   RDEPT  =    1.856    core radius for aug-charge                                                  
                                                                                                    
   Atomic configuration                                                                             
    9 entries                                                                                       
     n  l   j            E        occ.                                                              
     1  0  0.50    -10228.7831   2.0000                                                             
     2  0  0.50     -1262.1604   2.0000                                                             
     2  1  1.50     -1098.6333   6.0000                                                             
     3  0  0.50      -148.1110   2.0000                                                             
     3  1  1.50       -98.8436   6.0000                                                             
     3  2  2.50       -19.1549  10.0000                                                             
     4  0  0.50        -8.9483   2.0000                                                             
     4  1  0.50        -2.5791   1.0000                                                             
     4  3  2.50        -2.7416   0.0000                                                             
   Description                                                                                      
     l       E           TYP  RCUT    TYP  RCUT                                                     
     2    -19.1549037     23  2.300                                                                 
     2     -5.4423304     23  2.300                                                                 
     0     -8.9483111     23  2.300                                                                 
     0     68.0291300     23  2.300                                                                 
     1     -2.5790802     23  2.100                                                                 
     1     81.6349560     23  2.300                                                                 
     3      6.8029130     23  2.300                                                                 
  local pseudopotential read in
  partial core-charges read in
  partial kinetic energy density read in
  atomic valenz-charges read in
  non local Contribution for L=           2  read in
    real space projection operators read in
  non local Contribution for L=           2  read in
    real space projection operators read in
  non local Contribution for L=           0  read in
    real space projection operators read in
  non local Contribution for L=           0  read in
    real space projection operators read in
  non local Contribution for L=           1  read in
    real space projection operators read in
  non local Contribution for L=           1  read in
    real space projection operators read in
    PAW grid and wavefunctions read in
 
   number of l-projection  operators is LMAX  =           6
   number of lm-projection operators is LMMAX =          18
 
 POTCAR:    PAW_PBE Al 04Jan2001                  
   SHA256 =  17880443556af62b473fe41b62a467bd001ad55d2cabe504a3f22e34d4e9db96 Al/POTCAR             
   COPYR  = (c) Copyright 04Jan2001 Georg Kresse                                                    
   COPYR  = This file is part of the software VASP. Any use, copying, and all other rights are regul
   COPYR  = If you do not have a valid VASP license, you may not use, copy or distribute this file. 
   VRHFIN =Al: s2p1                                                                                 
   LEXCH  = PE                                                                                      
   EATOM  =    53.5387 eV,    3.9350 Ry                                                             
                                                                                                    
   TITEL  = PAW_PBE Al 04Jan2001                                                                    
   LULTRA =        F    use ultrasoft PP ?                                                          
   IUNSCR =        1    unscreen: 0-lin 1-nonlin 2-no                                               
   RPACOR =    1.500    partial core radius                                                         
   POMASS =   26.981; ZVAL   =    3.000    mass and valenz                                          
   RCORE  =    1.900    outmost cutoff radius                                                       
   RWIGS  =    2.650; RWIGS  =    1.402    wigner-seitz radius (au A)                               
   ENMAX  =  240.300; ENMIN  =  180.225 eV                                                          
   ICORE  =        2    local potential                                                             
   LCOR   =        T    correct aug charges                                                         
   LPAW   =        T    paw PP                                                                      
   EAUG   =  291.052                                                                                
   DEXC   =    0.000                                                                                
   RMAX   =    1.939    core radius for proj-oper                                                   
   RAUG   =    1.300    factor for augmentation sphere                                              
   RDEP   =    1.966    radius for radial grids                                                     
   RDEPT  =    1.856    core radius for aug-charge                                                  
                                                                                                    
   Atomic configuration                                                                             
    6 entries                                                                                       
     n  l   j            E        occ.                                                              
     1  0  0.50     -1511.1048   2.0000                                                             
     2  0  0.50      -108.1629   2.0000                                                             
     2  1  1.50       -69.6402   6.0000                                                             
     3  0  0.50        -7.7528   2.0000                                                             
     3  1  1.50        -2.7121   1.0000                                                             
     3  2  2.50        -2.7212   0.0000                                                             
   Description                                                                                      
     l       E           TYP  RCUT    TYP  RCUT                                                     
     0     -7.7528455     23  1.900                                                                 
     0     -3.3096929     23  1.900                                                                 
     1     -2.7120682     23  1.900                                                                 
     1     13.6058260     23  1.900                                                                 
     2     -2.7211652      7  1.900                                                                 
  local pseudopotential read in
  partial core-charges read in
  partial kinetic energy density read in
  atomic valenz-charges read in
  non local Contribution for L=           0  read in
    real space projection operators read in
  non local Contribution for L=           0  read in
    real space projection operators read in
  non local Contribution for L=           1  read in
    real space projection operators read in
  non local Contribution for L=           1  read in
    real space projection operators read in
    PAW grid and wavefunctions read in
 
   number of l-projection  operators is LMAX  =           4
   number of lm-projection operators is LMMAX =           8
 
 -----------------------------------------------------------------------------
|                                                                             |
|               ----> ADVICE to this user running VASP <----                  |
|                                                                             |
|     You have a (more or less) 'large supercell' and for larger cells it     |
|     might be more efficient to use real-space projection operators.         |
|     Therefore, try LREAL= Auto in the INCAR file.                           |
|     Mind: For very accurate calculation, you might also keep the            |
|     reciprocal projection scheme (i.e. LREAL=.FALSE.).                      |
|                                                                             |
 -----------------------------------------------------------------------------

  PAW_PBE Ti_sv 26Sep2005               :
 energy of atom  1       EATOM=-1588.0892
 kinetic energy error for atom=    0.0042 (will be added to EATOM!!)
  PAW_PBE Ga_d 06Jul2010                :
 energy of atom  2       EATOM=-2148.8298
 kinetic energy error for atom=    0.0026 (will be added to EATOM!!)
  PAW_PBE Al 04Jan2001                  :
 energy of atom  3       EATOM=  -53.5387
 kinetic energy error for atom=    0.0002 (will be added to EATOM!!)
 
 
 POSCAR: Generated by VASPKIT code
  positions in direct lattice
  No initial velocities read in


 exchange-correlation table for PE
   RHO(1)=    0.500       N(1)  =     2000
   RHO(2)=  100.500       N(2)  =     4000
 


--------------------------------------------------------------------------------------------------------


 ion  position               nearest neighbor table
   1  1.000  0.000  0.322-  17 2.73  21 2.73   5 2.82   5 2.82  26 2.84  30 2.84  20 2.85  24 2.85

   2  0.500  0.000  0.500-  18 2.73  22 2.73  28 2.73  32 2.73   6 2.82   6 2.82  25 2.84  29 2.84
                            19 2.85  23 2.85
   3  0.750  0.000  0.411-  26 2.73  30 2.73  19 2.73  23 2.73   7 2.82   7 2.82  17 2.84  21 2.84
                            28 2.85  32 2.85
   4  0.250  0.000  0.589-  25 2.73  29 2.73   8 2.82   8 2.82  18 2.84  22 2.84  27 2.85  31 2.85

   5  1.000  0.500  0.322-  17 2.73  21 2.73   1 2.82   1 2.82  26 2.84  30 2.84  20 2.85  24 2.85

   6  0.500  0.500  0.500-  18 2.73  22 2.73  28 2.73  32 2.73   2 2.82   2 2.82  25 2.84  29 2.84
                            19 2.85  23 2.85
   7  0.750  0.500  0.411-  26 2.73  30 2.73  19 2.73  23 2.73   3 2.82   3 2.82  17 2.84  21 2.84
                            28 2.85  32 2.85
   8  0.250  0.500  0.589-  25 2.73  29 2.73   4 2.82   4 2.82  18 2.84  22 2.84  27 2.85  31 2.85

   9  0.250  0.000  0.411-  25 2.73  29 2.73  20 2.73  24 2.73  13 2.82  13 2.82  17 2.84  21 2.84
                            28 2.85  32 2.85
  10  0.750  0.000  0.589-  19 2.73  23 2.73  14 2.82  14 2.82  18 2.84  22 2.84  27 2.85  31 2.85

  11  0.000  0.000  0.500-  17 2.73  21 2.73  27 2.73  31 2.73  15 2.82  15 2.82  25 2.84  29 2.84
                            19 2.85  23 2.85
  12  0.500  0.000  0.678-  18 2.73  22 2.73  16 2.82  16 2.82
  13  0.250  0.500  0.411-  25 2.73  29 2.73  20 2.73  24 2.73   9 2.82   9 2.82  17 2.84  21 2.84
                            28 2.85  32 2.85
  14  0.750  0.500  0.589-  19 2.73  23 2.73  10 2.82  10 2.82  18 2.84  22 2.84  27 2.85  31 2.85

  15  0.000  0.500  0.500-  17 2.73  21 2.73  27 2.73  31 2.73  11 2.82  11 2.82  25 2.84  29 2.84
                            19 2.85  23 2.85
  16  0.500  0.500  0.678-  18 2.73  22 2.73  12 2.82  12 2.82
  17  0.000  0.250  0.411-   1 2.73   5 2.73  11 2.73  15 2.73  21 2.82  21 2.82  13 2.84   7 2.84
                             9 2.84   3 2.84
  18  0.500  0.250  0.589-  12 2.73  16 2.73   2 2.73   6 2.73  22 2.82  22 2.82   4 2.84   8 2.84
                            14 2.84  10 2.84
  19  0.750  0.250  0.500-   3 2.73   7 2.73  10 2.73  14 2.73  23 2.82  23 2.82   6 2.85   2 2.85
                            11 2.85  15 2.85  28 3.17  27 3.17
  20  0.250  0.250  0.322-   9 2.73  13 2.73  24 2.82  24 2.82   1 2.85   5 2.85  28 3.17
  21  0.000  0.750  0.411-   1 2.73   5 2.73  11 2.73  15 2.73  17 2.82  17 2.82  13 2.84   7 2.84
                             9 2.84   3 2.84  30 3.17  29 3.17
  22  0.500  0.750  0.589-  12 2.73  16 2.73   2 2.73   6 2.73  18 2.82  18 2.82   4 2.84   8 2.84
                            14 2.84  10 2.84  29 3.17
  23  0.750  0.750  0.500-   3 2.73   7 2.73  10 2.73  14 2.73  19 2.82  19 2.82   6 2.85   2 2.85
                            11 2.85  15 2.85  32 3.17  31 3.17
  24  0.250  0.750  0.322-   9 2.73  13 2.73  20 2.82  20 2.82   1 2.85   5 2.85  32 3.17
  25  0.250  0.250  0.500-   4 2.73   8 2.73   9 2.73  13 2.73  29 2.82  29 2.82  11 2.84  15 2.84
                             6 2.84   2 2.84
  26  0.750  0.250  0.322-   3 2.73   7 2.73  30 2.82  30 2.82   5 2.84   1 2.84
  27  0.000  0.250  0.589-  11 2.73  15 2.73  31 2.82  31 2.82  14 2.85  10 2.85   4 2.85   8 2.85
                            19 3.17
  28  0.500  0.250  0.411-   2 2.73   6 2.73  32 2.82  32 2.82   9 2.85  13 2.85   3 2.85   7 2.85
                            19 3.17  20 3.17
  29  0.250  0.750  0.500-   4 2.73   8 2.73   9 2.73  13 2.73  25 2.82  25 2.82  11 2.84  15 2.84
                             6 2.84   2 2.84  21 3.17  22 3.17
  30  0.750  0.750  0.322-   3 2.73   7 2.73  26 2.82  26 2.82   5 2.84   1 2.84  21 3.17
  31  0.000  0.750  0.589-  11 2.73  15 2.73  27 2.82  27 2.82  14 2.85  10 2.85   4 2.85   8 2.85
                            23 3.17
  32  0.500  0.750  0.411-   2 2.73   6 2.73  28 2.82  28 2.82   9 2.85  13 2.85   3 2.85   7 2.85
                            23 3.17  24 3.17
 
  LATTYP: Found a simple monoclinic cell.
 ALAT       =     9.8813496165
 B/A-ratio  =     0.5713071878
 C/A-ratio  =     2.6513288651
 COS(beta)  =    -0.1309593083
  
  Lattice vectors:
  
 A1 = (   9.8813496165,   0.0000000000,   0.0000000000)
 A2 = (   0.0000000000,   5.6452860611,   0.0000000000)
 A3 = (  -3.4309646087,   0.0000000000,  25.9730774963)


Analysis of symmetry for initial positions (statically):
=====================================================================
 Subroutine PRICEL returns:
 Original cell was already a primitive cell.
 

 Routine SETGRP: Setting up the symmetry group for a 
 simple monoclinic supercell.


 Subroutine GETGRP returns: Found  2 space group operations
 (whereof  1 operations were pure point group operations)
 out of a pool of  4 trial point group operations.


The static configuration has the point symmetry C_1 .
 The point group associated with its full space group is C_1h.


Analysis of symmetry for dynamics (positions and initial velocities):
=====================================================================
 Subroutine PRICEL returns:
 Original cell was already a primitive cell.
 

 Routine SETGRP: Setting up the symmetry group for a 
 simple monoclinic supercell.


 Subroutine GETGRP returns: Found  2 space group operations
 (whereof  1 operations were pure point group operations)
 out of a pool of  4 trial point group operations.


The dynamic configuration has the point symmetry C_1 .
 The point group associated with its full space group is C_1h.


 Subroutine INISYM returns: Found  2 space group operations
 (whereof  1 operations are pure point group operations),
 and found     1 'primitive' translations


----------------------------------------------------------------------------------------

                                     Primitive cell                                     

  volume of cell :    1448.8574

  direct lattice vectors                    reciprocal lattice vectors
     9.881349616  0.000000000  0.000000000     0.101200751 -0.000000000  0.013368312
     0.000000000  5.645286061  0.000000000     0.000000000  0.177138942 -0.000000000
    -3.430964609  0.000000000 25.973077496     0.000000000  0.000000000  0.038501406

  length of vectors
     9.881349616  5.645286061 26.198707464     0.102079889  0.177138942  0.038501406

  position of ions in fractional coordinates (direct lattice)
     0.999789982  0.000197156  0.321829677
     0.499789982  0.000197156  0.500217905
     0.750407174  0.000197156  0.410803591
     0.250407174  0.000197156  0.589191820
     0.999789982  0.499802844  0.321829677
     0.499789982  0.499802844  0.500217905
     0.750407174  0.499802844  0.410803591
     0.250407174  0.499802844  0.589191820
     0.249592826  0.000197156  0.410953451
     0.749592826  0.000197156  0.589341679
     0.000210018  0.000197156  0.499927365
     0.500210018  0.000197156  0.678315593
     0.249592826  0.499802844  0.410953451
     0.749592826  0.499802844  0.589341679
     0.000210018  0.499802844  0.499927365
     0.500210018  0.499802844  0.678315593
     1.000000000  0.250000000  0.410878521
     0.500000000  0.250000000  0.589266749
     0.750000000  0.250000000  0.500072635
     0.250000000  0.250000000  0.321684407
     1.000000000  0.750000000  0.410878521
     0.500000000  0.750000000  0.589266749
     0.750000000  0.750000000  0.500072635
     0.250000000  0.750000000  0.321684407
     0.250000000  0.250000000  0.500072635
     0.750000000  0.250000000  0.321684407
     1.000000000  0.250000000  0.589266749
     0.500000000  0.250000000  0.410878521
     0.250000000  0.750000000  0.500072635
     0.750000000  0.750000000  0.321684407
     1.000000000  0.750000000  0.589266749
     0.500000000  0.750000000  0.410878521

  ion indices of the primitive-cell ions
   primitive index   ion index
                 1           1
                 2           2
                 3           3
                 4           4
                 5           5
                 6           6
                 7           7
                 8           8
                 9           9
                10          10
                11          11
                12          12
                13          13
                14          14
                15          15
                16          16
                17          17
                18          18
                19          19
                20          20
                21          21
                22          22
                23          23
                24          24
                25          25
                26          26
                27          27
                28          28
                29          29
                30          30
                31          31
                32          32

----------------------------------------------------------------------------------------

 
 
 KPOINTS: K-Spacing Value to Generate K-Mesh: 0.03

Automatic generation of k-mesh.
 Grid dimensions read from file:
 generate k-points for:    3    6    1

 Generating k-lattice:

  Cartesian coordinates                     Fractional coordinates (reciprocal lattice)
     0.033733584 -0.000000000  0.004456104     0.333333333  0.000000000 -0.000000000
     0.000000000  0.029523157 -0.000000000     0.000000000  0.166666667 -0.000000000
     0.000000000  0.000000000  0.038501406     0.000000000  0.000000000  1.000000000

  Length of vectors
     0.034026630  0.029523157  0.038501406

  Shift w.r.t. Gamma in fractional coordinates (k-lattice)
     0.000000000  0.000000000  0.000000000

 
 Subroutine IBZKPT returns following result:
 ===========================================
 
 Found      8 irreducible k-points:
 
 Following reciprocal coordinates:
            Coordinates               Weight
  0.000000  0.000000  0.000000      1.000000
  0.333333  0.000000  0.000000      2.000000
  0.000000  0.166667  0.000000      2.000000
  0.333333  0.166667  0.000000      4.000000
  0.000000  0.333333  0.000000      2.000000
  0.333333  0.333333  0.000000      4.000000
  0.000000  0.500000  0.000000      1.000000
  0.333333  0.500000  0.000000      2.000000
 
 Following cartesian coordinates:
            Coordinates               Weight
  0.000000  0.000000  0.000000      1.000000
  0.033734  0.000000  0.004456      2.000000
  0.000000  0.029523  0.000000      2.000000
  0.033734  0.029523  0.004456      4.000000
  0.000000  0.059046  0.000000      2.000000
  0.033734  0.059046  0.004456      4.000000
  0.000000  0.088569  0.000000      1.000000
  0.033734  0.088569  0.004456      2.000000
 


--------------------------------------------------------------------------------------------------------




 Dimension of arrays:
   k-points           NKPTS =      8   k-points in BZ     NKDIM =      8   number of bands    NBANDS=    192
   number of dos      NEDOS =    301   number of ions     NIONS =     32
   non local maximal  LDIM  =      6   non local SUM 2l+1 LMDIM =     18
   total plane-waves  NPLWV = 268800
   max r-space proj   IRMAX =      1   max aug-charges    IRDMAX=   7419
   dimension x,y,z NGX =    56 NGY =   32 NGZ =  150
   dimension x,y,z NGXF=   112 NGYF=   64 NGZF=  300
   support grid    NGXF=   112 NGYF=   64 NGZF=  300
   ions per type =              16   2  14
   NGX,Y,Z   is equivalent  to a cutoff of   9.42,  9.42,  9.52 a.u.
   NGXF,Y,Z  is equivalent  to a cutoff of  18.84, 18.85, 19.04 a.u.

 SYSTEM =  unknown system                          
 POSCAR =  Generated by VASPKIT code               

 Startparameter for this run:
   NWRITE =      2    write-flag & timer
   PREC   = n         normal or accurate (medium, high low for compatibility)
   ISTART =      0    job   : 0-new  1-cont  2-samecut
   ICHARG =      2    charge: 1-file 2-atom 10-const
   ISPIN  =      1    spin polarized calculation?
   LNONCOLLINEAR =      F non collinear calculations
   LSORBIT =      F    spin-orbit coupling
   INIWAV =      1    electr: 0-lowe 1-rand  2-diag
   LASPH  =      F    aspherical Exc in radial PAW
 Electronic Relaxation 1
   ENCUT  =  520.0 eV  38.22 Ry    6.18 a.u.  18.37 10.50 48.71*2*pi/ulx,y,z
   ENINI  =  520.0     initial cutoff
   ENAUG  =  490.7 eV  augmentation charge cutoff
   NELM   =    500;   NELMIN=  2; NELMDL= -5     # of ELM steps 
   EDIFF  = 0.1E-04   stopping-criterion for ELM
   LREAL  =      F    real-space projection
   NLSPLINE    = F    spline interpolate recip. space projectors
   LCOMPAT=      F    compatible to vasp.4.4
   GGA_COMPAT  = T    GGA compatible to vasp.4.4-vasp.4.6
   LMAXPAW     = -100 max onsite density
   LMAXMIX     =    2 max onsite mixed and CHGCAR
   VOSKOWN=      0    Vosko Wilk Nusair interpolation
   ROPT   =    0.00000   0.00000   0.00000
 Ionic relaxation
   EDIFFG = -.1E-01   stopping-criterion for IOM
   NSW    =      0    number of steps for IOM
   NBLOCK =      1;   KBLOCK =      1    inner block; outer block 
   IBRION =     -1    ionic relax: 0-MD 1-quasi-New 2-CG
   NFREE  =      0    steps in history (QN), initial steepest desc. (CG)
   ISIF   =      3    stress and relaxation
   IWAVPR =     10    prediction:  0-non 1-charg 2-wave 3-comb
   ISYM   =      2    0-nonsym 1-usesym 2-fastsym
   LCORR  =      T    Harris-Foulkes like correction to forces

   POTIM  = 0.5000    time-step for ionic-motion
   TEIN   =    0.0    initial temperature
   TEBEG  =    0.0;   TEEND  =   0.0 temperature during run
   SMASS  =  -3.00    Nose mass-parameter (am)
   estimated Nose-frequenzy (Omega)   =  0.10E-29 period in steps = 0.13E+47 mass=  -0.223E-26a.u.
   SCALEE = 1.0000    scale energy and forces
   NPACO  =    256;   APACO  = 10.0  distance and # of slots for P.C.
   PSTRESS=    0.0 pullay stress

  Mass of Ions in am
   POMASS =  47.88 69.72 26.98
  Ionic Valenz
   ZVAL   =  12.00 13.00  3.00
  Atomic Wigner-Seitz radii
   RWIGS  =  -1.00 -1.00 -1.00
  virtual crystal weights 
   VCA    =   1.00  1.00  1.00
   NELECT =     260.0000    total number of electrons
   NUPDOWN=      -1.0000    fix difference up-down

 DOS related values:
   EMIN   =  10.00;   EMAX   =-10.00  energy-range for DOS
   EFERMI =   0.00;   METHOD = LEGACY      
   ISMEAR =     1;   SIGMA  =   0.10  broadening in eV -4-tet -1-fermi 0-gaus
   EFERMI_NEDOS =   21; number of points for ismear=-14 and -15

 Electronic relaxation 2 (details)
   IALGO  =     38    algorithm
   LDIAG  =      T    sub-space diagonalisation (order eigenvalues)
   LSUBROT=      F    optimize rotation matrix (better conditioning)
   TURBO    =      0    0=normal 1=particle mesh
   IRESTART =      0    0=no restart 2=restart with 2 vectors
   NREBOOT  =      0    no. of reboots
   NMIN     =      0    reboot dimension
   EREF     =   0.00    reference energy to select bands
   IMIX   =      4    mixing-type and parameters
     AMIX     =   0.40;   BMIX     =  1.00
     AMIX_MAG =   1.60;   BMIX_MAG =  1.00
     AMIN     =   0.10
     WC   =   100.;   INIMIX=   1;  MIXPRE=   1;  MAXMIX= -45

 Intra band minimization:
   WEIMIN = 0.0000     energy-eigenvalue tresh-hold
   EBREAK =  0.13E-07  absolut break condition
   DEPER  =   0.30     relativ break condition  

   TIME   =   0.40     timestep for ELM

  volume/ion in A,a.u.               =      45.28       305.54
  Fermi-wavevector in a.u.,A,eV,Ry     =   0.923402  1.744976 11.601293  0.852671
  Thomas-Fermi vector in A             =   2.049034
 
 Write flags
   LWAVE        =      T    write WAVECAR
   LDOWNSAMPLE  =      F    k-point downsampling of WAVECAR
   LCHARG       =      T    write CHGCAR
   LVTOT        =      F    write LOCPOT, total local potential
   LVHAR        =      T    write LOCPOT, Hartree potential only
   WRT_POTENTIAL=  hartree ionic  ! write potential to hdf5 file
   LELF         =      F    write electronic localiz. function (ELF)
   LORBIT       =      0    0 simple, 1 ext, 2 COOP (PROOUT), +10 PAW based schemes


 Python interface
   PLUGINS active      =      F    recompile with -DPLUGINS to activate
 
 Dipole corrections
   LMONO      =      F    monopole corrections only (constant potential shift)
   LDIPOL     =      F    correct potential (dipole corrections)
   IDIPOL     =      0    1-x, 2-y, 3-z, 4-all directions 
   EPSILON    =  1.0000000 bulk dielectric constant
   LVACPOTAV  =      F  vacuum potentials using an averaging scheme for the charge density
   VACPOTFLAT =  0.1000000 required flatness to determine vacuum potential
 
Coulomb truncation method
  LTRUNCATE          =      F  Coulomb kernel truncation to be used
  IDIMENSIONALITY    =      3  Dimensionality of cutoff (0 molecules / 2 surfaces)
  ISURFACE           =     -1  Direction of surface normal
  LCOARSEN           =      F  Coarsen the charge grid before padding, preferred

 
 Exchange correlation treatment:
   GGA     = PE    functional components
   XC_C    = 1    coefficients multiplying the functional components
   LIBXC   =     F    Libxc                    
   VOSKOWN =     0    Vosko Wilk Nusair interpolation
   LHFCALC =     F    Hartree Fock is set to
   LHFONE  =     F    Hartree Fock one center treatment
   AEXX    =    0.0000 exact exchange contribution

 Parameters of functionals:
   PE:
     No parameter
 
 Van der Waals corrections
   IVDW    =     0    specifies the selected vdW correction

 Linear response parameters
   LEPSILON=     F    determine dielectric tensor
   LRPA    =     F    only Hartree local field effects (RPA)
   LNABLA  =     F    use nabla operator in PAW spheres
   LVEL    =     F    velocity operator in full k-point grid
   CSHIFT  =0.1000    complex shift for real part using Kramers Kronig
   OMEGAMAX=  -1.0    maximum frequency
   DEG_THRESHOLD= 0.2000000E-02 threshold for treating states as degnerate
   RTIME   =   -0.100 relaxation time in fs
  (WPLASMAI=    0.000 imaginary part of plasma frequency in eV, 0.658/RTIME)
   DFIELD  = 0.0000000 0.0000000 0.0000000 field for delta impulse in time
 
  Optional k-point grid parameters
   LKPOINTS_OPT  =     F    use optional k-point grid
   KPOINTS_OPT_MODE=     1    mode for optional k-point grid
 
 Orbital magnetization related:
   ORBITALMAG=     F  switch on orbital magnetization
   LCHIMAG   =     F  perturbation theory with respect to B field
   DQ        =  0.001000  dq finite difference perturbation B field
   LLRAUG    =     F  two centre corrections for induced B field
   LBONE     =     F  B-component reconstruction in AE one-centre
   LVGVCALC  =     T  calculate vGv susceptibility
   LVGVAPPL  =     F  apply vGv susceptibility instead of pGv for G=0

 Random number generation:
   RANDOM_GENERATOR = DEFAULT
   PCG_SEED         = not used


--------------------------------------------------------------------------------------------------------


 Static calculation
 charge density and potential will be updated during run
 non-spin polarized calculation
 Variant of blocked Davidson
 Davidson routine will perform the subspace rotation
 perform sub-space diagonalisation
    after iterative eigenvector-optimisation
 modified Broyden-mixing scheme, WC =      100.0
 initial mixing is a Kerker type mixing with AMIX =  0.4000 and BMIX =      1.0000
 Hartree-type preconditioning will be used
 using additional bands           62
 reciprocal scheme for non local part
 use partial core corrections
 calculate Harris-corrections to forces 
   (improved forces if not selfconsistent)
 use gradient corrections 
 use of overlap-Matrix (Vanderbilt PP)
 Methfessel and Paxton  Order N= 1 SIGMA  =   0.10


--------------------------------------------------------------------------------------------------------


  energy-cutoff  :      520.00
  volume of cell :     1448.86
      direct lattice vectors                 reciprocal lattice vectors
     9.881349616  0.000000000  0.000000000     0.101200751 -0.000000000  0.013368312
     0.000000000  5.645286061  0.000000000     0.000000000  0.177138942 -0.000000000
    -3.430964609  0.000000000 25.973077496     0.000000000  0.000000000  0.038501406

  length of vectors
     9.881349616  5.645286061 26.198707464     0.102079889  0.177138942  0.038501406


 
 k-points in units of 2pi/SCALE and weight: K-Spacing Value to Generate K-Mesh: 0.03
   0.00000000  0.00000000  0.00000000       0.056
   0.03373358  0.00000000  0.00445610       0.111
   0.00000000  0.02952316  0.00000000       0.111
   0.03373358  0.02952316  0.00445610       0.222
   0.00000000  0.05904631  0.00000000       0.111
   0.03373358  0.05904631  0.00445610       0.222
   0.00000000  0.08856947  0.00000000       0.056
   0.03373358  0.08856947  0.00445610       0.111
 
 k-points in reciprocal lattice and weights: K-Spacing Value to Generate K-Mesh: 0.03
   0.00000000  0.00000000  0.00000000       0.056
   0.33333333  0.00000000  0.00000000       0.111
   0.00000000  0.16666667  0.00000000       0.111
   0.33333333  0.16666667  0.00000000       0.222
   0.00000000  0.33333333  0.00000000       0.111
   0.33333333  0.33333333  0.00000000       0.222
   0.00000000  0.50000000  0.00000000       0.056
   0.33333333  0.50000000  0.00000000       0.111
 
 position of ions in fractional coordinates (direct lattice) 
   0.99978998  0.00019716  0.32182968
   0.49978998  0.00019716  0.50021791
   0.75040717  0.00019716  0.41080359
   0.25040717  0.00019716  0.58919182
   0.99978998  0.49980284  0.32182968
   0.49978998  0.49980284  0.50021791
   0.75040717  0.49980284  0.41080359
   0.25040717  0.49980284  0.58919182
   0.24959283  0.00019716  0.41095345
   0.74959283  0.00019716  0.58934168
   0.00021002  0.00019716  0.49992736
   0.50021002  0.00019716  0.67831559
   0.24959283  0.49980284  0.41095345
   0.74959283  0.49980284  0.58934168
   0.00021002  0.49980284  0.49992736
   0.50021002  0.49980284  0.67831559
   0.00000000  0.25000000  0.41087852
   0.50000000  0.25000000  0.58926675
   0.75000000  0.25000000  0.50007264
   0.25000000  0.25000000  0.32168441
   0.00000000  0.75000000  0.41087852
   0.50000000  0.75000000  0.58926675
   0.75000000  0.75000000  0.50007264
   0.25000000  0.75000000  0.32168441
   0.25000000  0.25000000  0.50007264
   0.75000000  0.25000000  0.32168441
   0.00000000  0.25000000  0.58926675
   0.50000000  0.25000000  0.41087852
   0.25000000  0.75000000  0.50007264
   0.75000000  0.75000000  0.32168441
   0.00000000  0.75000000  0.58926675
   0.50000000  0.75000000  0.41087852
 
 position of ions in cartesian coordinates  (Angst):
   8.77508812  0.00111300  8.35890714
   3.22236962  0.00111300 12.99219842
   6.00558306  0.00111300 10.66983352
   0.45286455  0.00111300 15.30312479
   8.77508812  2.82153003  8.35890714
   3.22236962  2.82153003 12.99219842
   6.00558306  2.82153003 10.66983352
   0.45286455  2.82153003 15.30312479
   1.05634723  0.00111300 10.67372582
   5.38497834  0.00111300 15.30701709
  -1.71315783  0.00111300 12.98465219
   2.61547328  0.00111300 17.61794347
   1.05634723  2.82153003 10.67372582
   5.38497834  2.82153003 15.30701709
  -1.71315783  2.82153003 12.98465219
   2.61547328  2.82153003 17.61794347
  -1.40970966  1.41132152 10.67177967
   2.91892145  1.41132152 15.30507094
   5.69528070  1.41132152 12.98842530
   1.36664959  1.41132152  8.35513403
  -1.40970966  4.23396455 10.67177967
   2.91892145  4.23396455 15.30507094
   5.69528070  4.23396455 12.98842530
   1.36664959  4.23396455  8.35513403
   0.75460589  1.41132152 12.98842530
   6.30732440  1.41132152  8.35513403
  -2.02175336  1.41132152 15.30507094
   3.53096514  1.41132152 10.67177967
   0.75460589  4.23396455 12.98842530
   6.30732440  4.23396455  8.35513403
  -2.02175336  4.23396455 15.30507094
   3.53096514  4.23396455 10.67177967
 


--------------------------------------------------------------------------------------------------------


 k-point     1 :   0.0000 0.0000 0.0000  plane waves:   39029
 k-point     2 :   0.3333 0.0000 0.0000  plane waves:   39055
 k-point     3 :   0.0000 0.1667 0.0000  plane waves:   39055
 k-point     4 :   0.3333 0.1667 0.0000  plane waves:   39040
 k-point     5 :   0.0000 0.3333 0.0000  plane waves:   39041
 k-point     6 :   0.3333 0.3333 0.0000  plane waves:   38984
 k-point     7 :   0.0000 0.5000 0.0000  plane waves:   38936
 k-point     8 :   0.3333 0.5000 0.0000  plane waves:   38922

 maximum and minimum number of plane-waves per node :     39055    38922

 maximum number of plane-waves:     39055
 maximum index in each direction: 
   IXMAX=   18   IYMAX=   10   IZMAX=   48
   IXMIN=  -18   IYMIN=  -10   IZMIN=  -48


 serial   3D FFT for wavefunctions
 parallel 3D FFT for charge:
    minimum data exchange during FFTs selected (reduces bandwidth)


 total amount of memory used by VASP MPI-rank0   216465. kBytes
=======================================================================

   base                                    :      30000. kBytes
   nonl-proj                               :     155164. kBytes
   fftplans                                :       2367. kBytes
   grid                                    :      13250. kBytes
   one-center                              :        497. kBytes
   wavefun                                 :      15187. kBytes
 
     INWAV:  cpu time      0.0000: real time      0.0000
 Broyden mixing: mesh for mixing (old mesh)
   NGX = 37   NGY = 21   NGZ = 97
  (NGX  =112   NGY  = 64   NGZ  =300)
  gives a total of  75369 points

 initial charge density was supplied:
 charge density of overlapping atoms calculated
 number of electron     260.0000000 magnetization 
 keeping initial charge density in first step


--------------------------------------------------------------------------------------------------------


 Maximum index for augmentation-charges          442 (set IRDMAX)


--------------------------------------------------------------------------------------------------------


 First call to EWALD:  gamma=   0.157
 Maximum number of real-space cells   3x   5x   1
 Maximum number of reciprocal cells   2x   2x   6

    FEWALD:  cpu time      0.0015: real time      0.0016


--------------------------------------- Ionic step        1  -------------------------------------------




--------------------------------------- Iteration      1(   1)  ---------------------------------------


    POTLOK:  cpu time      0.0345: real time      0.0345
    SETDIJ:  cpu time      0.0028: real time      0.0028
     EDDAV:  cpu time      5.2305: real time      5.2311
       DOS:  cpu time      0.0004: real time      0.0004
    --------------------------------------------
      LOOP:  cpu time      5.2683: real time      5.2688

 eigenvalue-minimisations  :  3072
 total energy-change (2. order) : 0.2443632E+04  (-0.1287860E+05)
 number of electron     260.0000000 magnetization 
 augmentation part      260.0000000 magnetization 

 Free energy of the ion-electron system (eV)
  ---------------------------------------------------
  alpha Z        PSCENC =       272.35196750
  Ewald energy   TEWEN  =     76616.56415543
  -Hartree energ DENC   =   -102801.59740573
  -exchange      EXHF   =         0.00000000
  -V(xc)+E(xc)   XCENC  =       705.34026255
  PAW double counting   =     24366.15670160   -24272.54104771
  entropy T*S    EENTRO =        -0.00501735
  eigenvalues    EBANDS =     -2899.19058451
  atomic energy  EATOM  =     30456.55260990
  Solvation  Ediel_sol  =         0.00000000
  ---------------------------------------------------
  free energy    TOTEN  =      2443.63164168 eV

  energy without entropy =     2443.63665903  energy(sigma->0) =     2443.63331413


--------------------------------------------------------------------------------------------------------




--------------------------------------- Iteration      1(   2)  ---------------------------------------


     EDDAV:  cpu time      5.6647: real time      5.6649
       DOS:  cpu time      0.0004: real time      0.0004
    --------------------------------------------
      LOOP:  cpu time      5.6651: real time      5.6653

 eigenvalue-minimisations  :  3328
 total energy-change (2. order) :-0.2355251E+04  (-0.2282119E+04)
 number of electron     260.0000000 magnetization 
 augmentation part      260.0000000 magnetization 

 Free energy of the ion-electron system (eV)
  ---------------------------------------------------
  alpha Z        PSCENC =       272.35196750
  Ewald energy   TEWEN  =     76616.56415543
  -Hartree energ DENC   =   -102801.59740573
  -exchange      EXHF   =         0.00000000
  -V(xc)+E(xc)   XCENC  =       705.34026255
  PAW double counting   =     24366.15670160   -24272.54104771
  entropy T*S    EENTRO =         0.00042901
  eigenvalues    EBANDS =     -5254.44684761
  atomic energy  EATOM  =     30456.55260990
  Solvation  Ediel_sol  =         0.00000000
  ---------------------------------------------------
  free energy    TOTEN  =        88.38082494 eV

  energy without entropy =       88.38039593  energy(sigma->0) =       88.38068194


--------------------------------------------------------------------------------------------------------




--------------------------------------- Iteration      1(   3)  ---------------------------------------


     EDDAV:  cpu time     10.2853: real time     10.2859
       DOS:  cpu time      0.0004: real time      0.0004
    --------------------------------------------
      LOOP:  cpu time     10.2856: real time     10.2862

 eigenvalue-minimisations  :  5696
 total energy-change (2. order) :-0.2621496E+03  (-0.2549142E+03)
 number of electron     260.0000000 magnetization 
 augmentation part      260.0000000 magnetization 

 Free energy of the ion-electron system (eV)
  ---------------------------------------------------
  alpha Z        PSCENC =       272.35196750
  Ewald energy   TEWEN  =     76616.56415543
  -Hartree energ DENC   =   -102801.59740573
  -exchange      EXHF   =         0.00000000
  -V(xc)+E(xc)   XCENC  =       705.34026255
  PAW double counting   =     24366.15670160   -24272.54104771
  entropy T*S    EENTRO =        -0.00127748
  eigenvalues    EBANDS =     -5516.59474435
  atomic energy  EATOM  =     30456.55260990
  Solvation  Ediel_sol  =         0.00000000
  ---------------------------------------------------
  free energy    TOTEN  =      -173.76877830 eV

  energy without entropy =     -173.76750081  energy(sigma->0) =     -173.76835247


--------------------------------------------------------------------------------------------------------




--------------------------------------- Iteration      1(   4)  ---------------------------------------


     EDDAV:  cpu time      8.5772: real time      8.5779
       DOS:  cpu time      0.0004: real time      0.0004
    --------------------------------------------
      LOOP:  cpu time      8.5776: real time      8.5782

 eigenvalue-minimisations  :  4864
 total energy-change (2. order) :-0.3893898E+02  (-0.3859235E+02)
 number of electron     260.0000000 magnetization 
 augmentation part      260.0000000 magnetization 

 Free energy of the ion-electron system (eV)
  ---------------------------------------------------
  alpha Z        PSCENC =       272.35196750
  Ewald energy   TEWEN  =     76616.56415543
  -Hartree energ DENC   =   -102801.59740573
  -exchange      EXHF   =         0.00000000
  -V(xc)+E(xc)   XCENC  =       705.34026255
  PAW double counting   =     24366.15670160   -24272.54104771
  entropy T*S    EENTRO =         0.00763864
  eigenvalues    EBANDS =     -5555.54263813
  atomic energy  EATOM  =     30456.55260990
  Solvation  Ediel_sol  =         0.00000000
  ---------------------------------------------------
  free energy    TOTEN  =      -212.70775595 eV

  energy without entropy =     -212.71539459  energy(sigma->0) =     -212.71030216


--------------------------------------------------------------------------------------------------------




--------------------------------------- Iteration      1(   5)  ---------------------------------------


     EDDAV:  cpu time      8.5024: real time      8.5028
       DOS:  cpu time      0.0004: real time      0.0004
    CHARGE:  cpu time      0.1005: real time      0.1005
    MIXING:  cpu time      0.0012: real time      0.0011
    --------------------------------------------
      LOOP:  cpu time      8.6044: real time      8.6048

 eigenvalue-minimisations  :  4800
 total energy-change (2. order) :-0.3347467E+01  (-0.3346869E+01)
 number of electron     259.9999464 magnetization 
 augmentation part       71.5201191 magnetization 

 Broyden mixing:
  rms(total) = 0.39031E+01    rms(broyden)= 0.39031E+01
  rms(prec ) = 0.44700E+01
  weight for this iteration     100.00

 Free energy of the ion-electron system (eV)
  ---------------------------------------------------
  alpha Z        PSCENC =       272.35196750
  Ewald energy   TEWEN  =     76616.56415543
  -Hartree energ DENC   =   -102801.59740573
  -exchange      EXHF   =         0.00000000
  -V(xc)+E(xc)   XCENC  =       705.34026255
  PAW double counting   =     24366.15670160   -24272.54104771
  entropy T*S    EENTRO =         0.00831214
  eigenvalues    EBANDS =     -5558.89077912
  atomic energy  EATOM  =     30456.55260990
  Solvation  Ediel_sol  =         0.00000000
  ---------------------------------------------------
  free energy    TOTEN  =      -216.05522344 eV

  energy without entropy =     -216.06353558  energy(sigma->0) =     -216.05799415


--------------------------------------------------------------------------------------------------------




--------------------------------------- Iteration      1(   6)  ---------------------------------------


    POTLOK:  cpu time      0.0321: real time      0.0321
    SETDIJ:  cpu time      0.0025: real time      0.0025
     EDDAV:  cpu time      9.3419: real time      9.3422
       DOS:  cpu time      0.0004: real time      0.0004
    CHARGE:  cpu time      0.0974: real time      0.0974
    MIXING:  cpu time      0.0011: real time      0.0011
    --------------------------------------------
      LOOP:  cpu time      9.4754: real time      9.4758

 eigenvalue-minimisations  :  5120
 total energy-change (2. order) :-0.1072236E+03  (-0.7150459E+02)
 number of electron     259.9999412 magnetization 
 augmentation part       85.8778381 magnetization 

 Broyden mixing:
  rms(total) = 0.82060E+01    rms(broyden)= 0.82059E+01
  rms(prec ) = 0.11768E+02
  weight for this iteration     100.00

 eigenvalues of (default mixing * dielectric matrix)
  average eigenvalue GAMMA=   0.2787
  0.2787

 Free energy of the ion-electron system (eV)
  ---------------------------------------------------
  alpha Z        PSCENC =       272.35196750
  Ewald energy   TEWEN  =     76616.56415543
  -Hartree energ DENC   =   -102748.06669242
  -exchange      EXHF   =         0.00000000
  -V(xc)+E(xc)   XCENC  =       683.01251374
  PAW double counting   =     26070.02945219   -25985.60207333
  entropy T*S    EENTRO =         0.00998547
  eigenvalues    EBANDS =     -5688.13076438
  atomic energy  EATOM  =     30456.55260990
  Solvation  Ediel_sol  =         0.00000000
  ---------------------------------------------------
  free energy    TOTEN  =      -323.27884591 eV

  energy without entropy =     -323.28883137  energy(sigma->0) =     -323.28217439


--------------------------------------------------------------------------------------------------------




--------------------------------------- Iteration      1(   7)  ---------------------------------------


    POTLOK:  cpu time      0.0332: real time      0.0333
    SETDIJ:  cpu time      0.0024: real time      0.0024
     EDDAV:  cpu time      9.3446: real time      9.3463
       DOS:  cpu time      0.0004: real time      0.0004
    CHARGE:  cpu time      0.0973: real time      0.0973
    MIXING:  cpu time      0.0011: real time      0.0011
    --------------------------------------------
      LOOP:  cpu time      9.4789: real time      9.4807

 eigenvalue-minimisations  :  5120
 total energy-change (2. order) : 0.8452927E+02  (-0.4945822E+02)
 number of electron     259.9999421 magnetization 
 augmentation part       82.0072095 magnetization 

 Broyden mixing:
  rms(total) = 0.57212E+01    rms(broyden)= 0.57210E+01
  rms(prec ) = 0.88776E+01
  weight for this iteration     100.00

 eigenvalues of (default mixing * dielectric matrix)
  average eigenvalue GAMMA=   0.3029
  0.4610  0.1448

 Free energy of the ion-electron system (eV)
  ---------------------------------------------------
  alpha Z        PSCENC =       272.35196750
  Ewald energy   TEWEN  =     76616.56415543
  -Hartree energ DENC   =   -102692.26754931
  -exchange      EXHF   =         0.00000000
  -V(xc)+E(xc)   XCENC  =       688.20231416
  PAW double counting   =     26396.04380183   -26306.02023643
  entropy T*S    EENTRO =         0.00448539
  eigenvalues    EBANDS =     -5670.18111972
  atomic energy  EATOM  =     30456.55260990
  Solvation  Ediel_sol  =         0.00000000
  ---------------------------------------------------
  free energy    TOTEN  =      -238.74957126 eV

  energy without entropy =     -238.75405665  energy(sigma->0) =     -238.75106639


--------------------------------------------------------------------------------------------------------




--------------------------------------- Iteration      1(   8)  ---------------------------------------


    POTLOK:  cpu time      0.0329: real time      0.0329
    SETDIJ:  cpu time      0.0025: real time      0.0025
     EDDAV:  cpu time      9.3314: real time      9.3321
       DOS:  cpu time      0.0004: real time      0.0004
    CHARGE:  cpu time      0.0979: real time      0.0979
    MIXING:  cpu time      0.0014: real time      0.0014
    --------------------------------------------
      LOOP:  cpu time      9.4665: real time      9.4673

 eigenvalue-minimisations  :  5120
 total energy-change (2. order) : 0.3625432E+02  (-0.2388336E+02)
 number of electron     259.9999402 magnetization 
 augmentation part       77.8776894 magnetization 

 Broyden mixing:
  rms(total) = 0.33652E+01    rms(broyden)= 0.33651E+01
  rms(prec ) = 0.44638E+01
  weight for this iteration     100.00

 eigenvalues of (default mixing * dielectric matrix)
  average eigenvalue GAMMA=   0.3596
  0.7342  0.2145  0.1301

 Free energy of the ion-electron system (eV)
  ---------------------------------------------------
  alpha Z        PSCENC =       272.35196750
  Ewald energy   TEWEN  =     76616.56415543
  -Hartree energ DENC   =   -102714.80232614
  -exchange      EXHF   =         0.00000000
  -V(xc)+E(xc)   XCENC  =       692.30234625
  PAW double counting   =     26780.43261004   -26684.89525229
  entropy T*S    EENTRO =        -0.01120820
  eigenvalues    EBANDS =     -5620.99015133
  atomic energy  EATOM  =     30456.55260990
  Solvation  Ediel_sol  =         0.00000000
  ---------------------------------------------------
  free energy    TOTEN  =      -202.49524884 eV

  energy without entropy =     -202.48404065  energy(sigma->0) =     -202.49151278


--------------------------------------------------------------------------------------------------------




--------------------------------------- Iteration      1(   9)  ---------------------------------------


    POTLOK:  cpu time      0.0325: real time      0.0325
    SETDIJ:  cpu time      0.0025: real time      0.0025
     EDDAV:  cpu time      8.1970: real time      8.1974
       DOS:  cpu time      0.0004: real time      0.0004
    CHARGE:  cpu time      0.0990: real time      0.0991
    MIXING:  cpu time      0.0013: real time      0.0013
    --------------------------------------------
      LOOP:  cpu time      8.3328: real time      8.3333

 eigenvalue-minimisations  :  4608
 total energy-change (2. order) : 0.1631641E+02  (-0.7681394E+01)
 number of electron     259.9999439 magnetization 
 augmentation part       74.0412944 magnetization 

 Broyden mixing:
  rms(total) = 0.17400E+01    rms(broyden)= 0.17399E+01
  rms(prec ) = 0.19874E+01
  weight for this iteration     100.00

 eigenvalues of (default mixing * dielectric matrix)
  average eigenvalue GAMMA=   0.4089
  1.0111  0.2791  0.2186  0.1269

 Free energy of the ion-electron system (eV)
  ---------------------------------------------------
  alpha Z        PSCENC =       272.35196750
  Ewald energy   TEWEN  =     76616.56415543
  -Hartree energ DENC   =   -102934.02145832
  -exchange      EXHF   =         0.00000000
  -V(xc)+E(xc)   XCENC  =       694.59538469
  PAW double counting   =     27334.24255808   -27232.44250465
  entropy T*S    EENTRO =        -0.00397640
  eigenvalues    EBANDS =     -5394.01757460
  atomic energy  EATOM  =     30456.55260990
  Solvation  Ediel_sol  =         0.00000000
  ---------------------------------------------------
  free energy    TOTEN  =      -186.17883838 eV

  energy without entropy =     -186.17486197  energy(sigma->0) =     -186.17751291


--------------------------------------------------------------------------------------------------------




--------------------------------------- Iteration      1(  10)  ---------------------------------------


    POTLOK:  cpu time      0.0327: real time      0.0328
    SETDIJ:  cpu time      0.0025: real time      0.0025
     EDDAV:  cpu time      8.0381: real time      8.0385
       DOS:  cpu time      0.0004: real time      0.0004
    CHARGE:  cpu time      0.1003: real time      0.1003
    MIXING:  cpu time      0.0013: real time      0.0013
    --------------------------------------------
      LOOP:  cpu time      8.1752: real time      8.1757

 eigenvalue-minimisations  :  4544
 total energy-change (2. order) : 0.4875052E+01  (-0.1561946E+01)
 number of electron     259.9999430 magnetization 
 augmentation part       74.4130550 magnetization 

 Broyden mixing:
  rms(total) = 0.10948E+01    rms(broyden)= 0.10948E+01
  rms(prec ) = 0.12007E+01
  weight for this iteration     100.00

 eigenvalues of (default mixing * dielectric matrix)
  average eigenvalue GAMMA=   0.4920
  1.4063  0.3690  0.3690  0.1268  0.1888

 Free energy of the ion-electron system (eV)
  ---------------------------------------------------
  alpha Z        PSCENC =       272.35196750
  Ewald energy   TEWEN  =     76616.56415543
  -Hartree energ DENC   =   -102863.31663796
  -exchange      EXHF   =         0.00000000
  -V(xc)+E(xc)   XCENC  =       692.72536396
  PAW double counting   =     27708.90837734   -27602.61785703
  entropy T*S    EENTRO =        -0.00339453
  eigenvalues    EBANDS =     -5462.46837130
  atomic energy  EATOM  =     30456.55260990
  Solvation  Ediel_sol  =         0.00000000
  ---------------------------------------------------
  free energy    TOTEN  =      -181.30378669 eV

  energy without entropy =     -181.30039216  energy(sigma->0) =     -181.30265518


--------------------------------------------------------------------------------------------------------




--------------------------------------- Iteration      1(  11)  ---------------------------------------


    POTLOK:  cpu time      0.0329: real time      0.0329
    SETDIJ:  cpu time      0.0024: real time      0.0024
     EDDAV:  cpu time      9.0403: real time      9.0410
       DOS:  cpu time      0.0004: real time      0.0004
    CHARGE:  cpu time      0.1005: real time      0.1005
    MIXING:  cpu time      0.0014: real time      0.0014
    --------------------------------------------
      LOOP:  cpu time      9.1779: real time      9.1786

 eigenvalue-minimisations  :  5120
 total energy-change (2. order) : 0.1233219E+01  (-0.6121024E+00)
 number of electron     259.9999425 magnetization 
 augmentation part       75.2912267 magnetization 

 Broyden mixing:
  rms(total) = 0.89480E+00    rms(broyden)= 0.89479E+00
  rms(prec ) = 0.10394E+01
  weight for this iteration     100.00

 eigenvalues of (default mixing * dielectric matrix)
  average eigenvalue GAMMA=   0.5514
  1.7054  0.5235  0.5235  0.1268  0.2147  0.2147

 Free energy of the ion-electron system (eV)
  ---------------------------------------------------
  alpha Z        PSCENC =       272.35196750
  Ewald energy   TEWEN  =     76616.56415543
  -Hartree energ DENC   =   -102807.27405430
  -exchange      EXHF   =         0.00000000
  -V(xc)+E(xc)   XCENC  =       690.70843542
  PAW double counting   =     28070.53908547   -27959.31131542
  entropy T*S    EENTRO =        -0.01404098
  eigenvalues    EBANDS =     -5520.18741030
  atomic energy  EATOM  =     30456.55260990
  Solvation  Ediel_sol  =         0.00000000
  ---------------------------------------------------
  free energy    TOTEN  =      -180.07056727 eV

  energy without entropy =     -180.05652630  energy(sigma->0) =     -180.06588695


--------------------------------------------------------------------------------------------------------




--------------------------------------- Iteration      1(  12)  ---------------------------------------


    POTLOK:  cpu time      0.0323: real time      0.0323
    SETDIJ:  cpu time      0.0025: real time      0.0025
     EDDAV:  cpu time      8.1756: real time      8.1765
       DOS:  cpu time      0.0004: real time      0.0004
    CHARGE:  cpu time      0.0994: real time      0.0994
    MIXING:  cpu time      0.0015: real time      0.0015
    --------------------------------------------
      LOOP:  cpu time      8.3116: real time      8.3125

 eigenvalue-minimisations  :  4608
 total energy-change (2. order) : 0.9498565E+00  (-0.4740566E+00)
 number of electron     259.9999417 magnetization 
 augmentation part       76.0472024 magnetization 

 Broyden mixing:
  rms(total) = 0.70327E+00    rms(broyden)= 0.70326E+00
  rms(prec ) = 0.82862E+00
  weight for this iteration     100.00

 eigenvalues of (default mixing * dielectric matrix)
  average eigenvalue GAMMA=   0.5659
  1.7461  0.9311  0.4507  0.3108  0.1268  0.1979  0.1979

 Free energy of the ion-electron system (eV)
  ---------------------------------------------------
  alpha Z        PSCENC =       272.35196750
  Ewald energy   TEWEN  =     76616.56415543
  -Hartree energ DENC   =   -102802.84721340
  -exchange      EXHF   =         0.00000000
  -V(xc)+E(xc)   XCENC  =       689.27796571
  PAW double counting   =     28485.79077622   -28365.67387228
  entropy T*S    EENTRO =        -0.02054765
  eigenvalues    EBANDS =     -5531.11655216
  atomic energy  EATOM  =     30456.55260990
  Solvation  Ediel_sol  =         0.00000000
  ---------------------------------------------------
  free energy    TOTEN  =      -179.12071073 eV

  energy without entropy =     -179.10016309  energy(sigma->0) =     -179.11386152


--------------------------------------------------------------------------------------------------------




--------------------------------------- Iteration      1(  13)  ---------------------------------------


    POTLOK:  cpu time      0.0325: real time      0.0325
    SETDIJ:  cpu time      0.0024: real time      0.0024
     EDDAV:  cpu time      8.6955: real time      8.6958
       DOS:  cpu time      0.0004: real time      0.0004
    CHARGE:  cpu time      0.0998: real time      0.0998
    MIXING:  cpu time      0.0015: real time      0.0015
    --------------------------------------------
      LOOP:  cpu time      8.8321: real time      8.8324

 eigenvalue-minimisations  :  4928
 total energy-change (2. order) : 0.2998744E+00  (-0.3567510E+00)
 number of electron     259.9999422 magnetization 
 augmentation part       76.0495324 magnetization 

 Broyden mixing:
  rms(total) = 0.49774E+00    rms(broyden)= 0.49771E+00
  rms(prec ) = 0.60369E+00
  weight for this iteration     100.00

 eigenvalues of (default mixing * dielectric matrix)
  average eigenvalue GAMMA=   0.6208
  1.5806  1.5806  0.5343  0.5343  0.1269  0.2203  0.2203  0.1688

 Free energy of the ion-electron system (eV)
  ---------------------------------------------------
  alpha Z        PSCENC =       272.35196750
  Ewald energy   TEWEN  =     76616.56415543
  -Hartree energ DENC   =   -102829.28652045
  -exchange      EXHF   =         0.00000000
  -V(xc)+E(xc)   XCENC  =       689.16104760
  PAW double counting   =     28651.48347451   -28525.91063772
  entropy T*S    EENTRO =        -0.00079011
  eigenvalues    EBANDS =     -5509.73614302
  atomic energy  EATOM  =     30456.55260990
  Solvation  Ediel_sol  =         0.00000000
  ---------------------------------------------------
  free energy    TOTEN  =      -178.82083635 eV

  energy without entropy =     -178.82004624  energy(sigma->0) =     -178.82057298


--------------------------------------------------------------------------------------------------------




--------------------------------------- Iteration      1(  14)  ---------------------------------------


    POTLOK:  cpu time      0.0327: real time      0.0327
    SETDIJ:  cpu time      0.0024: real time      0.0024
     EDDAV:  cpu time      8.0100: real time      8.0103
       DOS:  cpu time      0.0004: real time      0.0004
    CHARGE:  cpu time      0.0998: real time      0.0998
    MIXING:  cpu time      0.0018: real time      0.0018
    --------------------------------------------
      LOOP:  cpu time      8.1470: real time      8.1474

 eigenvalue-minimisations  :  4544
 total energy-change (2. order) : 0.1461085E+00  (-0.1560206E+00)
 number of electron     259.9999420 magnetization 
 augmentation part       76.0904134 magnetization 

 Broyden mixing:
  rms(total) = 0.35218E+00    rms(broyden)= 0.35216E+00
  rms(prec ) = 0.43993E+00
  weight for this iteration     100.00

 eigenvalues of (default mixing * dielectric matrix)
  average eigenvalue GAMMA=   0.6256
  1.7281  1.7281  0.5565  0.5565  0.3398  0.1269  0.2147  0.2147  0.1655

 Free energy of the ion-electron system (eV)
  ---------------------------------------------------
  alpha Z        PSCENC =       272.35196750
  Ewald energy   TEWEN  =     76616.56415543
  -Hartree energ DENC   =   -102831.29912501
  -exchange      EXHF   =         0.00000000
  -V(xc)+E(xc)   XCENC  =       689.25754711
  PAW double counting   =     28717.36354132   -28584.84534297
  entropy T*S    EENTRO =        -0.01581495
  eigenvalues    EBANDS =     -5514.60426614
  atomic energy  EATOM  =     30456.55260990
  Solvation  Ediel_sol  =         0.00000000
  ---------------------------------------------------
  free energy    TOTEN  =      -178.67472781 eV

  energy without entropy =     -178.65891286  energy(sigma->0) =     -178.66945616


--------------------------------------------------------------------------------------------------------




--------------------------------------- Iteration      1(  15)  ---------------------------------------


    POTLOK:  cpu time      0.0329: real time      0.0329
    SETDIJ:  cpu time      0.0024: real time      0.0024
     EDDAV:  cpu time      8.1712: real time      8.1714
       DOS:  cpu time      0.0004: real time      0.0004
    CHARGE:  cpu time      0.0998: real time      0.0998
    MIXING:  cpu time      0.0019: real time      0.0019
    --------------------------------------------
      LOOP:  cpu time      8.3086: real time      8.3088

 eigenvalue-minimisations  :  4608
 total energy-change (2. order) : 0.6886712E-01  (-0.9764622E-01)
 number of electron     259.9999420 magnetization 
 augmentation part       76.0400967 magnetization 

 Broyden mixing:
  rms(total) = 0.24696E+00    rms(broyden)= 0.24695E+00
  rms(prec ) = 0.30559E+00
  weight for this iteration     100.00

 eigenvalues of (default mixing * dielectric matrix)
  average eigenvalue GAMMA=   0.7145
  2.1315  2.1315  0.8901  0.5739  0.5016  0.1269  0.2202  0.2202  0.1869  0.1619

 Free energy of the ion-electron system (eV)
  ---------------------------------------------------
  alpha Z        PSCENC =       272.35196750
  Ewald energy   TEWEN  =     76616.56415543
  -Hartree energ DENC   =   -102840.59388663
  -exchange      EXHF   =         0.00000000
  -V(xc)+E(xc)   XCENC  =       689.41813566
  PAW double counting   =     28722.05952701   -28587.09538043
  entropy T*S    EENTRO =        -0.01948213
  eigenvalues    EBANDS =     -5507.84350700
  atomic energy  EATOM  =     30456.55260990
  Solvation  Ediel_sol  =         0.00000000
  ---------------------------------------------------
  free energy    TOTEN  =      -178.60586069 eV

  energy without entropy =     -178.58637856  energy(sigma->0) =     -178.59936665


--------------------------------------------------------------------------------------------------------




--------------------------------------- Iteration      1(  16)  ---------------------------------------


    POTLOK:  cpu time      0.0323: real time      0.0324
    SETDIJ:  cpu time      0.0025: real time      0.0025
     EDDAV:  cpu time      9.0367: real time      9.0372
       DOS:  cpu time      0.0004: real time      0.0004
    CHARGE:  cpu time      0.0995: real time      0.0995
    MIXING:  cpu time      0.0020: real time      0.0020
    --------------------------------------------
      LOOP:  cpu time      9.1733: real time      9.1739

 eigenvalue-minimisations  :  5120
 total energy-change (2. order) : 0.3926726E-01  (-0.3435374E-01)
 number of electron     259.9999421 magnetization 
 augmentation part       75.9745099 magnetization 

 Broyden mixing:
  rms(total) = 0.16988E+00    rms(broyden)= 0.16988E+00
  rms(prec ) = 0.22675E+00
  weight for this iteration     100.00

 eigenvalues of (default mixing * dielectric matrix)
  average eigenvalue GAMMA=   0.7033
  2.1877  2.1877  0.9558  0.6185  0.4388  0.4388  0.1269  0.2183  0.2183  0.1828
  0.1627

 Free energy of the ion-electron system (eV)
  ---------------------------------------------------
  alpha Z        PSCENC =       272.35196750
  Ewald energy   TEWEN  =     76616.56415543
  -Hartree energ DENC   =   -102866.40782126
  -exchange      EXHF   =         0.00000000
  -V(xc)+E(xc)   XCENC  =       689.78841484
  PAW double counting   =     28743.63420529   -28602.62475612
  entropy T*S    EENTRO =        -0.01175440
  eigenvalues    EBANDS =     -5488.41361462
  atomic energy  EATOM  =     30456.55260990
  Solvation  Ediel_sol  =         0.00000000
  ---------------------------------------------------
  free energy    TOTEN  =      -178.56659343 eV

  energy without entropy =     -178.55483904  energy(sigma->0) =     -178.56267530


--------------------------------------------------------------------------------------------------------




--------------------------------------- Iteration      1(  17)  ---------------------------------------


    POTLOK:  cpu time      0.0326: real time      0.0326
    SETDIJ:  cpu time      0.0023: real time      0.0023
     EDDAV:  cpu time      8.1474: real time      8.1478
       DOS:  cpu time      0.0004: real time      0.0004
    CHARGE:  cpu time      0.0992: real time      0.0992
    MIXING:  cpu time      0.0018: real time      0.0018
    --------------------------------------------
      LOOP:  cpu time      8.2836: real time      8.2840

 eigenvalue-minimisations  :  4608
 total energy-change (2. order) : 0.7704169E-02  (-0.1559782E-01)
 number of electron     259.9999422 magnetization 
 augmentation part       75.9403234 magnetization 

 Broyden mixing:
  rms(total) = 0.14713E+00    rms(broyden)= 0.14712E+00
  rms(prec ) = 0.18526E+00
  weight for this iteration     100.00

 eigenvalues of (default mixing * dielectric matrix)
  average eigenvalue GAMMA=   0.7336
  2.2917  2.2917  1.3144  0.7462  0.5343  0.5343  0.1269  0.2195  0.2195  0.1893
  0.1757  0.1600

 Free energy of the ion-electron system (eV)
  ---------------------------------------------------
  alpha Z        PSCENC =       272.35196750
  Ewald energy   TEWEN  =     76616.56415543
  -Hartree energ DENC   =   -102872.93205347
  -exchange      EXHF   =         0.00000000
  -V(xc)+E(xc)   XCENC  =       689.88964633
  PAW double counting   =     28745.19522743   -28603.04658090
  entropy T*S    EENTRO =        -0.01463286
  eigenvalues    EBANDS =     -5483.11922862
  atomic energy  EATOM  =     30456.55260990
  Solvation  Ediel_sol  =         0.00000000
  ---------------------------------------------------
  free energy    TOTEN  =      -178.55888926 eV

  energy without entropy =     -178.54425640  energy(sigma->0) =     -178.55401164


--------------------------------------------------------------------------------------------------------




--------------------------------------- Iteration      1(  18)  ---------------------------------------


    POTLOK:  cpu time      0.0330: real time      0.0330
    SETDIJ:  cpu time      0.0024: real time      0.0024
     EDDAV:  cpu time      7.9764: real time      7.9768
       DOS:  cpu time      0.0004: real time      0.0004
    CHARGE:  cpu time      0.0999: real time      0.0999
    MIXING:  cpu time      0.0021: real time      0.0021
    --------------------------------------------
      LOOP:  cpu time      8.1142: real time      8.1146

 eigenvalue-minimisations  :  4608
 total energy-change (2. order) : 0.1511191E-01  (-0.1176528E-01)
 number of electron     259.9999421 magnetization 
 augmentation part       75.9070976 magnetization 

 Broyden mixing:
  rms(total) = 0.92333E-01    rms(broyden)= 0.92328E-01
  rms(prec ) = 0.13544E+00
  weight for this iteration     100.00

 eigenvalues of (default mixing * dielectric matrix)
  average eigenvalue GAMMA=   0.7326
  2.3583  2.3583  1.3627  0.6988  0.6988  0.4793  0.4793  0.1269  0.2188  0.2188
  0.1887  0.1612  0.1740

 Free energy of the ion-electron system (eV)
  ---------------------------------------------------
  alpha Z        PSCENC =       272.35196750
  Ewald energy   TEWEN  =     76616.56415543
  -Hartree energ DENC   =   -102884.35437600
  -exchange      EXHF   =         0.00000000
  -V(xc)+E(xc)   XCENC  =       690.07212313
  PAW double counting   =     28744.14522810   -28600.13848898
  entropy T*S    EENTRO =        -0.01502210
  eigenvalues    EBANDS =     -5473.72197434
  atomic energy  EATOM  =     30456.55260990
  Solvation  Ediel_sol  =         0.00000000
  ---------------------------------------------------
  free energy    TOTEN  =      -178.54377735 eV

  energy without entropy =     -178.52875525  energy(sigma->0) =     -178.53876999


--------------------------------------------------------------------------------------------------------




--------------------------------------- Iteration      1(  19)  ---------------------------------------


    POTLOK:  cpu time      0.0325: real time      0.0325
    SETDIJ:  cpu time      0.0025: real time      0.0025
     EDDAV:  cpu time      8.4614: real time      8.4617
       DOS:  cpu time      0.0004: real time      0.0004
    CHARGE:  cpu time      0.1019: real time      0.1019
    MIXING:  cpu time      0.0022: real time      0.0023
    --------------------------------------------
      LOOP:  cpu time      8.6009: real time      8.6013

 eigenvalue-minimisations  :  4864
 total energy-change (2. order) : 0.5958342E-02  (-0.2849452E-02)
 number of electron     259.9999422 magnetization 
 augmentation part       75.8623591 magnetization 

 Broyden mixing:
  rms(total) = 0.48752E-01    rms(broyden)= 0.48750E-01
  rms(prec ) = 0.61729E-01
  weight for this iteration     100.00

 eigenvalues of (default mixing * dielectric matrix)
  average eigenvalue GAMMA=   0.7248
  2.4094  2.4094  1.3654  0.7835  0.7835  0.4744  0.4744  0.3596  0.1269  0.2193
  0.2193  0.1890  0.1614  0.1715

 Free energy of the ion-electron system (eV)
  ---------------------------------------------------
  alpha Z        PSCENC =       272.35196750
[...]
     73     -13.8963      2.00000
     74     -13.8547      2.00000
     75      -7.2196      2.00000
     76      -6.8575      2.00000
     77      -6.8040      2.00000
     78      -6.3608      2.00000
     79      -6.0523      2.00000
     80      -5.8049      2.00000
     81      -5.7211      2.00000
     82      -5.4263      2.00000
     83      -5.0739      2.00000
     84      -4.9379      2.00000
     85      -4.6786      2.00000
     86      -4.6565      2.00000
     87      -4.4990      2.00000
     88      -4.3443      2.00000
     89      -4.1141      2.00000
     90      -4.0698      2.00000
     91      -2.6216      2.00000
     92      -2.5643      2.00000
     93      -2.2887      2.00000
     94      -2.2252      2.00000
     95      -2.0967      2.00000
     96      -2.0688      2.00000
     97      -1.8482      2.00000
     98      -1.8220      2.00000
     99      -1.5579      2.00000
    100      -1.4998      2.00000
    101      -1.2927      2.00000
    102      -1.2391      2.00000
    103      -1.0247      2.00000
    104      -1.0133      2.00000
    105      -0.7709      2.00000
    106      -0.7397      2.00000
    107      -0.6702      2.00000
    108      -0.6603      2.00000
    109      -0.4842      2.00000
    110      -0.4483      2.00000
    111      -0.4226      2.00000
    112      -0.3197      2.00000
    113      -0.3170      2.00000
    114      -0.2434      2.00000
    115      -0.2351      2.00000
    116      -0.0997      2.00000
    117      -0.0500      2.00000
    118      -0.0383      2.00000
    119       0.1682      2.00002
    120       0.1824      2.00004
    121       0.2546      2.00184
    122       0.2552      2.00190
    123       0.3559      2.05197
    124       0.3736      2.06624
    125       0.4446      1.88185
    126       0.4460      1.87104
    127       0.5097      0.99750
    128       0.5131      0.94056
    129       0.5700      0.15586
    130       0.5950     -0.00509
    131       0.7028     -0.01978
    132       0.7148     -0.01347
    133       0.8018     -0.00029
    134       0.8065     -0.00022
    135       0.8661     -0.00001
    136       0.8856     -0.00000
    137       0.9178     -0.00000
    138       0.9398     -0.00000
    139       1.0054     -0.00000
    140       1.0173     -0.00000
    141       1.0831     -0.00000
    142       1.0923     -0.00000
    143       1.1116     -0.00000
    144       1.1180     -0.00000
    145       1.1634     -0.00000
    146       1.1724     -0.00000
    147       1.1911     -0.00000
    148       1.2198     -0.00000
    149       1.2930     -0.00000
    150       1.2970     -0.00000
    151       1.4062     -0.00000
    152       1.4220     -0.00000
    153       1.4414     -0.00000
    154       1.4553     -0.00000
    155       1.4738     -0.00000
    156       1.5057     -0.00000
    157       1.5495     -0.00000
    158       1.5740     -0.00000
    159       1.6792     -0.00000
    160       1.6946     -0.00000
    161       1.7400     -0.00000
    162       1.7512     -0.00000
    163       1.8283     -0.00000
    164       1.8336     -0.00000
    165       1.9008     -0.00000
    166       1.9008     -0.00000
    167       1.9301     -0.00000
    168       1.9382     -0.00000
    169       1.9486     -0.00000
    170       1.9765     -0.00000
    171       2.2253     -0.00000
    172       2.2503     -0.00000
    173       2.3348     -0.00000
    174       2.3464     -0.00000
    175       2.3964     -0.00000
    176       2.4065     -0.00000
    177       2.6091      0.00000
    178       2.6427      0.00000
    179       2.7910      0.00000
    180       2.8015      0.00000
    181       3.0066      0.00000
    182       3.0498      0.00000
    183       3.1439      0.00000
    184       3.1560      0.00000
    185       3.4277      0.00000
    186       3.4759      0.00000
    187       3.5830      0.00000
    188       3.6200      0.00000
    189       3.8886      0.00000
    190       3.9314      0.00000
    191       4.0665      0.00000
    192       4.0924      0.00000


--------------------------------------------------------------------------------------------------------


 soft charge-density along one line, spin component           1
         0         1         2         3         4         5         6         7         8         9
 total charge-density along one line
 
 pseudopotential strength for first ion, spin component:           1
 -2.829 -23.933   0.001  -0.015   0.004  -0.000   0.011  -0.003
-23.933  11.190  -0.000   0.005  -0.000   0.000  -0.002   0.001
  0.001  -0.000 -27.260  -0.003  -0.001  10.426   0.002   0.000
 -0.015   0.005  -0.003 -27.456   0.015   0.002  10.561  -0.010
  0.004  -0.000  -0.001   0.015 -27.361   0.000  -0.010  10.498
 -0.000   0.000  10.426   0.002   0.000   5.078  -0.001  -0.000
  0.011  -0.002   0.002  10.561  -0.010  -0.001   5.027   0.003
 -0.003   0.001   0.000  -0.010  10.498  -0.000   0.003   5.053
 -0.000  -0.000   0.005  -0.000   0.000  -0.002   0.000  -0.000
 -0.002  -0.001  -0.004   0.001  -0.000   0.005  -0.001   0.000
 -0.059  -0.018   0.001  -0.015  -0.001  -0.000   0.009   0.001
  0.010   0.003  -0.000   0.003  -0.006   0.000  -0.002   0.005
 -0.033  -0.013  -0.000  -0.001   0.001   0.000   0.000  -0.001
 -0.001  -0.000   0.006  -0.000   0.000  -0.003   0.000  -0.000
 -0.002  -0.001  -0.005   0.002  -0.000   0.006  -0.001   0.000
 -0.073  -0.021   0.001  -0.019  -0.002  -0.000   0.012   0.001
  0.013   0.004  -0.000   0.004  -0.008   0.000  -0.003   0.007
 -0.041  -0.016  -0.000  -0.001   0.001   0.000   0.000  -0.001
 total augmentation occupancy for first ion, spin component:           1
  1.995  -0.056   0.000  -0.001   0.000   0.000  -0.003   0.000   0.000  -0.002  -0.024   0.001  -0.020   0.000   0.002   0.025
 -0.056   1.317   0.000  -0.008   0.001  -0.004   0.048   0.000   0.004  -0.025  -0.379   0.021  -0.287  -0.002   0.010   0.161
  0.000   0.000   1.983  -0.000   0.000  -0.035  -0.000   0.000   0.003  -0.004  -0.002   0.000  -0.000  -0.003   0.002   0.001
 -0.001  -0.008  -0.000   1.984  -0.000  -0.000  -0.037  -0.000   0.000  -0.002  -0.003   0.001  -0.004  -0.000   0.002   0.001
  0.000   0.001   0.000  -0.000   1.983   0.000  -0.000  -0.037   0.000   0.000  -0.003  -0.011   0.002  -0.000  -0.000   0.002
  0.000  -0.004  -0.035  -0.000   0.000   0.106  -0.001  -0.000  -0.039   0.060   0.002  -0.000   0.004   0.009  -0.064  -0.002
 -0.003   0.048  -0.000  -0.037  -0.000  -0.001   0.070   0.003   0.001  -0.001   0.194  -0.002   0.010   0.000  -0.001  -0.092
  0.000   0.000   0.000  -0.000  -0.037  -0.000   0.003   0.089  -0.000   0.000   0.007   0.061   0.027   0.001   0.000  -0.001
  0.000   0.004   0.003   0.000   0.000  -0.039   0.001  -0.000   2.090  -0.087  -0.007  -0.013  -0.003  -0.934   0.040   0.005
 -0.002  -0.025  -0.004  -0.002   0.000   0.060  -0.001   0.000  -0.087   1.761   0.018  -0.009   0.012   0.041  -0.742  -0.021
 -0.024  -0.379  -0.002  -0.003  -0.003   0.002   0.194   0.007  -0.007   0.018   1.516  -0.032   0.031   0.005  -0.020  -0.659
  0.001   0.021   0.000   0.001  -0.011  -0.000  -0.002   0.061  -0.013  -0.009  -0.032   1.265   0.063   0.008   0.006   0.023
 -0.020  -0.287  -0.000  -0.004   0.002   0.004   0.010   0.027  -0.003   0.012   0.031   0.063   2.036   0.001  -0.003   0.059
  0.000  -0.002  -0.003  -0.000  -0.000   0.009   0.000   0.001  -0.934   0.041   0.005   0.008   0.001   0.449  -0.019  -0.003
  0.002   0.010   0.002   0.002  -0.000  -0.064  -0.001   0.000   0.040  -0.742  -0.020   0.006  -0.003  -0.019   0.344   0.016
  0.025   0.161   0.001   0.001   0.002  -0.002  -0.092  -0.001   0.005  -0.021  -0.659   0.023   0.059  -0.003   0.016   0.326
 -0.002   0.004  -0.000  -0.001   0.008   0.000   0.005  -0.037   0.008   0.006   0.024  -0.457  -0.013  -0.004  -0.004  -0.017
  0.018   0.058   0.000   0.003  -0.002  -0.001   0.010  -0.008   0.001  -0.003   0.057  -0.014  -0.794   0.000  -0.001  -0.062


------------------------ aborting loop because EDIFF is reached ----------------------------------------


    CHARGE:  cpu time      0.1030: real time      0.1030
    FORLOC:  cpu time      0.0033: real time      0.0034
    FORNL :  cpu time      2.6440: real time      2.6440
    STRESS:  cpu time      5.6371: real time      5.6371
    FORCOR:  cpu time      0.0276: real time      0.0276
    FORHAR:  cpu time      0.0074: real time      0.0074
    MIXING:  cpu time      0.0036: real time      0.0036
    OFIELD:  cpu time      0.0000: real time      0.0000

  FORCE on cell =-STRESS in cart. coord.  units (eV):
  Direction    XX          YY          ZZ          XY          YZ          ZX
  --------------------------------------------------------------------------------------
  Alpha Z   272.35197   272.35197   272.35197
  Ewald   84943.95681 90896.76330-99224.20172     0.00000     0.00000   237.51299
  Hartree 92811.85817 97817.59656-87717.45991     0.00000    -0.00000   259.01709
  E(xc)   -1287.77175 -1283.99060 -1288.58564     0.00000    -0.00000     0.41587
  Local  ************************183883.66237    -0.00000    -0.00000  -504.95332
  n-local  -198.23198  -328.41723  -211.13910     0.72750    -0.15235   -16.18241
  augment  1202.29972  1258.00510  1203.48773    -0.00000    -0.00000     4.18614
  Kinetic  3058.92549  3245.52586  3087.22124    -0.81785    -0.47249     8.78680
  Fock        0.00000     0.00000     0.00000     0.00000     0.00000     0.00000
  -------------------------------------------------------------------------------------
  Total     -27.69283    -8.75524     5.33693    -0.00000     0.00000   -11.21685
  in kB     -30.62332    -9.68173     5.90169    -0.00000     0.00000   -12.40383
  external pressure =      -11.47 kB  Pullay stress =        0.00 kB


 VOLUME and BASIS-vectors are now :
 -----------------------------------------------------------------------------
  energy-cutoff  :      520.00
  volume of cell :     1448.86
      direct lattice vectors                 reciprocal lattice vectors
     9.881349616  0.000000000  0.000000000     0.101200751 -0.000000000  0.013368312
     0.000000000  5.645286061  0.000000000     0.000000000  0.177138942 -0.000000000
    -3.430964609  0.000000000 25.973077496     0.000000000  0.000000000  0.038501406

  length of vectors
     9.881349616  5.645286061 26.198707464     0.102079889  0.177138942  0.038501406


 FORCES acting on ions
    electron-ion (+dipol)            ewald-force                    non-local-force                 convergence-correction
 -----------------------------------------------------------------------------------------------
   -.107E+01 0.762E+02 0.267E+04   0.110E+01 -.762E+02 -.267E+04   0.459E-01 0.126E+00 -.148E+01   -.278E-03 -.831E-05 0.508E-03
   -.799E+02 0.795E+02 0.118E+03   0.798E+02 -.796E+02 -.118E+03   0.107E+00 0.136E+00 -.879E-01   0.439E-03 -.829E-05 0.112E-02
   0.382E+03 0.658E+02 0.146E+04   -.382E+03 -.659E+02 -.146E+04   0.354E+00 0.121E+00 0.689E+00   -.394E-03 -.124E-04 0.125E-02
   0.360E+03 0.671E+02 -.173E+04   -.360E+03 -.673E+02 0.173E+04   0.459E+00 0.183E+00 0.315E+00   0.186E-03 -.599E-05 0.787E-03
   -.107E+01 -.762E+02 0.267E+04   0.110E+01 0.762E+02 -.267E+04   0.459E-01 -.126E+00 -.148E+01   -.278E-03 0.831E-05 0.508E-03
   -.799E+02 -.795E+02 0.118E+03   0.798E+02 0.796E+02 -.118E+03   0.107E+00 -.136E+00 -.879E-01   0.439E-03 0.829E-05 0.112E-02
   0.382E+03 -.658E+02 0.146E+04   -.382E+03 0.659E+02 -.146E+04   0.354E+00 -.121E+00 0.689E+00   -.394E-03 0.124E-04 0.125E-02
   0.360E+03 -.671E+02 -.173E+04   -.360E+03 0.673E+02 0.173E+04   0.459E+00 -.183E+00 0.315E+00   0.186E-03 0.599E-05 0.787E-03
   -.350E+03 0.672E+02 0.141E+04   0.350E+03 -.673E+02 -.141E+04   -.489E+00 0.138E+00 0.596E+00   0.422E-03 -.276E-05 0.133E-02
   -.372E+03 0.657E+02 -.178E+04   0.373E+03 -.659E+02 0.178E+04   -.834E+00 0.190E+00 0.138E+01   -.205E-03 0.168E-05 0.552E-03
   0.781E+02 0.795E+02 -.416E+03   -.780E+02 -.796E+02 0.416E+03   0.761E-01 0.124E+00 -.795E+00   -.374E-03 -.519E-05 0.105E-02
   0.103E+00 0.761E+02 -.274E+04   -.758E+00 -.762E+02 0.274E+04   0.508E+00 0.218E+00 0.313E+01   0.231E-03 -.720E-05 -.135E-03
   -.350E+03 -.672E+02 0.141E+04   0.350E+03 0.673E+02 -.141E+04   -.489E+00 -.138E+00 0.596E+00   0.422E-03 0.276E-05 0.133E-02
   -.372E+03 -.657E+02 -.178E+04   0.373E+03 0.659E+02 0.178E+04   -.834E+00 -.190E+00 0.138E+01   -.205E-03 -.168E-05 0.552E-03
   0.781E+02 -.795E+02 -.416E+03   -.780E+02 0.796E+02 0.416E+03   0.761E-01 -.124E+00 -.795E+00   -.374E-03 0.519E-05 0.105E-02
   0.103E+00 -.761E+02 -.274E+04   -.758E+00 0.762E+02 0.274E+04   0.508E+00 -.218E+00 0.313E+01   0.231E-03 0.720E-05 -.135E-03
   0.473E+02 0.379E-12 0.138E+04   -.477E+02 0.288E-13 -.138E+04   0.381E+00 0.173E-16 0.550E+00   -.484E-03 0.124E-12 0.161E-02
   -.566E+02 0.132E-11 -.168E+04   0.572E+02 0.569E-13 0.168E+04   -.733E+00 -.729E-16 -.239E+01   0.562E-03 0.704E-13 0.804E-03
   0.212E+00 -.175E-12 -.376E+02   -.228E+00 -.583E-14 0.378E+02   -.314E-01 0.000E+00 -.114E-01   -.683E-04 0.698E-15 0.311E-03
   -.145E+03 -.953E-12 0.671E+03   0.141E+03 -.212E-13 -.668E+03   0.406E+01 -.111E-15 -.369E+01   0.184E-03 0.153E-14 0.854E-04
   0.108E+02 -.170E-12 0.318E+03   -.109E+02 0.101E-13 -.318E+03   0.935E-01 0.260E-17 0.901E-01   -.102E-03 -.135E-13 0.362E-03
   -.130E+02 0.465E-12 -.387E+03   0.131E+02 0.230E-13 0.388E+03   -.274E+00 -.189E-16 -.615E+00   0.117E-03 0.501E-14 0.183E-03
   0.225E+00 -.144E-11 -.376E+02   -.228E+00 0.121E-14 0.378E+02   -.434E-01 0.000E+00 -.246E-01   -.686E-04 -.739E-15 0.309E-03
   -.139E+03 0.107E-11 0.666E+03   0.135E+03 -.812E-15 -.662E+03   0.394E+01 -.111E-15 -.356E+01   0.184E-03 -.295E-14 0.852E-04
   0.121E+00 0.182E-12 -.374E+02   -.228E+00 0.786E-15 0.378E+02   0.833E-01 -.607E-17 -.194E+00   0.551E-04 0.262E-15 0.291E-03
   0.137E+03 0.377E-12 0.680E+03   -.133E+03 0.450E-14 -.676E+03   -.322E+01 -.104E-15 -.347E+01   -.166E-03 0.643E-14 0.149E-03
   0.174E+02 -.199E-12 -.510E+03   -.176E+02 0.135E-13 0.508E+03   -.249E+00 0.850E-16 0.274E+01   -.115E-03 -.853E-14 0.158E-03
   -.199E+02 0.265E-11 0.441E+03   0.198E+02 0.513E-14 -.439E+03   0.252E+00 -.118E-15 -.379E+01   0.913E-04 0.751E-14 0.274E-03
   0.111E+00 0.217E-13 -.374E+02   -.228E+00 0.105E-14 0.378E+02   0.924E-01 -.694E-17 -.204E+00   0.553E-04 -.339E-15 0.292E-03
   0.127E+03 0.481E-12 0.669E+03   -.123E+03 0.151E-13 -.665E+03   -.315E+01 -.104E-15 -.335E+01   -.166E-03 -.769E-14 0.149E-03
   0.170E+02 -.132E-12 -.508E+03   -.173E+02 0.129E-14 0.506E+03   -.236E+00 0.841E-16 0.274E+01   -.115E-03 0.854E-14 0.158E-03
   -.196E+02 0.373E-12 0.439E+03   0.195E+02 -.663E-14 -.436E+03   0.252E+00 -.118E-15 -.380E+01   0.917E-04 -.845E-14 0.274E-03
 -----------------------------------------------------------------------------------------------
   -.167E+01 0.125E-10 0.115E+02   0.178E-13 -.154E-13 -.853E-12   0.167E+01 -.387E-15 -.115E+02   0.110E-03 0.165E-12 0.184E-01
 
 
 POSITION                                       TOTAL-FORCE (eV/Angst)
 -----------------------------------------------------------------------------------
      8.77509      0.00111      8.35891         0.076257      0.093765     -0.017061
      3.22237      0.00111     12.99220         0.012849      0.018837     -0.204558
      6.00558      0.00111     10.66983         0.100113      0.045319      0.142179
      0.45286      0.00111     15.30312        -0.055417      0.007091      0.354367
      8.77509      2.82153      8.35891         0.076257     -0.093765     -0.017061
      3.22237      2.82153     12.99220         0.012849     -0.018837     -0.204558
      6.00558      2.82153     10.66983         0.100113     -0.045319      0.142179
      0.45286      2.82153     15.30312        -0.055417     -0.007091      0.354367
      1.05635      0.00111     10.67373         0.223833      0.049592     -0.093604
      5.38498      0.00111     15.30702        -0.129333      0.012835      0.309299
     -1.71316      0.00111     12.98465         0.168550      0.046558     -0.155169
      2.61547      0.00111     17.61794        -0.146245      0.098678     -0.879158
      1.05635      2.82153     10.67373         0.223833     -0.049592     -0.093604
      5.38498      2.82153     15.30702        -0.129333     -0.012835      0.309299
     -1.71316      2.82153     12.98465         0.168550     -0.046558     -0.155169
      2.61547      2.82153     17.61794        -0.146245     -0.098678     -0.879158
     -1.40971      1.41132     10.67178        -0.022774     -0.000000     -0.153794
      2.91892      1.41132     15.30507        -0.136232      0.000000      0.535308
      5.69528      1.41132     12.98843        -0.047305      0.000000      0.208347
      1.36665      1.41132      8.35513        -0.217300     -0.000000     -0.047415
     -1.40971      4.23396     10.67178        -0.003768     -0.000000     -0.157900
      2.91892      4.23396     15.30507        -0.211790      0.000000      0.394733
      5.69528      4.23396     12.98843        -0.045947      0.000000      0.200952
      1.36665      4.23396      8.35513        -0.278190      0.000000     -0.006612
      0.75461      1.41132     12.98843        -0.023660      0.000000      0.163862
      6.30732      1.41132      8.35513         0.517584      0.000000      0.071393
     -2.02175      1.41132     15.30507        -0.499186      0.000000      0.793194
      3.53097      1.41132     10.67178         0.213340     -0.000000     -1.006336
      0.75461      4.23396     12.98843        -0.023872      0.000000      0.164683
      6.30732      4.23396      8.35513         0.570532      0.000000      0.133656
     -2.02175      4.23396     15.30507        -0.500148      0.000000      0.810028
      3.53097      4.23396     10.67178         0.207501     -0.000000     -1.016686
 -----------------------------------------------------------------------------------
    total drift:                               -0.001206      0.000000     -0.000113


--------------------------------------------------------------------------------------------------------



  FREE ENERGIE OF THE ION-ELECTRON SYSTEM (eV)
  ---------------------------------------------------
  free  energy   TOTEN  =      -178.54085007 eV

  energy  without entropy=     -178.52535154  energy(sigma->0) =     -178.53568389
 


--------------------------------------------------------------------------------------------------------


    POTLOK:  cpu time      0.0316: real time      0.0316


--------------------------------------------------------------------------------------------------------


 writing wavefunctions
     LOOP+:  cpu time    277.9037: real time    277.9268
    4ORBIT:  cpu time      0.0000: real time      0.0000

 total amount of memory used by VASP MPI-rank0   216465. kBytes
=======================================================================

   base                                    :      30000. kBytes
   nonl-proj                               :     155164. kBytes
   fftplans                                :       2367. kBytes
   grid                                    :      13250. kBytes
   one-center                              :        497. kBytes
   wavefun                                 :      15187. kBytes
 
  
  
 General timing and accounting informations for this job:
 ========================================================
  
                  Total CPU time used (sec):      285.487
                            User time (sec):      270.096
                          System time (sec):       15.391
                         Elapsed time (sec):      285.765
  
                   Maximum memory used (kb):      417616.
                   Average memory used (kb):          N/A
  
                          Minor page faults:        73302
                          Major page faults:           14
                 Voluntary context switches:          120
