unknown system                          
           1
     9.881350    0.000000    0.000000
     0.000000    5.645286    0.000000
    -3.430965    0.000000   25.973077
   Ti   Ga   Al
    16     2    14
Direct configuration=     1
   0.99978998  0.00019716  0.32182968
   0.49978998  0.00019716  0.50021791
   0.75040717  0.00019716  0.41080359
   0.25040717  0.00019716  0.58919182
   0.99978998  0.49980284  0.32182968
   0.49978998  0.49980284  0.50021791
   0.75040717  0.49980284  0.41080359
   0.25040717  0.49980284  0.58919182
   0.24959283  0.00019716  0.41095345
   0.74959283  0.00019716  0.58934168
   0.00021002  0.00019716  0.49992736
   0.50021002  0.00019716  0.67831559
   0.24959283  0.49980284  0.41095345
   0.74959283  0.49980284  0.58934168
   0.00021002  0.49980284  0.49992736
   0.50021002  0.49980284  0.67831559
   0.00000000  0.25000000  0.41087852
   0.50000000  0.25000000  0.58926675
   0.75000000  0.25000000  0.50007264
   0.25000000  0.25000000  0.32168441
   0.00000000  0.75000000  0.41087852
   0.50000000  0.75000000  0.58926675
   0.75000000  0.75000000  0.50007264
   0.25000000  0.75000000  0.32168441
   0.25000000  0.25000000  0.50007264
   0.75000000  0.25000000  0.32168441
   0.00000000  0.25000000  0.58926675
   0.50000000  0.25000000  0.41087852
   0.25000000  0.75000000  0.50007264
   0.75000000  0.75000000  0.32168441
   0.00000000  0.75000000  0.58926675
   0.50000000  0.75000000  0.41087852
