  16  16   1   0
  0.1619388E+02  0.5606952E-09  0.5606952E-09  0.8241707E-09  0.5000000E-15
  1.000000000000000E-004
  CAR 
 unknown system                          
     25.55903644    -51.99946247  301      8.25373812      1.00000000
    -51.999  0.0000E+00  0.0000E+00
    -51.741  0.0000E+00  0.0000E+00
    -51.482  0.0000E+00  0.0000E+00
    -51.224  0.0000E+00  0.0000E+00
    -50.965  0.0000E+00  0.0000E+00
    -50.707  0.0000E+00  0.0000E+00
    -50.448  0.0000E+00  0.0000E+00
    -50.190  0.0000E+00  0.0000E+00
    -49.931  0.0000E+00  0.0000E+00
    -49.673  0.0000E+00  0.0000E+00
    -49.414 -0.2830E-37 -0.7317E-38
    -49.156 -0.4169E-19 -0.1078E-19
    -48.897 -0.9244E-07 -0.2390E-07
    -48.639 -0.2287E+00 -0.5913E-01
    -48.380  0.2530E+02  0.6481E+01
    -48.122  0.2852E+02  0.1386E+02
    -47.863  0.5606E+00  0.1400E+02
    -47.604 -0.3663E-03  0.1400E+02
    -47.346  0.0000E+00  0.1400E+02
    -47.087  0.0000E+00  0.1400E+02
    -46.829  0.0000E+00  0.1400E+02
    -46.570  0.0000E+00  0.1400E+02
    -46.312  0.0000E+00  0.1400E+02
    -46.053  0.0000E+00  0.1400E+02
    -45.795  0.0000E+00  0.1400E+02
    -45.536  0.0000E+00  0.1400E+02
    -45.278  0.0000E+00  0.1400E+02
    -45.019  0.0000E+00  0.1400E+02
    -44.761  0.0000E+00  0.1400E+02
    -44.502  0.0000E+00  0.1400E+02
    -44.244  0.0000E+00  0.1400E+02
    -43.985  0.0000E+00  0.1400E+02
    -43.727  0.0000E+00  0.1400E+02
    -43.468  0.0000E+00  0.1400E+02
    -43.209  0.0000E+00  0.1400E+02
    -42.951  0.0000E+00  0.1400E+02
    -42.692  0.0000E+00  0.1400E+02
    -42.434  0.0000E+00  0.1400E+02
    -42.175  0.0000E+00  0.1400E+02
    -41.917  0.0000E+00  0.1400E+02
    -41.658  0.0000E+00  0.1400E+02
    -41.400  0.0000E+00  0.1400E+02
    -41.141  0.0000E+00  0.1400E+02
    -40.883  0.0000E+00  0.1400E+02
    -40.624  0.0000E+00  0.1400E+02
    -40.366  0.0000E+00  0.1400E+02
    -40.107  0.0000E+00  0.1400E+02
    -39.849  0.0000E+00  0.1400E+02
    -39.590  0.0000E+00  0.1400E+02
    -39.332  0.0000E+00  0.1400E+02
    -39.073  0.0000E+00  0.1400E+02
    -38.815  0.0000E+00  0.1400E+02
    -38.556  0.0000E+00  0.1400E+02
    -38.297  0.0000E+00  0.1400E+02
    -38.039  0.0000E+00  0.1400E+02
    -37.780  0.0000E+00  0.1400E+02
    -37.522  0.0000E+00  0.1400E+02
    -37.263  0.0000E+00  0.1400E+02
    -37.005  0.0000E+00  0.1400E+02
    -36.746  0.0000E+00  0.1400E+02
    -36.488  0.0000E+00  0.1400E+02
    -36.229  0.0000E+00  0.1400E+02
    -35.971  0.0000E+00  0.1400E+02
    -35.712  0.0000E+00  0.1400E+02
    -35.454  0.0000E+00  0.1400E+02
    -35.195  0.0000E+00  0.1400E+02
    -34.937  0.0000E+00  0.1400E+02
    -34.678  0.0000E+00  0.1400E+02
    -34.420  0.0000E+00  0.1400E+02
    -34.161  0.0000E+00  0.1400E+02
    -33.902  0.0000E+00  0.1400E+02
    -33.644  0.0000E+00  0.1400E+02
    -33.385  0.0000E+00  0.1400E+02
    -33.127  0.0000E+00  0.1400E+02
    -32.868  0.0000E+00  0.1400E+02
    -32.610  0.0000E+00  0.1400E+02
    -32.351  0.0000E+00  0.1400E+02
    -32.093  0.0000E+00  0.1400E+02
    -31.834  0.0000E+00  0.1400E+02
    -31.576  0.0000E+00  0.1400E+02
    -31.317  0.0000E+00  0.1400E+02
    -31.059  0.0000E+00  0.1400E+02
    -30.800  0.0000E+00  0.1400E+02
    -30.542  0.0000E+00  0.1400E+02
    -30.283  0.0000E+00  0.1400E+02
    -30.025  0.0000E+00  0.1400E+02
    -29.766  0.0000E+00  0.1400E+02
    -29.507  0.0000E+00  0.1400E+02
    -29.249  0.0000E+00  0.1400E+02
    -28.990  0.0000E+00  0.1400E+02
    -28.732  0.0000E+00  0.1400E+02
    -28.473  0.0000E+00  0.1400E+02
    -28.215  0.0000E+00  0.1400E+02
    -27.956  0.0000E+00  0.1400E+02
    -27.698  0.0000E+00  0.1400E+02
    -27.439  0.0000E+00  0.1400E+02
    -27.181  0.0000E+00  0.1400E+02
    -26.922  0.0000E+00  0.1400E+02
    -26.664  0.0000E+00  0.1400E+02
    -26.405  0.0000E+00  0.1400E+02
    -26.147  0.0000E+00  0.1400E+02
    -25.888 -0.2792E-43  0.1400E+02
    -25.630 -0.1595E-23  0.1400E+02
    -25.371 -0.1258E-09  0.1400E+02
    -25.113 -0.1294E-01  0.1400E+02
    -24.854  0.7698E+01  0.1599E+02
    -24.595  0.9545E+02  0.4066E+02
    -24.337  0.4361E+02  0.5194E+02
    -24.078  0.1592E+02  0.5605E+02
    -23.820 -0.2036E+00  0.5600E+02
    -23.561 -0.2443E-06  0.5600E+02
    -23.303  0.0000E+00  0.5600E+02
    -23.044  0.0000E+00  0.5600E+02
    -22.786  0.0000E+00  0.5600E+02
    -22.527  0.0000E+00  0.5600E+02
    -22.269  0.0000E+00  0.5600E+02
    -22.010  0.0000E+00  0.5600E+02
    -21.752  0.0000E+00  0.5600E+02
    -21.493  0.0000E+00  0.5600E+02
    -21.235  0.0000E+00  0.5600E+02
    -20.976  0.0000E+00  0.5600E+02
    -20.718  0.0000E+00  0.5600E+02
    -20.459  0.0000E+00  0.5600E+02
    -20.200  0.0000E+00  0.5600E+02
    -19.942  0.0000E+00  0.5600E+02
    -19.683  0.0000E+00  0.5600E+02
    -19.425  0.0000E+00  0.5600E+02
    -19.166  0.0000E+00  0.5600E+02
    -18.908  0.0000E+00  0.5600E+02
    -18.649  0.0000E+00  0.5600E+02
    -18.391  0.0000E+00  0.5600E+02
    -18.132  0.0000E+00  0.5600E+02
    -17.874  0.0000E+00  0.5600E+02
    -17.615  0.0000E+00  0.5600E+02
    -17.357  0.0000E+00  0.5600E+02
    -17.098  0.0000E+00  0.5600E+02
    -16.840  0.0000E+00  0.5600E+02
    -16.581  0.0000E+00  0.5600E+02
    -16.323  0.0000E+00  0.5600E+02
    -16.064  0.0000E+00  0.5600E+02
    -15.805  0.0000E+00  0.5600E+02
    -15.547  0.0000E+00  0.5600E+02
    -15.288  0.0000E+00  0.5600E+02
    -15.030  0.0000E+00  0.5600E+02
    -14.771  0.0000E+00  0.5600E+02
    -14.513  0.0000E+00  0.5600E+02
    -14.254  0.0000E+00  0.5600E+02
    -13.996  0.0000E+00  0.5600E+02
    -13.737  0.0000E+00  0.5600E+02
    -13.479  0.0000E+00  0.5600E+02
    -13.220  0.0000E+00  0.5600E+02
    -12.962  0.0000E+00  0.5600E+02
    -12.703  0.0000E+00  0.5600E+02
    -12.445  0.0000E+00  0.5600E+02
    -12.186  0.0000E+00  0.5600E+02
    -11.928  0.0000E+00  0.5600E+02
    -11.669  0.0000E+00  0.5600E+02
    -11.411  0.0000E+00  0.5600E+02
    -11.152  0.0000E+00  0.5600E+02
    -10.893  0.0000E+00  0.5600E+02
    -10.635  0.0000E+00  0.5600E+02
    -10.376  0.0000E+00  0.5600E+02
    -10.118  0.0000E+00  0.5600E+02
     -9.859  0.0000E+00  0.5600E+02
     -9.601  0.0000E+00  0.5600E+02
     -9.342  0.0000E+00  0.5600E+02
     -9.084  0.0000E+00  0.5600E+02
     -8.825  0.0000E+00  0.5600E+02
     -8.567  0.0000E+00  0.5600E+02
     -8.308  0.0000E+00  0.5600E+02
     -8.050  0.0000E+00  0.5600E+02
     -7.791  0.0000E+00  0.5600E+02
     -7.533 -0.1509E-39  0.5600E+02
     -7.274 -0.1369E-20  0.5600E+02
     -7.016 -0.1661E-07  0.5600E+02
     -6.757 -0.2051E+00  0.5595E+02
     -6.498  0.3170E+02  0.6414E+02
     -6.240  0.7193E+01  0.6600E+02
     -5.981 -0.5590E-02  0.6600E+02
     -5.723 -0.9041E-11  0.6600E+02
     -5.464  0.0000E+00  0.6600E+02
     -5.206  0.0000E+00  0.6600E+02
     -4.947  0.0000E+00  0.6600E+02
     -4.689  0.0000E+00  0.6600E+02
     -4.430  0.0000E+00  0.6600E+02
     -4.172  0.0000E+00  0.6600E+02
     -3.913  0.0000E+00  0.6600E+02
     -3.655  0.0000E+00  0.6600E+02
     -3.396  0.0000E+00  0.6600E+02
     -3.138  0.0000E+00  0.6600E+02
     -2.879  0.0000E+00  0.6600E+02
     -2.621  0.0000E+00  0.6600E+02
     -2.362 -0.6675E-43  0.6600E+02
     -2.103 -0.1493E-23  0.6600E+02
     -1.845 -0.4646E-10  0.6600E+02
     -1.586 -0.1680E-02  0.6600E+02
     -1.328  0.4830E+00  0.6612E+02
     -1.069  0.1245E+01  0.6645E+02
     -0.811  0.9242E+00  0.6669E+02
     -0.552  0.7242E+00  0.6687E+02
     -0.294  0.2614E+01  0.6755E+02
     -0.035  0.1242E+01  0.6787E+02
      0.223  0.2123E+01  0.6842E+02
      0.482  0.1998E+01  0.6893E+02
      0.740  0.1976E+01  0.6945E+02
      0.999  0.2200E+01  0.7001E+02
      1.257  0.2295E+01  0.7061E+02
      1.516  0.4534E+01  0.7178E+02
      1.774  0.4396E+01  0.7292E+02
      2.033  0.3787E+01  0.7390E+02
      2.291  0.3357E+01  0.7476E+02
      2.550  0.3949E+01  0.7578E+02
      2.809  0.2132E+01  0.7634E+02
      3.067  0.1965E+01  0.7684E+02
      3.326  0.3840E+01  0.7784E+02
      3.584  0.5850E+01  0.7935E+02
      3.843  0.4811E+01  0.8059E+02
      4.101  0.4582E+01  0.8178E+02
      4.360  0.4250E+01  0.8288E+02
      4.618  0.5877E+01  0.8439E+02
      4.877  0.6718E+01  0.8613E+02
      5.135  0.5279E+01  0.8750E+02
      5.394  0.7753E+01  0.8950E+02
      5.652  0.6268E+01  0.9112E+02
      5.911  0.6328E+01  0.9276E+02
      6.169  0.8484E+01  0.9495E+02
      6.428  0.9541E+01  0.9742E+02
      6.686  0.1090E+02  0.1002E+03
      6.945  0.1006E+02  0.1028E+03
      7.204  0.1031E+02  0.1055E+03
      7.462  0.1128E+02  0.1084E+03
      7.721  0.1631E+02  0.1126E+03
      7.979  0.1697E+02  0.1170E+03
      8.238  0.1441E+02  0.1207E+03
      8.496  0.1266E+02  0.1240E+03
      8.755  0.1204E+02  0.1271E+03
      9.013  0.1131E+02  0.1301E+03
      9.272  0.1167E+02  0.1331E+03
      9.530  0.1181E+02  0.1361E+03
      9.789  0.1359E+02  0.1396E+03
     10.047  0.2514E+02  0.1461E+03
     10.306  0.2254E+02  0.1520E+03
     10.564  0.1539E+02  0.1559E+03
     10.823  0.1649E+02  0.1602E+03
     11.081  0.9066E+01  0.1625E+03
     11.340  0.8985E+01  0.1649E+03
     11.599  0.1195E+02  0.1680E+03
     11.857  0.1114E+02  0.1708E+03
     12.116  0.8591E+01  0.1731E+03
     12.374  0.1315E+02  0.1765E+03
     12.633  0.9830E+01  0.1790E+03
     12.891  0.9157E+01  0.1814E+03
     13.150  0.6554E+01  0.1831E+03
     13.408  0.9260E+01  0.1855E+03
     13.667  0.1097E+02  0.1883E+03
     13.925  0.1139E+02  0.1912E+03
     14.184  0.1018E+02  0.1939E+03
     14.442  0.8138E+01  0.1960E+03
     14.701  0.8699E+01  0.1982E+03
     14.959  0.8585E+01  0.2004E+03
     15.218  0.7700E+01  0.2024E+03
     15.476  0.6263E+01  0.2041E+03
     15.735  0.7379E+01  0.2060E+03
     15.993  0.7573E+01  0.2079E+03
     16.252  0.8231E+01  0.2100E+03
     16.511  0.9507E+01  0.2125E+03
     16.769  0.8278E+01  0.2146E+03
     17.028  0.8537E+01  0.2169E+03
     17.286  0.1126E+02  0.2198E+03
     17.545  0.1063E+02  0.2225E+03
     17.803  0.6667E+01  0.2242E+03
     18.062  0.7883E+01  0.2263E+03
     18.320  0.8201E+01  0.2284E+03
     18.579  0.6143E+01  0.2300E+03
     18.837  0.1029E+02  0.2326E+03
     19.096  0.9405E+01  0.2351E+03
     19.354  0.9446E+01  0.2375E+03
     19.613  0.6335E+01  0.2392E+03
     19.871  0.7043E+01  0.2410E+03
     20.130  0.8409E+01  0.2431E+03
     20.388  0.7280E+01  0.2450E+03
     20.647  0.8923E+01  0.2473E+03
     20.906  0.1073E+02  0.2501E+03
     21.164  0.7800E+01  0.2521E+03
     21.423  0.7097E+01  0.2540E+03
     21.681  0.5524E+01  0.2554E+03
     21.940  0.1783E+01  0.2558E+03
     22.198  0.5861E+00  0.2560E+03
     22.457 -0.3754E-02  0.2560E+03
     22.715 -0.1375E-08  0.2560E+03
     22.974  0.0000E+00  0.2560E+03
     23.232  0.0000E+00  0.2560E+03
     23.491  0.0000E+00  0.2560E+03
     23.749  0.0000E+00  0.2560E+03
     24.008  0.0000E+00  0.2560E+03
     24.266  0.0000E+00  0.2560E+03
     24.525  0.0000E+00  0.2560E+03
     24.783  0.0000E+00  0.2560E+03
     25.042  0.0000E+00  0.2560E+03
     25.301  0.0000E+00  0.2560E+03
     25.559  0.0000E+00  0.2560E+03
     25.55903644    -51.99946247  301      8.25373812      1.00000000
    -51.999  0.0000E+00  0.0000E+00  0.0000E+00  0.0000E+00  0.0000E+00  0.0000E+00  0.0000E+00  0.0000E+00  0.0000E+00
    -51.741  0.0000E+00  0.0000E+00  0.0000E+00  0.0000E+00  0.0000E+00  0.0000E+00  0.0000E+00  0.0000E+00  0.0000E+00
    -51.482  0.0000E+00  0.0000E+00  0.0000E+00  0.0000E+00  0.0000E+00  0.0000E+00  0.0000E+00  0.0000E+00  0.0000E+00
    -51.224  0.0000E+00  0.0000E+00  0.0000E+00  0.0000E+00  0.0000E+00  0.0000E+00  0.0000E+00  0.0000E+00  0.0000E+00
    -50.965  0.0000E+00  0.0000E+00  0.0000E+00  0.0000E+00  0.0000E+00  0.0000E+00  0.0000E+00  0.0000E+00  0.0000E+00
    -50.707  0.0000E+00  0.0000E+00  0.0000E+00  0.0000E+00  0.0000E+00  0.0000E+00  0.0000E+00  0.0000E+00  0.0000E+00
    -50.448  0.0000E+00  0.0000E+00  0.0000E+00  0.0000E+00  0.0000E+00  0.0000E+00  0.0000E+00  0.0000E+00  0.0000E+00
    -50.190  0.0000E+00  0.0000E+00  0.0000E+00  0.0000E+00  0.0000E+00  0.0000E+00  0.0000E+00  0.0000E+00  0.0000E+00
    -49.931  0.0000E+00  0.0000E+00  0.0000E+00  0.0000E+00  0.0000E+00  0.0000E+00  0.0000E+00  0.0000E+00  0.0000E+00
    -49.673  0.0000E+00  0.0000E+00  0.0000E+00  0.0000E+00  0.0000E+00  0.0000E+00  0.0000E+00  0.0000E+00  0.0000E+00
    -49.414 -0.1299E-42 -0.1244E-43 -0.9193E-49 -0.1244E-43 -0.2010E-48 -0.8545E-50 -0.6474E-43 -0.8545E-50 -0.4782E-44
    -49.156 -0.1643E-24 -0.2696E-25 -0.1188E-30 -0.2696E-25 -0.4370E-30 -0.1504E-31 -0.8186E-25 -0.1504E-31 -0.1978E-25
    -48.897 -0.2781E-12 -0.8399E-13 -0.2232E-18 -0.8399E-13 -0.1361E-17 -0.4318E-19 -0.1386E-12 -0.4318E-19 -0.1055E-12
    -48.639 -0.4168E-06 -0.2491E-06 -0.6206E-12 -0.2491E-06 -0.1074E-10 -0.1426E-12 -0.2076E-06 -0.1426E-12 -0.4856E-06
    -48.380  0.2651E-04  0.1917E-04  0.1378E-09  0.1917E-04  0.3549E-08  0.1699E-10  0.1321E-04  0.1699E-10  0.4173E-04
    -48.122  0.2386E-05  0.1073E-05  0.8526E-09  0.1073E-05  0.2284E-08  0.3261E-10  0.1197E-05  0.3261E-10  0.1765E-05
    -47.863 -0.4750E-08 -0.1158E-08 -0.1890E-10 -0.1158E-08 -0.9560E-12  0.1681E-11 -0.2409E-08  0.1681E-11 -0.7579E-09
    -47.604 -0.1576E-14 -0.7377E-15 -0.1858E-14 -0.7377E-15 -0.7207E-15 -0.7941E-15 -0.2307E-14 -0.7941E-15 -0.2670E-15
    -47.346  0.0000E+00  0.0000E+00  0.0000E+00  0.0000E+00  0.0000E+00  0.0000E+00  0.0000E+00  0.0000E+00  0.0000E+00
    -47.087  0.0000E+00  0.0000E+00  0.0000E+00  0.0000E+00  0.0000E+00  0.0000E+00  0.0000E+00  0.0000E+00  0.0000E+00
    -46.829  0.0000E+00  0.0000E+00  0.0000E+00  0.0000E+00  0.0000E+00  0.0000E+00  0.0000E+00  0.0000E+00  0.0000E+00
    -46.570  0.0000E+00  0.0000E+00  0.0000E+00  0.0000E+00  0.0000E+00  0.0000E+00  0.0000E+00  0.0000E+00  0.0000E+00
    -46.312  0.0000E+00  0.0000E+00  0.0000E+00  0.0000E+00  0.0000E+00  0.0000E+00  0.0000E+00  0.0000E+00  0.0000E+00
    -46.053  0.0000E+00  0.0000E+00  0.0000E+00  0.0000E+00  0.0000E+00  0.0000E+00  0.0000E+00  0.0000E+00  0.0000E+00
    -45.795  0.0000E+00  0.0000E+00  0.0000E+00  0.0000E+00  0.0000E+00  0.0000E+00  0.0000E+00  0.0000E+00  0.0000E+00
    -45.536  0.0000E+00  0.0000E+00  0.0000E+00  0.0000E+00  0.0000E+00  0.0000E+00  0.0000E+00  0.0000E+00  0.0000E+00
    -45.278  0.0000E+00  0.0000E+00  0.0000E+00  0.0000E+00  0.0000E+00  0.0000E+00  0.0000E+00  0.0000E+00  0.0000E+00
    -45.019  0.0000E+00  0.0000E+00  0.0000E+00  0.0000E+00  0.0000E+00  0.0000E+00  0.0000E+00  0.0000E+00  0.0000E+00
    -44.761  0.0000E+00  0.0000E+00  0.0000E+00  0.0000E+00  0.0000E+00  0.0000E+00  0.0000E+00  0.0000E+00  0.0000E+00
    -44.502  0.0000E+00  0.0000E+00  0.0000E+00  0.0000E+00  0.0000E+00  0.0000E+00  0.0000E+00  0.0000E+00  0.0000E+00
    -44.244  0.0000E+00  0.0000E+00  0.0000E+00  0.0000E+00  0.0000E+00  0.0000E+00  0.0000E+00  0.0000E+00  0.0000E+00
    -43.985  0.0000E+00  0.0000E+00  0.0000E+00  0.0000E+00  0.0000E+00  0.0000E+00  0.0000E+00  0.0000E+00  0.0000E+00
    -43.727  0.0000E+00  0.0000E+00  0.0000E+00  0.0000E+00  0.0000E+00  0.0000E+00  0.0000E+00  0.0000E+00  0.0000E+00
    -43.468  0.0000E+00  0.0000E+00  0.0000E+00  0.0000E+00  0.0000E+00  0.0000E+00  0.0000E+00  0.0000E+00  0.0000E+00
    -43.209  0.0000E+00  0.0000E+00  0.0000E+00  0.0000E+00  0.0000E+00  0.0000E+00  0.0000E+00  0.0000E+00  0.0000E+00
    -42.951  0.0000E+00  0.0000E+00  0.0000E+00  0.0000E+00  0.0000E+00  0.0000E+00  0.0000E+00  0.0000E+00  0.0000E+00
    -42.692  0.0000E+00  0.0000E+00  0.0000E+00  0.0000E+00  0.0000E+00  0.0000E+00  0.0000E+00  0.0000E+00  0.0000E+00
    -42.434  0.0000E+00  0.0000E+00  0.0000E+00  0.0000E+00  0.0000E+00  0.0000E+00  0.0000E+00  0.0000E+00  0.0000E+00
    -42.175  0.0000E+00  0.0000E+00  0.0000E+00  0.0000E+00  0.0000E+00  0.0000E+00  0.0000E+00  0.0000E+00  0.0000E+00
    -41.917  0.0000E+00  0.0000E+00  0.0000E+00  0.0000E+00  0.0000E+00  0.0000E+00  0.0000E+00  0.0000E+00  0.0000E+00
    -41.658  0.0000E+00  0.0000E+00  0.0000E+00  0.0000E+00  0.0000E+00  0.0000E+00  0.0000E+00  0.0000E+00  0.0000E+00
    -41.400  0.0000E+00  0.0000E+00  0.0000E+00  0.0000E+00  0.0000E+00  0.0000E+00  0.0000E+00  0.0000E+00  0.0000E+00
    -41.141  0.0000E+00  0.0000E+00  0.0000E+00  0.0000E+00  0.0000E+00  0.0000E+00  0.0000E+00  0.0000E+00  0.0000E+00
    -40.883  0.0000E+00  0.0000E+00  0.0000E+00  0.0000E+00  0.0000E+00  0.0000E+00  0.0000E+00  0.0000E+00  0.0000E+00
    -40.624  0.0000E+00  0.0000E+00  0.0000E+00  0.0000E+00  0.0000E+00  0.0000E+00  0.0000E+00  0.0000E+00  0.0000E+00
    -40.366  0.0000E+00  0.0000E+00  0.0000E+00  0.0000E+00  0.0000E+00  0.0000E+00  0.0000E+00  0.0000E+00  0.0000E+00
    -40.107  0.0000E+00  0.0000E+00  0.0000E+00  0.0000E+00  0.0000E+00  0.0000E+00  0.0000E+00  0.0000E+00  0.0000E+00
    -39.849  0.0000E+00  0.0000E+00  0.0000E+00  0.0000E+00  0.0000E+00  0.0000E+00  0.0000E+00  0.0000E+00  0.0000E+00
    -39.590  0.0000E+00  0.0000E+00  0.0000E+00  0.0000E+00  0.0000E+00  0.0000E+00  0.0000E+00  0.0000E+00  0.0000E+00
    -39.332  0.0000E+00  0.0000E+00  0.0000E+00  0.0000E+00  0.0000E+00  0.0000E+00  0.0000E+00  0.0000E+00  0.0000E+00
    -39.073  0.0000E+00  0.0000E+00  0.0000E+00  0.0000E+00  0.0000E+00  0.0000E+00  0.0000E+00  0.0000E+00  0.0000E+00
    -38.815  0.0000E+00  0.0000E+00  0.0000E+00  0.0000E+00  0.0000E+00  0.0000E+00  0.0000E+00  0.0000E+00  0.0000E+00
    -38.556  0.0000E+00  0.0000E+00  0.0000E+00  0.0000E+00  0.0000E+00  0.0000E+00  0.0000E+00  0.0000E+00  0.0000E+00
    -38.297  0.0000E+00  0.0000E+00  0.0000E+00  0.0000E+00  0.0000E+00  0.0000E+00  0.0000E+00  0.0000E+00  0.0000E+00
    -38.039  0.0000E+00  0.0000E+00  0.0000E+00  0.0000E+00  0.0000E+00  0.0000E+00  0.0000E+00  0.0000E+00  0.0000E+00
    -37.780  0.0000E+00  0.0000E+00  0.0000E+00  0.0000E+00  0.0000E+00  0.0000E+00  0.0000E+00  0.0000E+00  0.0000E+00
    -37.522  0.0000E+00  0.0000E+00  0.0000E+00  0.0000E+00  0.0000E+00  0.0000E+00  0.0000E+00  0.0000E+00  0.0000E+00
    -37.263  0.0000E+00  0.0000E+00  0.0000E+00  0.0000E+00  0.0000E+00  0.0000E+00  0.0000E+00  0.0000E+00  0.0000E+00
    -37.005  0.0000E+00  0.0000E+00  0.0000E+00  0.0000E+00  0.0000E+00  0.0000E+00  0.0000E+00  0.0000E+00  0.0000E+00
    -36.746  0.0000E+00  0.0000E+00  0.0000E+00  0.0000E+00  0.0000E+00  0.0000E+00  0.0000E+00  0.0000E+00  0.0000E+00
    -36.488  0.0000E+00  0.0000E+00  0.0000E+00  0.0000E+00  0.0000E+00  0.0000E+00  0.0000E+00  0.0000E+00  0.0000E+00
    -36.229  0.0000E+00  0.0000E+00  0.0000E+00  0.0000E+00  0.0000E+00  0.0000E+00  0.0000E+00  0.0000E+00  0.0000E+00
    -35.971  0.0000E+00  0.0000E+00  0.0000E+00  0.0000E+00  0.0000E+00  0.0000E+00  0.0000E+00  0.0000E+00  0.0000E+00
    -35.712  0.0000E+00  0.0000E+00  0.0000E+00  0.0000E+00  0.0000E+00  0.0000E+00  0.0000E+00  0.0000E+00  0.0000E+00
    -35.454  0.0000E+00  0.0000E+00  0.0000E+00  0.0000E+00  0.0000E+00  0.0000E+00  0.0000E+00  0.0000E+00  0.0000E+00
    -35.195  0.0000E+00  0.0000E+00  0.0000E+00  0.0000E+00  0.0000E+00  0.0000E+00  0.0000E+00  0.0000E+00  0.0000E+00
    -34.937  0.0000E+00  0.0000E+00  0.0000E+00  0.0000E+00  0.0000E+00  0.0000E+00  0.0000E+00  0.0000E+00  0.0000E+00
    -34.678  0.0000E+00  0.0000E+00  0.0000E+00  0.0000E+00  0.0000E+00  0.0000E+00  0.0000E+00  0.0000E+00  0.0000E+00
    -34.420  0.0000E+00  0.0000E+00  0.0000E+00  0.0000E+00  0.0000E+00  0.0000E+00  0.0000E+00  0.0000E+00  0.0000E+00
    -34.161  0.0000E+00  0.0000E+00  0.0000E+00  0.0000E+00  0.0000E+00  0.0000E+00  0.0000E+00  0.0000E+00  0.0000E+00
    -33.902  0.0000E+00  0.0000E+00  0.0000E+00  0.0000E+00  0.0000E+00  0.0000E+00  0.0000E+00  0.0000E+00  0.0000E+00
    -33.644  0.0000E+00  0.0000E+00  0.0000E+00  0.0000E+00  0.0000E+00  0.0000E+00  0.0000E+00  0.0000E+00  0.0000E+00
    -33.385  0.0000E+00  0.0000E+00  0.0000E+00  0.0000E+00  0.0000E+00  0.0000E+00  0.0000E+00  0.0000E+00  0.0000E+00
    -33.127  0.0000E+00  0.0000E+00  0.0000E+00  0.0000E+00  0.0000E+00  0.0000E+00  0.0000E+00  0.0000E+00  0.0000E+00
    -32.868  0.0000E+00  0.0000E+00  0.0000E+00  0.0000E+00  0.0000E+00  0.0000E+00  0.0000E+00  0.0000E+00  0.0000E+00
    -32.610  0.0000E+00  0.0000E+00  0.0000E+00  0.0000E+00  0.0000E+00  0.0000E+00  0.0000E+00  0.0000E+00  0.0000E+00
    -32.351  0.0000E+00  0.0000E+00  0.0000E+00  0.0000E+00  0.0000E+00  0.0000E+00  0.0000E+00  0.0000E+00  0.0000E+00
    -32.093  0.0000E+00  0.0000E+00  0.0000E+00  0.0000E+00  0.0000E+00  0.0000E+00  0.0000E+00  0.0000E+00  0.0000E+00
    -31.834  0.0000E+00  0.0000E+00  0.0000E+00  0.0000E+00  0.0000E+00  0.0000E+00  0.0000E+00  0.0000E+00  0.0000E+00
    -31.576  0.0000E+00  0.0000E+00  0.0000E+00  0.0000E+00  0.0000E+00  0.0000E+00  0.0000E+00  0.0000E+00  0.0000E+00
    -31.317  0.0000E+00  0.0000E+00  0.0000E+00  0.0000E+00  0.0000E+00  0.0000E+00  0.0000E+00  0.0000E+00  0.0000E+00
    -31.059  0.0000E+00  0.0000E+00  0.0000E+00  0.0000E+00  0.0000E+00  0.0000E+00  0.0000E+00  0.0000E+00  0.0000E+00
    -30.800  0.0000E+00  0.0000E+00  0.0000E+00  0.0000E+00  0.0000E+00  0.0000E+00  0.0000E+00  0.0000E+00  0.0000E+00
    -30.542  0.0000E+00  0.0000E+00  0.0000E+00  0.0000E+00  0.0000E+00  0.0000E+00  0.0000E+00  0.0000E+00  0.0000E+00
    -30.283  0.0000E+00  0.0000E+00  0.0000E+00  0.0000E+00  0.0000E+00  0.0000E+00  0.0000E+00  0.0000E+00  0.0000E+00
    -30.025  0.0000E+00  0.0000E+00  0.0000E+00  0.0000E+00  0.0000E+00  0.0000E+00  0.0000E+00  0.0000E+00  0.0000E+00
    -29.766  0.0000E+00  0.0000E+00  0.0000E+00  0.0000E+00  0.0000E+00  0.0000E+00  0.0000E+00  0.0000E+00  0.0000E+00
    -29.507  0.0000E+00  0.0000E+00  0.0000E+00  0.0000E+00  0.0000E+00  0.0000E+00  0.0000E+00  0.0000E+00  0.0000E+00
    -29.249  0.0000E+00  0.0000E+00  0.0000E+00  0.0000E+00  0.0000E+00  0.0000E+00  0.0000E+00  0.0000E+00  0.0000E+00
    -28.990  0.0000E+00  0.0000E+00  0.0000E+00  0.0000E+00  0.0000E+00  0.0000E+00  0.0000E+00  0.0000E+00  0.0000E+00
    -28.732  0.0000E+00  0.0000E+00  0.0000E+00  0.0000E+00  0.0000E+00  0.0000E+00  0.0000E+00  0.0000E+00  0.0000E+00
    -28.473  0.0000E+00  0.0000E+00  0.0000E+00  0.0000E+00  0.0000E+00  0.0000E+00  0.0000E+00  0.0000E+00  0.0000E+00
    -28.215  0.0000E+00  0.0000E+00  0.0000E+00  0.0000E+00  0.0000E+00  0.0000E+00  0.0000E+00  0.0000E+00  0.0000E+00
    -27.956  0.0000E+00  0.0000E+00  0.0000E+00  0.0000E+00  0.0000E+00  0.0000E+00  0.0000E+00  0.0000E+00  0.0000E+00
    -27.698  0.0000E+00  0.0000E+00  0.0000E+00  0.0000E+00  0.0000E+00  0.0000E+00  0.0000E+00  0.0000E+00  0.0000E+00
    -27.439  0.0000E+00  0.0000E+00  0.0000E+00  0.0000E+00  0.0000E+00  0.0000E+00  0.0000E+00  0.0000E+00  0.0000E+00
    -27.181  0.0000E+00  0.0000E+00  0.0000E+00  0.0000E+00  0.0000E+00  0.0000E+00  0.0000E+00  0.0000E+00  0.0000E+00
    -26.922  0.0000E+00  0.0000E+00  0.0000E+00  0.0000E+00  0.0000E+00  0.0000E+00  0.0000E+00  0.0000E+00  0.0000E+00
    -26.664  0.0000E+00  0.0000E+00  0.0000E+00  0.0000E+00  0.0000E+00  0.0000E+00  0.0000E+00  0.0000E+00  0.0000E+00
    -26.405  0.0000E+00  0.0000E+00  0.0000E+00  0.0000E+00  0.0000E+00  0.0000E+00  0.0000E+00  0.0000E+00  0.0000E+00
    -26.147  0.0000E+00  0.0000E+00  0.0000E+00  0.0000E+00  0.0000E+00  0.0000E+00  0.0000E+00  0.0000E+00  0.0000E+00
    -25.888 -0.1783E-50 -0.3394E-48 -0.1951E-57 -0.3394E-48 -0.2450E-49 -0.3168E-55 -0.5755E-51 -0.3168E-55 -0.1384E-50
    -25.630 -0.1553E-30 -0.1850E-28 -0.1499E-32 -0.1850E-28 -0.1789E-29 -0.3883E-33 -0.5019E-31 -0.3883E-33 -0.1191E-30
    -25.371 -0.3238E-16 -0.1369E-14 -0.1688E-17 -0.1369E-14 -0.1781E-15 -0.7935E-18 -0.1055E-16 -0.7935E-18 -0.2077E-16
    -25.113 -0.5350E-07 -0.1250E-06 -0.2396E-08 -0.1250E-06 -0.1975E-07 -0.2183E-08 -0.1765E-07 -0.2183E-08 -0.2958E-07
    -24.854  0.1201E-03  0.7377E-04  0.3903E-05  0.7377E-04  0.8883E-05  0.4592E-05  0.3966E-04  0.4592E-05  0.5964E-04
    -24.595  0.1159E-02  0.6946E-03  0.2003E-04  0.6946E-03  0.3908E-04  0.3275E-04  0.3837E-03  0.3275E-04  0.1241E-02
    -24.337 -0.8309E-05 -0.1236E-05  0.1124E-07 -0.1236E-05  0.2132E-04 -0.2765E-06 -0.2524E-05 -0.2765E-06 -0.1148E-04
    -24.078 -0.2831E-08  0.6748E-06 -0.2838E-09  0.6748E-06  0.1072E-05  0.7251E-09 -0.1411E-08  0.7251E-09 -0.7897E-08
    -23.820 -0.3660E-12 -0.3586E-09 -0.2217E-12 -0.3586E-09 -0.6010E-09 -0.5955E-11 -0.2029E-12 -0.5955E-11 -0.1676E-11
    -23.561 -0.3275E-19 -0.5330E-17 -0.2862E-19 -0.5330E-17 -0.3571E-18 -0.3906E-17 -0.2025E-19 -0.3906E-17 -0.8559E-19
    -23.303  0.0000E+00  0.0000E+00  0.0000E+00  0.0000E+00  0.0000E+00  0.0000E+00  0.0000E+00  0.0000E+00  0.0000E+00
    -23.044  0.0000E+00  0.0000E+00  0.0000E+00  0.0000E+00  0.0000E+00  0.0000E+00  0.0000E+00  0.0000E+00  0.0000E+00
    -22.786  0.0000E+00  0.0000E+00  0.0000E+00  0.0000E+00  0.0000E+00  0.0000E+00  0.0000E+00  0.0000E+00  0.0000E+00
    -22.527  0.0000E+00  0.0000E+00  0.0000E+00  0.0000E+00  0.0000E+00  0.0000E+00  0.0000E+00  0.0000E+00  0.0000E+00
    -22.269  0.0000E+00  0.0000E+00  0.0000E+00  0.0000E+00  0.0000E+00  0.0000E+00  0.0000E+00  0.0000E+00  0.0000E+00
    -22.010  0.0000E+00  0.0000E+00  0.0000E+00  0.0000E+00  0.0000E+00  0.0000E+00  0.0000E+00  0.0000E+00  0.0000E+00
    -21.752  0.0000E+00  0.0000E+00  0.0000E+00  0.0000E+00  0.0000E+00  0.0000E+00  0.0000E+00  0.0000E+00  0.0000E+00
    -21.493  0.0000E+00  0.0000E+00  0.0000E+00  0.0000E+00  0.0000E+00  0.0000E+00  0.0000E+00  0.0000E+00  0.0000E+00
    -21.235  0.0000E+00  0.0000E+00  0.0000E+00  0.0000E+00  0.0000E+00  0.0000E+00  0.0000E+00  0.0000E+00  0.0000E+00
    -20.976  0.0000E+00  0.0000E+00  0.0000E+00  0.0000E+00  0.0000E+00  0.0000E+00  0.0000E+00  0.0000E+00  0.0000E+00
    -20.718  0.0000E+00  0.0000E+00  0.0000E+00  0.0000E+00  0.0000E+00  0.0000E+00  0.0000E+00  0.0000E+00  0.0000E+00
    -20.459  0.0000E+00  0.0000E+00  0.0000E+00  0.0000E+00  0.0000E+00  0.0000E+00  0.0000E+00  0.0000E+00  0.0000E+00
    -20.200  0.0000E+00  0.0000E+00  0.0000E+00  0.0000E+00  0.0000E+00  0.0000E+00  0.0000E+00  0.0000E+00  0.0000E+00
    -19.942  0.0000E+00  0.0000E+00  0.0000E+00  0.0000E+00  0.0000E+00  0.0000E+00  0.0000E+00  0.0000E+00  0.0000E+00
    -19.683  0.0000E+00  0.0000E+00  0.0000E+00  0.0000E+00  0.0000E+00  0.0000E+00  0.0000E+00  0.0000E+00  0.0000E+00
    -19.425  0.0000E+00  0.0000E+00  0.0000E+00  0.0000E+00  0.0000E+00  0.0000E+00  0.0000E+00  0.0000E+00  0.0000E+00
    -19.166  0.0000E+00  0.0000E+00  0.0000E+00  0.0000E+00  0.0000E+00  0.0000E+00  0.0000E+00  0.0000E+00  0.0000E+00
    -18.908  0.0000E+00  0.0000E+00  0.0000E+00  0.0000E+00  0.0000E+00  0.0000E+00  0.0000E+00  0.0000E+00  0.0000E+00
    -18.649  0.0000E+00  0.0000E+00  0.0000E+00  0.0000E+00  0.0000E+00  0.0000E+00  0.0000E+00  0.0000E+00  0.0000E+00
    -18.391  0.0000E+00  0.0000E+00  0.0000E+00  0.0000E+00  0.0000E+00  0.0000E+00  0.0000E+00  0.0000E+00  0.0000E+00
    -18.132  0.0000E+00  0.0000E+00  0.0000E+00  0.0000E+00  0.0000E+00  0.0000E+00  0.0000E+00  0.0000E+00  0.0000E+00
    -17.874  0.0000E+00  0.0000E+00  0.0000E+00  0.0000E+00  0.0000E+00  0.0000E+00  0.0000E+00  0.0000E+00  0.0000E+00
    -17.615  0.0000E+00  0.0000E+00  0.0000E+00  0.0000E+00  0.0000E+00  0.0000E+00  0.0000E+00  0.0000E+00  0.0000E+00
    -17.357  0.0000E+00  0.0000E+00  0.0000E+00  0.0000E+00  0.0000E+00  0.0000E+00  0.0000E+00  0.0000E+00  0.0000E+00
    -17.098  0.0000E+00  0.0000E+00  0.0000E+00  0.0000E+00  0.0000E+00  0.0000E+00  0.0000E+00  0.0000E+00  0.0000E+00
    -16.840  0.0000E+00  0.0000E+00  0.0000E+00  0.0000E+00  0.0000E+00  0.0000E+00  0.0000E+00  0.0000E+00  0.0000E+00
    -16.581  0.0000E+00  0.0000E+00  0.0000E+00  0.0000E+00  0.0000E+00  0.0000E+00  0.0000E+00  0.0000E+00  0.0000E+00
    -16.323  0.0000E+00  0.0000E+00  0.0000E+00  0.0000E+00  0.0000E+00  0.0000E+00  0.0000E+00  0.0000E+00  0.0000E+00
    -16.064  0.0000E+00  0.0000E+00  0.0000E+00  0.0000E+00  0.0000E+00  0.0000E+00  0.0000E+00  0.0000E+00  0.0000E+00
    -15.805  0.0000E+00  0.0000E+00  0.0000E+00  0.0000E+00  0.0000E+00  0.0000E+00  0.0000E+00  0.0000E+00  0.0000E+00
    -15.547  0.0000E+00  0.0000E+00  0.0000E+00  0.0000E+00  0.0000E+00  0.0000E+00  0.0000E+00  0.0000E+00  0.0000E+00
    -15.288  0.0000E+00  0.0000E+00  0.0000E+00  0.0000E+00  0.0000E+00  0.0000E+00  0.0000E+00  0.0000E+00  0.0000E+00
    -15.030  0.0000E+00  0.0000E+00  0.0000E+00  0.0000E+00  0.0000E+00  0.0000E+00  0.0000E+00  0.0000E+00  0.0000E+00
    -14.771  0.0000E+00  0.0000E+00  0.0000E+00  0.0000E+00  0.0000E+00  0.0000E+00  0.0000E+00  0.0000E+00  0.0000E+00
    -14.513  0.0000E+00  0.0000E+00  0.0000E+00  0.0000E+00  0.0000E+00  0.0000E+00  0.0000E+00  0.0000E+00  0.0000E+00
    -14.254  0.0000E+00  0.0000E+00  0.0000E+00  0.0000E+00  0.0000E+00  0.0000E+00  0.0000E+00  0.0000E+00  0.0000E+00
    -13.996  0.0000E+00  0.0000E+00  0.0000E+00  0.0000E+00  0.0000E+00  0.0000E+00  0.0000E+00  0.0000E+00  0.0000E+00
    -13.737  0.0000E+00  0.0000E+00  0.0000E+00  0.0000E+00  0.0000E+00  0.0000E+00  0.0000E+00  0.0000E+00  0.0000E+00
    -13.479  0.0000E+00  0.0000E+00  0.0000E+00  0.0000E+00  0.0000E+00  0.0000E+00  0.0000E+00  0.0000E+00  0.0000E+00
    -13.220  0.0000E+00  0.0000E+00  0.0000E+00  0.0000E+00  0.0000E+00  0.0000E+00  0.0000E+00  0.0000E+00  0.0000E+00
    -12.962  0.0000E+00  0.0000E+00  0.0000E+00  0.0000E+00  0.0000E+00  0.0000E+00  0.0000E+00  0.0000E+00  0.0000E+00
    -12.703  0.0000E+00  0.0000E+00  0.0000E+00  0.0000E+00  0.0000E+00  0.0000E+00  0.0000E+00  0.0000E+00  0.0000E+00
    -12.445  0.0000E+00  0.0000E+00  0.0000E+00  0.0000E+00  0.0000E+00  0.0000E+00  0.0000E+00  0.0000E+00  0.0000E+00
    -12.186  0.0000E+00  0.0000E+00  0.0000E+00  0.0000E+00  0.0000E+00  0.0000E+00  0.0000E+00  0.0000E+00  0.0000E+00
    -11.928  0.0000E+00  0.0000E+00  0.0000E+00  0.0000E+00  0.0000E+00  0.0000E+00  0.0000E+00  0.0000E+00  0.0000E+00
    -11.669  0.0000E+00  0.0000E+00  0.0000E+00  0.0000E+00  0.0000E+00  0.0000E+00  0.0000E+00  0.0000E+00  0.0000E+00