   16   16    1    1
  0.1619388E+02  0.5606952E-09  0.5606952E-09  0.8241707E-09  0.5000000E-15
  1.000000000000000E-004
  CAR 
 unknown system                          
    121    180    128
 
  0.0000000E+00  0.0000000E+00  0.0000000E+00  0.5555556E-02
      1        -48.474076   1.000000
      2        -48.449519   1.000000
      3        -48.385778   1.000000
      4        -48.370216   1.000000
      5        -48.362413   1.000000
      6        -48.226501   1.000000
      7        -48.169853   1.000000
      8        -24.875106   1.000000
      9        -24.875106   1.000000
     10        -24.824393   1.000000
     11        -24.808063   1.000000
     12        -24.808063   1.000000
     13        -24.798488   1.000000
     14        -24.787314   1.000000
     15        -24.780952   1.000000
     16        -24.780952   1.000000
     17        -24.765862   1.000000
     18        -24.733039   1.000000
     19        -24.733039   1.000000
     20        -24.718850   1.000000
     21        -24.588576   1.000000
     22        -24.561932   1.000000
     23        -24.379255   1.000000
     24        -24.379255   1.000000
     25        -24.291850   1.000000
     26        -24.291850   1.000000
     27        -24.230284   1.000000
     28        -24.230284   1.000000
     29         -6.554890   1.000000
     30         -6.554380   1.000000
     31         -6.554380   1.000000
     32         -6.545735   1.000000
     33         -6.510422   1.000000
     34         -1.367359   1.000000
     35          0.407278   1.000000
     36          1.423647   1.000000
     37          3.421326   1.000000
     38          3.421326   1.000000
     39          3.447867   1.000000
     40          3.447867   1.000000
     41          3.460096   1.000000
     42          3.753443   1.000000
     43          4.823938   1.000000
     44          5.231862   1.000000
     45          5.235480   1.000000
     46          5.682958   1.000000
     47          6.074990   1.000000
     48          6.134003   1.000000
     49          6.134003   1.000000
     50          6.423242   1.000000
     51          6.423242   1.000000
     52          6.576468   1.000000
     53          6.752366   1.000000
     54          6.752366   1.000000
     55          7.127241   1.000000
     56          7.281501   1.000000
     57          7.464350   1.000000
     58          7.691532   1.000000
     59          7.691532   1.000000
     60          7.765253   1.000000
     61          7.782493   1.000000
     62          8.247059   0.556382
     63          8.324660   0.036950
     64          8.324660   0.036950
     65          8.949873  -0.000000
     66          9.354468  -0.000000
     67          9.630909  -0.000000
     68          9.915710  -0.000000
     69         10.023092  -0.000000
     70         10.053870  -0.000000
     71         10.054996  -0.000000
     72         10.118209  -0.000000
     73         10.226624  -0.000000
     74         10.226624  -0.000000
     75         10.501868   0.000000
     76         10.501868   0.000000
     77         10.524576   0.000000
     78         10.736614   0.000000
     79         10.736614   0.000000
     80         10.915508   0.000000
     81         11.244289   0.000000
     82         11.418416   0.000000
     83         11.418416   0.000000
     84         11.604823   0.000000
     85         11.604823   0.000000
     86         11.641698   0.000000
     87         12.222241   0.000000
     88         12.479951   0.000000
     89         12.511051   0.000000
     90         12.532961   0.000000
     91         12.852066   0.000000
     92         12.852066   0.000000
     93         12.939169   0.000000
     94         13.153001   0.000000
     95         13.199959   0.000000
     96         13.199959   0.000000
     97         13.568934   0.000000
     98         13.590919   0.000000
     99         14.158947   0.000000
    100         14.348837   0.000000
    101         15.622353   0.000000
    102         15.622353   0.000000
    103         16.008867   0.000000
    104         16.253803   0.000000
    105         16.340873   0.000000
    106         16.416298   0.000000
    107         16.416298   0.000000
    108         17.220027   0.000000
    109         17.226590   0.000000
    110         17.527659   0.000000
    111         17.527659   0.000000
    112         18.702553   0.000000
    113         18.737765   0.000000
    114         18.737765   0.000000
    115         19.150888   0.000000
    116         19.211753   0.000000
    117         19.838963   0.000000
    118         19.838963   0.000000
    119         20.384326   0.000000
    120         20.384326   0.000000
    121         20.733596   0.000000
    122         20.788373   0.000000
    123         20.833574   0.000000
    124         20.833574   0.000000
    125         20.852809   0.000000
    126         21.368285   0.000000
    127         21.412893   0.000000
    128         21.413003   0.000000
 
  0.0000000E+00  0.2631579E-01  0.0000000E+00  0.5555556E-02
      1        -48.474012   1.000000
      2        -48.449521   1.000000
      3        -48.385709   1.000000
      4        -48.370278   1.000000
      5        -48.362415   1.000000
      6        -48.226528   1.000000
      7        -48.169895   1.000000
      8        -24.875055   1.000000
      9        -24.874354   1.000000
     10        -24.824328   1.000000
     11        -24.807947   1.000000
     12        -24.807246   1.000000
     13        -24.798495   1.000000
     14        -24.787254   1.000000
     15        -24.780996   1.000000
     16        -24.780900   1.000000
     17        -24.765868   1.000000
     18        -24.733151   1.000000
     19        -24.732287   1.000000
     20        -24.718914   1.000000
     21        -24.588595   1.000000
     22        -24.561979   1.000000
     23        -24.380104   1.000000
     24        -24.379258   1.000000
     25        -24.292699   1.000000
     26        -24.291800   1.000000
     27        -24.231090   1.000000
     28        -24.230335   1.000000
     29         -6.554871   1.000000
     30         -6.554379   1.000000
     31         -6.554371   1.000000
     32         -6.545676   1.000000
     33         -6.510412   1.000000
     34         -1.364140   1.000000
     35          0.409938   1.000000
     36          1.423458   1.000000
     37          3.286792   1.000000
     38          3.423286   1.000000
     39          3.428303   1.000000
     40          3.450682   1.000000
     41          3.535328   1.000000
     42          3.821782   1.000000
     43          4.837409   1.000000
     44          5.231678   1.000000
     45          5.241841   1.000000
     46          5.671811   1.000000
     47          6.068493   1.000000
     48          6.125653   1.000000
     49          6.133098   1.000000
     50          6.401321   1.000000
     51          6.431374   1.000000
     52          6.598882   1.000000
     53          6.752383   1.000000
     54          6.752599   1.000000
     55          7.136516   1.000000
     56          7.281404   1.000000
     57          7.466245   1.000000
     58          7.589411   1.000000
     59          7.693312   1.000000
     60          7.784398   1.000000
     61          7.845943   1.000000
     62          8.268487   0.376676
     63          8.320967   0.050176
     64          8.327449   0.027836
     65          8.951778  -0.000000
     66          9.356678  -0.000000
     67          9.628919  -0.000000
     68          9.914499  -0.000000
     69         10.023098  -0.000000
     70         10.053184  -0.000000
     71         10.067387  -0.000000
     72         10.117197  -0.000000
     73         10.220464  -0.000000
     74         10.227597  -0.000000
     75         10.482562   0.000000
     76         10.501896   0.000000
     77         10.533615   0.000000
     78         10.733000   0.000000
     79         10.735956   0.000000
     80         10.911769   0.000000
     81         11.215682   0.000000
     82         11.417686   0.000000
     83         11.435478   0.000000
     84         11.605165   0.000000
     85         11.605399   0.000000
     86         11.638304   0.000000
     87         12.223098   0.000000
     88         12.480121   0.000000
     89         12.501394   0.000000
     90         12.531755   0.000000
     91         12.853802   0.000000
     92         12.867039   0.000000
     93         12.944182   0.000000
     94         13.154931   0.000000
     95         13.201358   0.000000
     96         13.208041   0.000000
     97         13.578034   0.000000
     98         13.593678   0.000000
     99         14.163546   0.000000
    100         14.351022   0.000000
    101         15.621610   0.000000
    102         15.635640   0.000000
    103         16.017664   0.000000
    104         16.236205   0.000000
    105         16.308482   0.000000
    106         16.378867   0.000000
    107         16.420731   0.000000
    108         17.221667   0.000000
    109         17.224401   0.000000
    110         17.518335   0.000000
    111         17.595719   0.000000
    112         18.696133   0.000000
    113         18.705647   0.000000
    114         18.739389   0.000000
    115         19.160845   0.000000
    116         19.221861   0.000000
    117         19.840983   0.000000
    118         19.889141   0.000000
    119         20.361568   0.000000
    120         20.368707   0.000000
    121         20.461195   0.000000
    122         20.753627   0.000000
    123         20.813201   0.000000
    124         20.814565   0.000000
    125         21.129105   0.000000
    126         21.236978   0.000000
    127         21.368376   0.000000
    128         21.468416   0.000000
 
  0.0000000E+00  0.5263158E-01  0.0000000E+00  0.5555556E-02
      1        -48.473825   1.000000
      2        -48.449529   1.000000
      3        -48.385505   1.000000
      4        -48.370462   1.000000
      5        -48.362425   1.000000
      6        -48.226609   1.000000
      7        -48.170018   1.000000
      8        -24.874912   1.000000
      9        -24.872110   1.000000
     10        -24.824136   1.000000
     11        -24.807616   1.000000
     12        -24.804807   1.000000
     13        -24.798515   1.000000
     14        -24.787070   1.000000
     15        -24.781129   1.000000
     16        -24.780746   1.000000
     17        -24.765886   1.000000
     18        -24.733482   1.000000
     19        -24.730028   1.000000
     20        -24.719091   1.000000
     21        -24.588646   1.000000
     22        -24.562105   1.000000
     23        -24.382664   1.000000
     24        -24.379269   1.000000
     25        -24.295257   1.000000
     26        -24.291652   1.000000
     27        -24.233519   1.000000
     28        -24.230488   1.000000
     29         -6.554816   1.000000
     30         -6.554375   1.000000
     31         -6.554344   1.000000
     32         -6.545498   1.000000
     33         -6.510381   1.000000
     34         -1.354493   1.000000
     35          0.417907   1.000000
     36          1.422522   1.000000
     37          3.117162   1.000000
     38          3.372828   1.000000
     39          3.429151   1.000000
     40          3.459117   1.000000
     41          3.573585   1.000000
     42          3.980503   1.000000
     43          4.872877   1.000000
     44          5.220231   1.000000
     45          5.273387   1.000000
     46          5.637578   1.000000
     47          6.051348   1.000000
     48          6.100709   1.000000
     49          6.130390   1.000000
     50          6.360291   1.000000
     51          6.453386   1.000000
     52          6.644184   1.000000
     53          6.752514   1.000000
     54          6.753636   1.000000
     55          7.159099   1.000000
     56          7.281129   1.000000
     57          7.448875   1.000000
     58          7.475078   1.000000
     59          7.698797   1.000000
     60          7.789911   1.000000
     61          7.922717   1.000015
     62          8.309994   0.097496
     63          8.332037   0.014434
     64          8.335736   0.005016
     65          8.957599  -0.000000
     66          9.363264  -0.000000
     67          9.622903  -0.000000
     68          9.909674  -0.000000
     69         10.023056  -0.000000
     70         10.051213  -0.000000
     71         10.103570  -0.000000
     72         10.115616  -0.000000
     73         10.201670  -0.000000
     74         10.230874  -0.000000
     75         10.445670   0.000000
     76         10.501979   0.000000
     77         10.542153   0.000000
     78         10.720483   0.000000
     79         10.733998   0.000000
     80         10.900652   0.000000
     81         11.150227   0.000000
     82         11.415340   0.000000
     83         11.466472   0.000000
     84         11.606208   0.000000
     85         11.608300   0.000000
     86         11.628168   0.000000
     87         12.225215   0.000000
     88         12.471386   0.000000
     89         12.478811   0.000000
     90         12.533233   0.000000
     91         12.859124   0.000000
     92         12.906381   0.000000
     93         12.959124   0.000000
     94         13.165978   0.000000
     95         13.205372   0.000000
     96         13.232415   0.000000
     97         13.599927   0.000000
     98         13.605771   0.000000
     99         14.177243   0.000000
    100         14.357744   0.000000
    101         15.619375   0.000000
    102         15.672985   0.000000
    103         16.043605   0.000000
    104         16.134059   0.000000
    105         16.186267   0.000000
    106         16.379646   0.000000
    107         16.433936   0.000000
    108         17.225964   0.000000
    109         17.227308   0.000000
    110         17.491066   0.000000
    111         17.755709   0.000000
    112         18.584811   0.000000
    113         18.714577   0.000000
    114         18.744222   0.000000
    115         19.194728   0.000000
    116         19.252159   0.000000
    117         19.843052   0.000000
    118         20.020274   0.000000
    119         20.133929   0.000000
    120         20.293297   0.000000
    121         20.311368   0.000000
    122         20.726382   0.000000
    123         20.727933   0.000000
    124         20.759822   0.000000
    125         21.020892   0.000000
    126         21.243091   0.000000
    127         21.451871   0.000000
    128         21.529888   0.000000
 
  0.0000000E+00  0.7894737E-01  0.0000000E+00  0.5555556E-02
      1        -48.473517   1.000000
      2        -48.449541   1.000000
      3        -48.385170   1.000000
      4        -48.370765   1.000000
      5        -48.362442   1.000000
      6        -48.226740   1.000000
      7        -48.170219   1.000000
      8        -24.874679   1.000000
      9        -24.868403   1.000000
     10        -24.823817   1.000000
     11        -24.807068   1.000000
     12        -24.800754   1.000000
     13        -24.798546   1.000000
     14        -24.786767   1.000000
     15        -24.781350   1.000000
     16        -24.780471   1.000000
     17        -24.765917   1.000000
     18        -24.734032   1.000000
     19        -24.726293   1.000000
     20        -24.719380   1.000000
     21        -24.588728   1.000000
     22        -24.562311   1.000000
     23        -24.386904   1.000000
     24        -24.379289   1.000000
     25        -24.299492   1.000000
     26        -24.291412   1.000000
     27        -24.237537   1.000000
     28        -24.230741   1.000000
     29         -6.554730   1.000000
     30         -6.554370   1.000000
     31         -6.554300   1.000000
     32         -6.545203   1.000000
     33         -6.510332   1.000000
     34         -1.338449   1.000000
     35          0.431182   1.000000
     36          1.419695   1.000000
     37          2.948256   1.000000
     38          3.289074   1.000000
     39          3.438895   1.000000
     40          3.473163   1.000000
     41          3.599358   1.000000
     42          4.170105   1.000000
     43          4.918707   1.000000
     44          5.201034   1.000000
     45          5.330194   1.000000
     46          5.579081   1.000000
     47          6.028549   1.000000
     48          6.059589   1.000000
     49          6.125938   1.000000
     50          6.324776   1.000000
     51          6.484144   1.000000
     52          6.694002   1.000000
     53          6.753003   1.000000
     54          6.756328   1.000000
     55          7.165451   1.000000
     56          7.280729   1.000000
     57          7.335516   1.000000
     58          7.483850   1.000000
     59          7.708390   1.000000
     60          7.798111   1.000000
     61          7.970620   1.000233
     62          8.292040   0.200717
     63          8.349289  -0.019873
     64          8.427863  -0.016788
     65          8.967667  -0.000000
     66          9.374089  -0.000000
     67          9.612765  -0.000000
     68          9.897741  -0.000000
     69         10.023563  -0.000000
     70         10.048208  -0.000000
     71         10.116915  -0.000000
     72         10.159267  -0.000000
     73         10.169343  -0.000000
     74         10.238927  -0.000000
     75         10.400566   0.000000
     76         10.502113   0.000000
     77         10.546643   0.000000
     78         10.695808   0.000000
     79         10.730782   0.000000
     80         10.882455   0.000000
     81         11.068425   0.000000
     82         11.410944   0.000000
     83         11.491388   0.000000
     84         11.608002   0.000000
     85         11.611423   0.000000
     86         11.616305   0.000000
     87         12.226390   0.000000
     88         12.429177   0.000000
     89         12.466649   0.000000
     90         12.544499   0.000000
     91         12.868382   0.000000
     92         12.954437   0.000000
     93         12.983750   0.000000
     94         13.201952   0.000000
     95         13.211490   0.000000
     96         13.273338   0.000000
     97         13.614319   0.000000
     98         13.643497   0.000000
     99         14.199688   0.000000
    100         14.369465   0.000000
    101         15.615639   0.000000
    102         15.723642   0.000000
    103         15.888377   0.000000
    104         16.085242   0.000000
    105         16.115922   0.000000
    106         16.400899   0.000000
    107         16.455651   0.000000
    108         17.235396   0.000000
    109         17.238517   0.000000
    110         17.448006   0.000000
    111         17.949846   0.000000
    112         18.430553   0.000000
    113         18.728371   0.000000
    114         18.752107   0.000000
    115         19.253419   0.000000
    116         19.302438   0.000000
    117         19.746536   0.000000
    118         19.908690   0.000000
    119         20.180518   0.000000
    120         20.187193   0.000000
    121         20.199240   0.000000
    122         20.648212   0.000000
    123         20.675814   0.000000
    124         20.688059   0.000000
    125         20.789548   0.000000
    126         21.052407   0.000000
    127         21.607011   0.000000
    128         21.663078   0.000000
 
  0.0000000E+00  0.1052632E+00  0.0000000E+00  0.5555556E-02
      1        -48.473093   1.000000
      2        -48.449560   1.000000
      3        -48.384704   1.000000
      4        -48.371180   1.000000
      5        -48.362473   1.000000
      6        -48.226919   1.000000
      7        -48.170495   1.000000
      8        -24.874358   1.000000
      9        -24.863303   1.000000
     10        -24.823375   1.000000
     11        -24.806308   1.000000
     12        -24.798593   1.000000
     13        -24.795132   1.000000
     14        -24.786344   1.000000
     15        -24.781647   1.000000
     16        -24.780038   1.000000
     17        -24.765964   1.000000
     18        -24.734790   1.000000
     19        -24.721114   1.000000
     20        -24.719777   1.000000
     21        -24.588839   1.000000
     22        -24.562592   1.000000
     23        -24.392789   1.000000
     24        -24.379312   1.000000
     25        -24.305359   1.000000
     26        -24.291075   1.000000
     27        -24.243106   1.000000
     28        -24.231087   1.000000
     29         -6.554620   1.000000
     30         -6.554362   1.000000
     31         -6.554241   1.000000
     32         -6.544795   1.000000
     33         -6.510265   1.000000
     34         -1.316063   1.000000
     35          0.449749   1.000000
     36          1.412926   1.000000
     37          2.788087   1.000000
     38          3.185417   1.000000
     39          3.452470   1.000000
     40          3.492797   1.000000
     41          3.626574   1.000000
     42          4.370140   1.000000
     43          4.963794   1.000000
     44          5.174037   1.000000
     45          5.414339   1.000000
     46          5.497111   1.000000
     47          6.003190   1.000000
     48          6.004734   1.000000
     49          6.119957   1.000000
     50          6.303334   1.000000
     51          6.518700   1.000000
     52          6.744875   1.000000
     53          6.754252   1.000000
     54          6.761653   1.000000
     55          7.078528   1.000000
     56          7.280268   1.000000
     57          7.319031   1.000000
     58          7.499087   1.000000
     59          7.722710   1.000000
     60          7.807287   1.000000
     61          8.001965   1.001069
     62          8.267560   0.384261
     63          8.367742  -0.034220
     64          8.537577  -0.000224
     65          8.982577  -0.000000
     66          9.388942  -0.000000
     67          9.598481  -0.000000
     68          9.874354  -0.000000
     69         10.026812  -0.000000
     70         10.044559  -0.000000
     71         10.122312  -0.000000
     72         10.124059  -0.000000
     73         10.212018  -0.000000
     74         10.271459   0.000000
     75         10.351978   0.000000
     76         10.502291   0.000000
     77         10.548820   0.000000
     78         10.657071   0.000000
     79         10.726387   0.000000
     80         10.857718   0.000000
     81         10.978391   0.000000
     82         11.403865   0.000000
     83         11.502869   0.000000
     84         11.588298   0.000000
     85         11.610637   0.000000
     86         11.632172   0.000000
     87         12.221728   0.000000
     88         12.379293   0.000000
     89         12.445829   0.000000
     90         12.566656   0.000000
     91         12.882171   0.000000
     92         12.996761   0.000000
     93         13.017969   0.000000
     94         13.218987   0.000000
     95         13.279480   0.000000
     96         13.330878   0.000000
     97         13.632847   0.000000
     98         13.690331   0.000000
     99         14.230322   0.000000
    100         14.386874   0.000000
    101         15.610385   0.000000
    102         15.612777   0.000000
    103         15.750958   0.000000
    104         16.063924   0.000000
    105         16.139762   0.000000
    106         16.430871   0.000000
    107         16.485589   0.000000
    108         17.251801   0.000000
    109         17.256555   0.000000
    110         17.392953   0.000000
    111         18.148591   0.000000
    112         18.253809   0.000000
    113         18.745553   0.000000
    114         18.762540   0.000000
    115         19.331855   0.000000
    116         19.371725   0.000000
    117         19.431420   0.000000
    118         19.907782   0.000000
    119         19.990884   0.000000
    120         20.027470   0.000000
    121         20.394638   0.000000
    122         20.533191   0.000000
    123         20.579586   0.000000
    124         20.636824   0.000000
    125         20.641226   0.000000
    126         20.813412   0.000000
    127         21.614112   0.000000
    128         21.694744   0.000000
 
  0.0000000E+00  0.1315789E+00  0.0000000E+00  0.5555556E-02
      1        -48.472562   1.000000
      2        -48.449584   1.000000
      3        -48.384117   1.000000
      4        -48.371697   1.000000
      5        -48.362523   1.000000
      6        -48.227139   1.000000
      7        -48.170836   1.000000
      8        -24.873958   1.000000
      9        -24.856896   1.000000
     10        -24.822825   1.000000
     11        -24.805343   1.000000
     12        -24.798655   1.000000
     13        -24.787978   1.000000
     14        -24.785811   1.000000
     15        -24.782019   1.000000
     16        -24.779382   1.000000
     17        -24.766028   1.000000
     18        -24.735756   1.000000
     19        -24.720272   1.000000
     20        -24.714521   1.000000
     21        -24.588974   1.000000
     22        -24.562942   1.000000
     23        -24.400284   1.000000
     24        -24.379338   1.000000
     25        -24.312812   1.000000
     26        -24.290649   1.000000
     27        -24.250187   1.000000
     28        -24.231519   1.000000
     29         -6.554496   1.000000
     30         -6.554353   1.000000
     31         -6.554169   1.000000
     32         -6.544278   1.000000
     33         -6.510181   1.000000
     34         -1.287410   1.000000
     35          0.473587   1.000000
     36          1.399103   1.000000
     37          2.642076   1.000000
     38          3.068798   1.000000
     39          3.469809   1.000000
     40          3.517983   1.000000
     41          3.658568   1.000000
     42          4.574139   1.000000
     43          5.003069   1.000000
     44          5.139374   1.000000
     45          5.395321   1.000000
     46          5.522711   1.000000
     47          5.932966   1.000000
     48          5.983077   1.000000
     49          6.113091   1.000000
     50          6.295987   1.000000
     51          6.553343   1.000000
     52          6.756808   1.000000
     53          6.770386   1.000000
     54          6.796776   1.000000
     55          6.940822   1.000000
     56          7.279813   1.000000
     57          7.356863   1.000000
     58          7.519735   1.000000
     59          7.742489   1.000000
     60          7.814790   1.000000
     61          8.028940   1.003312
     62          8.237115   0.638541
     63          8.390630  -0.032846
     64          8.645185  -0.000000
     65          9.003093  -0.000000
     66          9.407606  -0.000000
     67          9.580350  -0.000000
     68          9.837497  -0.000000
     69         10.034923  -0.000000
     70         10.040756  -0.000000
     71         10.059920  -0.000000
     72         10.137868  -0.000000
     73         10.230489  -0.000000
     74         10.303590   0.000000
     75         10.356279   0.000000
     76         10.502509   0.000000
     77         10.550074   0.000000
     78         10.604983   0.000000
     79         10.720960   0.000000
     80         10.827245   0.000000
     81         10.884127   0.000000
     82         11.393372   0.000000
     83         11.498085   0.000000
     84         11.559096   0.000000
     85         11.614247   0.000000
     86         11.657410   0.000000
     87         12.204853   0.000000
     88         12.329041   0.000000
     89         12.418751   0.000000
     90         12.598205   0.000000
     91         12.901373   0.000000
     92         13.038428   0.000000
     93         13.061993   0.000000
     94         13.227090   0.000000
     95         13.397145   0.000000
     96         13.404679   0.000000
     97         13.655853   0.000000
     98         13.741194   0.000000
     99         14.268396   0.000000
    100         14.410755   0.000000
    101         15.323793   0.000000
    102         15.603603   0.000000
    103         15.689279   0.000000
    104         16.098668   0.000000
    105         16.202066   0.000000
    106         16.466547   0.000000
    107         16.523822   0.000000
    108         17.274492   0.000000
    109         17.281533   0.000000
    110         17.331744   0.000000
    111         18.066219   0.000000
    112         18.338170   0.000000
    113         18.764227   0.000000
    114         18.772788   0.000000
    115         19.099636   0.000000
    116         19.423940   0.000000
    117         19.456063   0.000000
    118         19.745514   0.000000
    119         19.844721   0.000000
    120         19.932522   0.000000
    121         20.325358   0.000000
    122         20.412188   0.000000
    123         20.542470   0.000000
    124         20.577917   0.000000
    125         20.631100   0.000000
    126         20.660409   0.000000
    127         21.425429   0.000000
    128         21.582250   0.000000
 
  0.0000000E+00  0.1578947E+00  0.0000000E+00  0.5555556E-02
      1        -48.471937   1.000000
      2        -48.449614   1.000000
      3        -48.383415   1.000000
      4        -48.372307   1.000000
      5        -48.362597   1.000000
      6        -48.227396   1.000000
      7        -48.171238   1.000000
      8        -24.873493   1.000000
      9        -24.849323   1.000000
     10        -24.822170   1.000000
     11        -24.804187   1.000000
     12        -24.798728   1.000000
     13        -24.785171   1.000000
     14        -24.782465   1.000000
     15        -24.779410   1.000000
     16        -24.778341   1.000000
     17        -24.766121   1.000000
     18        -24.736924   1.000000
     19        -24.720855   1.000000
     20        -24.706597   1.000000
     21        -24.589128   1.000000
     22        -24.563353   1.000000
     23        -24.409331   1.000000
     24        -24.379378   1.000000
     25        -24.321786   1.000000