       N       E                     dE             d eps       ncg     rms          rms(c)
DAV:   1     0.879674446570E+03    0.87967E+03   -0.59410E+04 46080   0.111E+03
DAV:   2    -0.174801490316E+02   -0.89715E+03   -0.85597E+03 48640   0.292E+02
DAV:   3    -0.904617295351E+02   -0.72982E+02   -0.71444E+02 88704   0.678E+01
DAV:   4    -0.928956773071E+02   -0.24339E+01   -0.24332E+01 48128   0.108E+01
DAV:   5    -0.929517575103E+02   -0.56080E-01   -0.56078E-01 67968   0.160E+00
DAV:   6    -0.929535379585E+02   -0.17804E-02   -0.17804E-02 57856   0.277E-01
DAV:   7    -0.929536166939E+02   -0.78735E-04   -0.78735E-04 73664   0.566E-02
DAV:   8    -0.929536189046E+02   -0.22107E-05   -0.22102E-05 50624   0.787E-03
   1 F= -.92953619E+02 E0= -.92952823E+02  d E =-.238694E-02
