  16  16   1   0
  0.1615369E+02  0.5645286E-09  0.5645286E-09  0.8109983E-09  0.5000000E-15
  1.000000000000000E-004
  CAR 
 unknown system                          
     24.56772421    -51.80942533  301      8.25607747      1.00000000
    -51.809  0.0000E+00  0.0000E+00
    -51.555  0.0000E+00  0.0000E+00
    -51.300  0.0000E+00  0.0000E+00
    -51.046  0.0000E+00  0.0000E+00
    -50.791  0.0000E+00  0.0000E+00
    -50.536  0.0000E+00  0.0000E+00
    -50.282  0.0000E+00  0.0000E+00
    -50.027  0.0000E+00  0.0000E+00
    -49.773  0.0000E+00  0.0000E+00
    -49.518  0.0000E+00  0.0000E+00
    -49.264 -0.5834E-36 -0.1485E-36
    -49.009 -0.2189E-18 -0.5573E-19
    -48.754 -0.1821E-06 -0.4635E-07
    -48.500 -0.3660E+00 -0.9317E-01
    -48.245  0.4727E+02  0.1194E+02
    -47.991  0.1597E+02  0.1601E+02
    -47.736 -0.2528E-01  0.1600E+02
    -47.481 -0.3360E-09  0.1600E+02
    -47.227  0.0000E+00  0.1600E+02
    -46.972  0.0000E+00  0.1600E+02
    -46.718  0.0000E+00  0.1600E+02
    -46.463  0.0000E+00  0.1600E+02
    -46.208  0.0000E+00  0.1600E+02
    -45.954  0.0000E+00  0.1600E+02
    -45.699  0.0000E+00  0.1600E+02
    -45.445  0.0000E+00  0.1600E+02
    -45.190  0.0000E+00  0.1600E+02
    -44.935  0.0000E+00  0.1600E+02
    -44.681  0.0000E+00  0.1600E+02
    -44.426  0.0000E+00  0.1600E+02
    -44.172  0.0000E+00  0.1600E+02
    -43.917  0.0000E+00  0.1600E+02
    -43.663  0.0000E+00  0.1600E+02
    -43.408  0.0000E+00  0.1600E+02
    -43.153  0.0000E+00  0.1600E+02
    -42.899  0.0000E+00  0.1600E+02
    -42.644  0.0000E+00  0.1600E+02
    -42.390  0.0000E+00  0.1600E+02
    -42.135  0.0000E+00  0.1600E+02
    -41.880  0.0000E+00  0.1600E+02
    -41.626  0.0000E+00  0.1600E+02
    -41.371  0.0000E+00  0.1600E+02
    -41.117  0.0000E+00  0.1600E+02
    -40.862  0.0000E+00  0.1600E+02
    -40.607  0.0000E+00  0.1600E+02
    -40.353  0.0000E+00  0.1600E+02
    -40.098  0.0000E+00  0.1600E+02
    -39.844  0.0000E+00  0.1600E+02
    -39.589  0.0000E+00  0.1600E+02
    -39.334  0.0000E+00  0.1600E+02
    -39.080  0.0000E+00  0.1600E+02
    -38.825  0.0000E+00  0.1600E+02
    -38.571  0.0000E+00  0.1600E+02
    -38.316  0.0000E+00  0.1600E+02
    -38.062  0.0000E+00  0.1600E+02
    -37.807  0.0000E+00  0.1600E+02
    -37.552  0.0000E+00  0.1600E+02
    -37.298  0.0000E+00  0.1600E+02
    -37.043  0.0000E+00  0.1600E+02
    -36.789  0.0000E+00  0.1600E+02
    -36.534  0.0000E+00  0.1600E+02
    -36.279  0.0000E+00  0.1600E+02
    -36.025  0.0000E+00  0.1600E+02
    -35.770  0.0000E+00  0.1600E+02
    -35.516  0.0000E+00  0.1600E+02
    -35.261  0.0000E+00  0.1600E+02
    -35.006  0.0000E+00  0.1600E+02
    -34.752  0.0000E+00  0.1600E+02
    -34.497  0.0000E+00  0.1600E+02
    -34.243  0.0000E+00  0.1600E+02
    -33.988  0.0000E+00  0.1600E+02
    -33.733  0.0000E+00  0.1600E+02
    -33.479  0.0000E+00  0.1600E+02
    -33.224  0.0000E+00  0.1600E+02
    -32.970  0.0000E+00  0.1600E+02
    -32.715  0.0000E+00  0.1600E+02
    -32.461  0.0000E+00  0.1600E+02
    -32.206  0.0000E+00  0.1600E+02
    -31.951  0.0000E+00  0.1600E+02
    -31.697  0.0000E+00  0.1600E+02
    -31.442  0.0000E+00  0.1600E+02
    -31.188  0.0000E+00  0.1600E+02
    -30.933  0.0000E+00  0.1600E+02
    -30.678  0.0000E+00  0.1600E+02
    -30.424  0.0000E+00  0.1600E+02
    -30.169  0.0000E+00  0.1600E+02
    -29.915  0.0000E+00  0.1600E+02
    -29.660  0.0000E+00  0.1600E+02
    -29.405  0.0000E+00  0.1600E+02
    -29.151  0.0000E+00  0.1600E+02
    -28.896  0.0000E+00  0.1600E+02
    -28.642  0.0000E+00  0.1600E+02
    -28.387  0.0000E+00  0.1600E+02
    -28.133  0.0000E+00  0.1600E+02
    -27.878  0.0000E+00  0.1600E+02
    -27.623  0.0000E+00  0.1600E+02
    -27.369  0.0000E+00  0.1600E+02
    -27.114  0.0000E+00  0.1600E+02
    -26.860  0.0000E+00  0.1600E+02
    -26.605  0.0000E+00  0.1600E+02
    -26.350  0.0000E+00  0.1600E+02
    -26.096  0.0000E+00  0.1600E+02
    -25.841  0.0000E+00  0.1600E+02
    -25.587 -0.7558E-28  0.1600E+02
    -25.332 -0.1205E-12  0.1600E+02
    -25.077 -0.4655E-03  0.1600E+02
    -24.823 -0.1631E+01  0.1558E+02
    -24.568  0.1081E+03  0.4311E+02
    -24.314  0.5772E+02  0.5781E+02
    -24.059  0.2451E+02  0.6405E+02
    -23.804 -0.1794E+00  0.6400E+02
    -23.550 -0.3899E-07  0.6400E+02
    -23.295  0.0000E+00  0.6400E+02
    -23.041  0.0000E+00  0.6400E+02
    -22.786  0.0000E+00  0.6400E+02
    -22.532  0.0000E+00  0.6400E+02
    -22.277  0.0000E+00  0.6400E+02
    -22.022  0.0000E+00  0.6400E+02
    -21.768  0.0000E+00  0.6400E+02
    -21.513  0.0000E+00  0.6400E+02
    -21.259  0.0000E+00  0.6400E+02
    -21.004  0.0000E+00  0.6400E+02
    -20.749  0.0000E+00  0.6400E+02
    -20.495  0.0000E+00  0.6400E+02
    -20.240  0.0000E+00  0.6400E+02
    -19.986  0.0000E+00  0.6400E+02
    -19.731  0.0000E+00  0.6400E+02
    -19.476  0.0000E+00  0.6400E+02
    -19.222  0.0000E+00  0.6400E+02
    -18.967  0.0000E+00  0.6400E+02
    -18.713  0.0000E+00  0.6400E+02
    -18.458  0.0000E+00  0.6400E+02
    -18.203  0.0000E+00  0.6400E+02
    -17.949  0.0000E+00  0.6400E+02
    -17.694  0.0000E+00  0.6400E+02
    -17.440  0.0000E+00  0.6400E+02
    -17.185  0.0000E+00  0.6400E+02
    -16.931  0.0000E+00  0.6400E+02
    -16.676  0.0000E+00  0.6400E+02
    -16.421  0.0000E+00  0.6400E+02
    -16.167  0.0000E+00  0.6400E+02
    -15.912  0.0000E+00  0.6400E+02
    -15.658  0.0000E+00  0.6400E+02
    -15.403  0.0000E+00  0.6400E+02
    -15.148  0.0000E+00  0.6400E+02
    -14.894  0.0000E+00  0.6400E+02
    -14.639  0.0000E+00  0.6400E+02
    -14.385  0.0000E+00  0.6400E+02
    -14.130  0.0000E+00  0.6400E+02
    -13.875  0.0000E+00  0.6400E+02
    -13.621  0.0000E+00  0.6400E+02
    -13.366  0.0000E+00  0.6400E+02
    -13.112  0.0000E+00  0.6400E+02
    -12.857  0.0000E+00  0.6400E+02
    -12.602  0.0000E+00  0.6400E+02
    -12.348  0.0000E+00  0.6400E+02
    -12.093  0.0000E+00  0.6400E+02
    -11.839  0.0000E+00  0.6400E+02
    -11.584  0.0000E+00  0.6400E+02
    -11.330  0.0000E+00  0.6400E+02
    -11.075  0.0000E+00  0.6400E+02
    -10.820  0.0000E+00  0.6400E+02
    -10.566  0.0000E+00  0.6400E+02
    -10.311  0.0000E+00  0.6400E+02
    -10.057  0.0000E+00  0.6400E+02
     -9.802  0.0000E+00  0.6400E+02
     -9.547  0.0000E+00  0.6400E+02
     -9.293  0.0000E+00  0.6400E+02
     -9.038  0.0000E+00  0.6400E+02
     -8.784  0.0000E+00  0.6400E+02
     -8.529  0.0000E+00  0.6400E+02
     -8.274  0.0000E+00  0.6400E+02
     -8.020  0.0000E+00  0.6400E+02
     -7.765  0.0000E+00  0.6400E+02
     -7.511  0.0000E+00  0.6400E+02
     -7.256  0.0000E+00  0.6400E+02
     -7.001 -0.2157E-31  0.6400E+02
     -6.747 -0.4651E-15  0.6400E+02
     -6.492 -0.2100E-04  0.6400E+02
     -6.238 -0.1102E+01  0.6372E+02
     -5.983  0.4126E+02  0.7422E+02
     -5.729 -0.8757E+00  0.7400E+02
     -5.474 -0.1379E-03  0.7400E+02
     -5.219  0.0000E+00  0.7400E+02
     -4.965  0.0000E+00  0.7400E+02
     -4.710  0.0000E+00  0.7400E+02
     -4.456  0.0000E+00  0.7400E+02
     -4.201  0.0000E+00  0.7400E+02
     -3.946  0.0000E+00  0.7400E+02
     -3.692  0.0000E+00  0.7400E+02
     -3.437  0.0000E+00  0.7400E+02
     -3.183  0.0000E+00  0.7400E+02
     -2.928  0.0000E+00  0.7400E+02
     -2.673  0.0000E+00  0.7400E+02
     -2.419  0.0000E+00  0.7400E+02
     -2.164  0.0000E+00  0.7400E+02
     -1.910 -0.8957E-44  0.7400E+02
     -1.655 -0.1870E-24  0.7400E+02
     -1.401 -0.8195E-11  0.7400E+02
     -1.146 -0.6543E-03  0.7400E+02
     -0.891  0.3086E+00  0.7408E+02
     -0.637  0.1016E+01  0.7434E+02
     -0.382  0.1040E+01  0.7460E+02
     -0.128  0.1009E+01  0.7486E+02
      0.127  0.1349E+01  0.7520E+02
      0.382  0.2009E+01  0.7571E+02
      0.636  0.2697E+01  0.7640E+02
      0.891  0.2003E+01  0.7691E+02
      1.145  0.3893E+01  0.7790E+02
      1.400  0.2239E+01  0.7847E+02
      1.655  0.3281E+01  0.7931E+02
      1.909  0.3707E+01  0.8025E+02
      2.164  0.4354E+01  0.8136E+02
      2.418  0.3451E+01  0.8224E+02
      2.673  0.3392E+01  0.8310E+02
      2.928  0.2821E+01  0.8382E+02
      3.182  0.2844E+01  0.8454E+02
      3.437  0.2553E+01  0.8519E+02
      3.691  0.5045E+01  0.8648E+02
      3.946  0.4750E+01  0.8769E+02
      4.200  0.2818E+01  0.8840E+02
      4.455  0.7703E+01  0.9037E+02
      4.710  0.3868E+01  0.9135E+02
      4.964  0.4578E+01  0.9252E+02
      5.219  0.5612E+01  0.9394E+02
      5.473  0.8522E+01  0.9611E+02
      5.728  0.7889E+01  0.9812E+02
      5.983  0.7464E+01  0.1000E+03
      6.237  0.7260E+01  0.1019E+03
      6.492  0.9840E+01  0.1044E+03
      6.746  0.1392E+02  0.1079E+03
      7.001  0.9759E+01  0.1104E+03
      7.256  0.9978E+01  0.1129E+03
      7.510  0.1332E+02  0.1163E+03
      7.765  0.1621E+02  0.1205E+03
      8.019  0.1844E+02  0.1252E+03
      8.274  0.1971E+02  0.1302E+03
      8.529  0.9868E+01  0.1327E+03
      8.783  0.8704E+01  0.1349E+03
      9.038  0.1514E+02  0.1388E+03
      9.292  0.1786E+02  0.1433E+03
      9.547  0.8762E+01  0.1455E+03
      9.801  0.1144E+02  0.1485E+03
     10.056  0.2946E+02  0.1560E+03
     10.311  0.2845E+02  0.1632E+03
     10.565  0.1988E+02  0.1683E+03
     10.820  0.2008E+02  0.1734E+03
     11.074  0.7428E+01  0.1753E+03
     11.329  0.6568E+01  0.1769E+03
     11.584  0.7474E+01  0.1788E+03
     11.838  0.9570E+01  0.1813E+03
     12.093  0.1344E+02  0.1847E+03
     12.347  0.1119E+02  0.1875E+03
     12.602  0.1447E+02  0.1912E+03
     12.857  0.9568E+01  0.1937E+03
     13.111  0.6708E+01  0.1954E+03
     13.366  0.7292E+01  0.1972E+03
     13.620  0.8809E+01  0.1995E+03
     13.875  0.8938E+01  0.2017E+03
     14.130  0.1832E+02  0.2064E+03
     14.384  0.1081E+02  0.2092E+03
     14.639  0.8483E+01  0.2113E+03
     14.893  0.6320E+01  0.2129E+03
     15.148  0.6199E+01  0.2145E+03
     15.402  0.7866E+01  0.2165E+03
     15.657  0.7290E+01  0.2184E+03
     15.912  0.5715E+01  0.2198E+03
     16.166  0.5762E+01  0.2213E+03
     16.421  0.8105E+01  0.2234E+03
     16.675  0.1209E+02  0.2264E+03
     16.930  0.7725E+01  0.2284E+03
     17.185  0.7670E+01  0.2303E+03
     17.439  0.8674E+01  0.2326E+03
     17.694  0.8625E+01  0.2348E+03
     17.948  0.8667E+01  0.2370E+03
     18.203  0.1202E+02  0.2400E+03
     18.458  0.8174E+01  0.2421E+03
     18.712  0.7981E+01  0.2441E+03
     18.967  0.8168E+01  0.2462E+03
     19.221  0.7361E+01  0.2481E+03
     19.476  0.8503E+01  0.2502E+03
     19.731  0.5502E+01  0.2517E+03
     19.985  0.4049E+01  0.2527E+03
     20.240  0.4192E+01  0.2537E+03
     20.494  0.3570E+01  0.2547E+03
     20.749  0.3838E+01  0.2556E+03
     21.003  0.1294E+01  0.2560E+03
     21.258  0.1428E+00  0.2560E+03
     21.513 -0.1914E-02  0.2560E+03
     21.767 -0.2397E-08  0.2560E+03
     22.022  0.0000E+00  0.2560E+03
     22.276  0.0000E+00  0.2560E+03
     22.531  0.0000E+00  0.2560E+03
     22.786  0.0000E+00  0.2560E+03
     23.040  0.0000E+00  0.2560E+03
     23.295  0.0000E+00  0.2560E+03
     23.549  0.0000E+00  0.2560E+03
     23.804  0.0000E+00  0.2560E+03
     24.059  0.0000E+00  0.2560E+03
     24.313  0.0000E+00  0.2560E+03
     24.568  0.0000E+00  0.2560E+03
     24.56772421    -51.80942533  301      8.25607747      1.00000000
    -51.809  0.0000E+00  0.0000E+00  0.0000E+00  0.0000E+00  0.0000E+00  0.0000E+00  0.0000E+00  0.0000E+00  0.0000E+00
    -51.555  0.0000E+00  0.0000E+00  0.0000E+00  0.0000E+00  0.0000E+00  0.0000E+00  0.0000E+00  0.0000E+00  0.0000E+00
    -51.300  0.0000E+00  0.0000E+00  0.0000E+00  0.0000E+00  0.0000E+00  0.0000E+00  0.0000E+00  0.0000E+00  0.0000E+00
    -51.046  0.0000E+00  0.0000E+00  0.0000E+00  0.0000E+00  0.0000E+00  0.0000E+00  0.0000E+00  0.0000E+00  0.0000E+00
    -50.791  0.0000E+00  0.0000E+00  0.0000E+00  0.0000E+00  0.0000E+00  0.0000E+00  0.0000E+00  0.0000E+00  0.0000E+00
    -50.536  0.0000E+00  0.0000E+00  0.0000E+00  0.0000E+00  0.0000E+00  0.0000E+00  0.0000E+00  0.0000E+00  0.0000E+00
    -50.282  0.0000E+00  0.0000E+00  0.0000E+00  0.0000E+00  0.0000E+00  0.0000E+00  0.0000E+00  0.0000E+00  0.0000E+00
    -50.027  0.0000E+00  0.0000E+00  0.0000E+00  0.0000E+00  0.0000E+00  0.0000E+00  0.0000E+00  0.0000E+00  0.0000E+00
    -49.773  0.0000E+00  0.0000E+00  0.0000E+00  0.0000E+00  0.0000E+00  0.0000E+00  0.0000E+00  0.0000E+00  0.0000E+00
    -49.518  0.0000E+00  0.0000E+00  0.0000E+00  0.0000E+00  0.0000E+00  0.0000E+00  0.0000E+00  0.0000E+00  0.0000E+00
    -49.264 -0.7244E-37 -0.3613E-43 -0.1860E-44 -0.3613E-43 -0.9068E-45 -0.4036E-45 -0.4894E-42 -0.4036E-45 -0.5294E-44
    -49.009 -0.2718E-19 -0.2180E-25 -0.6975E-27 -0.2180E-25 -0.3407E-27 -0.1515E-27 -0.1798E-24 -0.1515E-27 -0.6168E-26
    -48.754 -0.2261E-07 -0.3804E-13 -0.5789E-15 -0.3804E-13 -0.2851E-15 -0.1260E-15 -0.1405E-12 -0.1260E-15 -0.2028E-13
    -48.500 -0.4548E-01 -0.1888E-06 -0.1154E-08 -0.1888E-06 -0.5909E-09 -0.2539E-09 -0.2456E-06 -0.2539E-09 -0.1663E-06
    -48.245  0.5877E+01  0.2908E-04  0.1482E-06  0.2908E-04  0.7740E-07  0.3285E-07  0.3383E-04  0.3285E-07  0.2860E-04
    -47.991  0.1987E+01  0.8998E-05  0.4976E-07  0.8998E-05  0.2600E-07  0.1113E-07  0.1611E-04  0.1113E-07  0.8797E-05
    -47.736 -0.3147E-02 -0.1007E-07 -0.7861E-10 -0.1007E-07 -0.4039E-10 -0.1765E-10 -0.3318E-07 -0.1765E-10 -0.8454E-08
    -47.481 -0.4184E-10 -0.5441E-16 -0.1043E-17 -0.5441E-16 -0.5267E-18 -0.2349E-18 -0.5684E-15 -0.2349E-18 -0.2738E-16
    -47.227  0.0000E+00  0.0000E+00  0.0000E+00  0.0000E+00  0.0000E+00  0.0000E+00  0.0000E+00  0.0000E+00  0.0000E+00
    -46.972  0.0000E+00  0.0000E+00  0.0000E+00  0.0000E+00  0.0000E+00  0.0000E+00  0.0000E+00  0.0000E+00  0.0000E+00
    -46.718  0.0000E+00  0.0000E+00  0.0000E+00  0.0000E+00  0.0000E+00  0.0000E+00  0.0000E+00  0.0000E+00  0.0000E+00
    -46.463  0.0000E+00  0.0000E+00  0.0000E+00  0.0000E+00  0.0000E+00  0.0000E+00  0.0000E+00  0.0000E+00  0.0000E+00
    -46.208  0.0000E+00  0.0000E+00  0.0000E+00  0.0000E+00  0.0000E+00  0.0000E+00  0.0000E+00  0.0000E+00  0.0000E+00
    -45.954  0.0000E+00  0.0000E+00  0.0000E+00  0.0000E+00  0.0000E+00  0.0000E+00  0.0000E+00  0.0000E+00  0.0000E+00
    -45.699  0.0000E+00  0.0000E+00  0.0000E+00  0.0000E+00  0.0000E+00  0.0000E+00  0.0000E+00  0.0000E+00  0.0000E+00
    -45.445  0.0000E+00  0.0000E+00  0.0000E+00  0.0000E+00  0.0000E+00  0.0000E+00  0.0000E+00  0.0000E+00  0.0000E+00
    -45.190  0.0000E+00  0.0000E+00  0.0000E+00  0.0000E+00  0.0000E+00  0.0000E+00  0.0000E+00  0.0000E+00  0.0000E+00
    -44.935  0.0000E+00  0.0000E+00  0.0000E+00  0.0000E+00  0.0000E+00  0.0000E+00  0.0000E+00  0.0000E+00  0.0000E+00
    -44.681  0.0000E+00  0.0000E+00  0.0000E+00  0.0000E+00  0.0000E+00  0.0000E+00  0.0000E+00  0.0000E+00  0.0000E+00
    -44.426  0.0000E+00  0.0000E+00  0.0000E+00  0.0000E+00  0.0000E+00  0.0000E+00  0.0000E+00  0.0000E+00  0.0000E+00
    -44.172  0.0000E+00  0.0000E+00  0.0000E+00  0.0000E+00  0.0000E+00  0.0000E+00  0.0000E+00  0.0000E+00  0.0000E+00
    -43.917  0.0000E+00  0.0000E+00  0.0000E+00  0.0000E+00  0.0000E+00  0.0000E+00  0.0000E+00  0.0000E+00  0.0000E+00
    -43.663  0.0000E+00  0.0000E+00  0.0000E+00  0.0000E+00  0.0000E+00  0.0000E+00  0.0000E+00  0.0000E+00  0.0000E+00
    -43.408  0.0000E+00  0.0000E+00  0.0000E+00  0.0000E+00  0.0000E+00  0.0000E+00  0.0000E+00  0.0000E+00  0.0000E+00
    -43.153  0.0000E+00  0.0000E+00  0.0000E+00  0.0000E+00  0.0000E+00  0.0000E+00  0.0000E+00  0.0000E+00  0.0000E+00
    -42.899  0.0000E+00  0.0000E+00  0.0000E+00  0.0000E+00  0.0000E+00  0.0000E+00  0.0000E+00  0.0000E+00  0.0000E+00
    -42.644  0.0000E+00  0.0000E+00  0.0000E+00  0.0000E+00  0.0000E+00  0.0000E+00  0.0000E+00  0.0000E+00  0.0000E+00
    -42.390  0.0000E+00  0.0000E+00  0.0000E+00  0.0000E+00  0.0000E+00  0.0000E+00  0.0000E+00  0.0000E+00  0.0000E+00
    -42.135  0.0000E+00  0.0000E+00  0.0000E+00  0.0000E+00  0.0000E+00  0.0000E+00  0.0000E+00  0.0000E+00  0.0000E+00
    -41.880  0.0000E+00  0.0000E+00  0.0000E+00  0.0000E+00  0.0000E+00  0.0000E+00  0.0000E+00  0.0000E+00  0.0000E+00
    -41.626  0.0000E+00  0.0000E+00  0.0000E+00  0.0000E+00  0.0000E+00  0.0000E+00  0.0000E+00  0.0000E+00  0.0000E+00
    -41.371  0.0000E+00  0.0000E+00  0.0000E+00  0.0000E+00  0.0000E+00  0.0000E+00  0.0000E+00  0.0000E+00  0.0000E+00
    -41.117  0.0000E+00  0.0000E+00  0.0000E+00  0.0000E+00  0.0000E+00  0.0000E+00  0.0000E+00  0.0000E+00  0.0000E+00
    -40.862  0.0000E+00  0.0000E+00  0.0000E+00  0.0000E+00  0.0000E+00  0.0000E+00  0.0000E+00  0.0000E+00  0.0000E+00
    -40.607  0.0000E+00  0.0000E+00  0.0000E+00  0.0000E+00  0.0000E+00  0.0000E+00  0.0000E+00  0.0000E+00  0.0000E+00
    -40.353  0.0000E+00  0.0000E+00  0.0000E+00  0.0000E+00  0.0000E+00  0.0000E+00  0.0000E+00  0.0000E+00  0.0000E+00
    -40.098  0.0000E+00  0.0000E+00  0.0000E+00  0.0000E+00  0.0000E+00  0.0000E+00  0.0000E+00  0.0000E+00  0.0000E+00
    -39.844  0.0000E+00  0.0000E+00  0.0000E+00  0.0000E+00  0.0000E+00  0.0000E+00  0.0000E+00  0.0000E+00  0.0000E+00
    -39.589  0.0000E+00  0.0000E+00  0.0000E+00  0.0000E+00  0.0000E+00  0.0000E+00  0.0000E+00  0.0000E+00  0.0000E+00
    -39.334  0.0000E+00  0.0000E+00  0.0000E+00  0.0000E+00  0.0000E+00  0.0000E+00  0.0000E+00  0.0000E+00  0.0000E+00
    -39.080  0.0000E+00  0.0000E+00  0.0000E+00  0.0000E+00  0.0000E+00  0.0000E+00  0.0000E+00  0.0000E+00  0.0000E+00
    -38.825  0.0000E+00  0.0000E+00  0.0000E+00  0.0000E+00  0.0000E+00  0.0000E+00  0.0000E+00  0.0000E+00  0.0000E+00
    -38.571  0.0000E+00  0.0000E+00  0.0000E+00  0.0000E+00  0.0000E+00  0.0000E+00  0.0000E+00  0.0000E+00  0.0000E+00
    -38.316  0.0000E+00  0.0000E+00  0.0000E+00  0.0000E+00  0.0000E+00  0.0000E+00  0.0000E+00  0.0000E+00  0.0000E+00
    -38.062  0.0000E+00  0.0000E+00  0.0000E+00  0.0000E+00  0.0000E+00  0.0000E+00  0.0000E+00  0.0000E+00  0.0000E+00
    -37.807  0.0000E+00  0.0000E+00  0.0000E+00  0.0000E+00  0.0000E+00  0.0000E+00  0.0000E+00  0.0000E+00  0.0000E+00
    -37.552  0.0000E+00  0.0000E+00  0.0000E+00  0.0000E+00  0.0000E+00  0.0000E+00  0.0000E+00  0.0000E+00  0.0000E+00
    -37.298  0.0000E+00  0.0000E+00  0.0000E+00  0.0000E+00  0.0000E+00  0.0000E+00  0.0000E+00  0.0000E+00  0.0000E+00
    -37.043  0.0000E+00  0.0000E+00  0.0000E+00  0.0000E+00  0.0000E+00  0.0000E+00  0.0000E+00  0.0000E+00  0.0000E+00
    -36.789  0.0000E+00  0.0000E+00  0.0000E+00  0.0000E+00  0.0000E+00  0.0000E+00  0.0000E+00  0.0000E+00  0.0000E+00
    -36.534  0.0000E+00  0.0000E+00  0.0000E+00  0.0000E+00  0.0000E+00  0.0000E+00  0.0000E+00  0.0000E+00  0.0000E+00
    -36.279  0.0000E+00  0.0000E+00  0.0000E+00  0.0000E+00  0.0000E+00  0.0000E+00  0.0000E+00  0.0000E+00  0.0000E+00
    -36.025  0.0000E+00  0.0000E+00  0.0000E+00  0.0000E+00  0.0000E+00  0.0000E+00  0.0000E+00  0.0000E+00  0.0000E+00
    -35.770  0.0000E+00  0.0000E+00  0.0000E+00  0.0000E+00  0.0000E+00  0.0000E+00  0.0000E+00  0.0000E+00  0.0000E+00
    -35.516  0.0000E+00  0.0000E+00  0.0000E+00  0.0000E+00  0.0000E+00  0.0000E+00  0.0000E+00  0.0000E+00  0.0000E+00
    -35.261  0.0000E+00  0.0000E+00  0.0000E+00  0.0000E+00  0.0000E+00  0.0000E+00  0.0000E+00  0.0000E+00  0.0000E+00
    -35.006  0.0000E+00  0.0000E+00  0.0000E+00  0.0000E+00  0.0000E+00  0.0000E+00  0.0000E+00  0.0000E+00  0.0000E+00
    -34.752  0.0000E+00  0.0000E+00  0.0000E+00  0.0000E+00  0.0000E+00  0.0000E+00  0.0000E+00  0.0000E+00  0.0000E+00
    -34.497  0.0000E+00  0.0000E+00  0.0000E+00  0.0000E+00  0.0000E+00  0.0000E+00  0.0000E+00  0.0000E+00  0.0000E+00
    -34.243  0.0000E+00  0.0000E+00  0.0000E+00  0.0000E+00  0.0000E+00  0.0000E+00  0.0000E+00  0.0000E+00  0.0000E+00
    -33.988  0.0000E+00  0.0000E+00  0.0000E+00  0.0000E+00  0.0000E+00  0.0000E+00  0.0000E+00  0.0000E+00  0.0000E+00
    -33.733  0.0000E+00  0.0000E+00  0.0000E+00  0.0000E+00  0.0000E+00  0.0000E+00  0.0000E+00  0.0000E+00  0.0000E+00
    -33.479  0.0000E+00  0.0000E+00  0.0000E+00  0.0000E+00  0.0000E+00  0.0000E+00  0.0000E+00  0.0000E+00  0.0000E+00
    -33.224  0.0000E+00  0.0000E+00  0.0000E+00  0.0000E+00  0.0000E+00  0.0000E+00  0.0000E+00  0.0000E+00  0.0000E+00
    -32.970  0.0000E+00  0.0000E+00  0.0000E+00  0.0000E+00  0.0000E+00  0.0000E+00  0.0000E+00  0.0000E+00  0.0000E+00
    -32.715  0.0000E+00  0.0000E+00  0.0000E+00  0.0000E+00  0.0000E+00  0.0000E+00  0.0000E+00  0.0000E+00  0.0000E+00
    -32.461  0.0000E+00  0.0000E+00  0.0000E+00  0.0000E+00  0.0000E+00  0.0000E+00  0.0000E+00  0.0000E+00  0.0000E+00
    -32.206  0.0000E+00  0.0000E+00  0.0000E+00  0.0000E+00  0.0000E+00  0.0000E+00  0.0000E+00  0.0000E+00  0.0000E+00
    -31.951  0.0000E+00  0.0000E+00  0.0000E+00  0.0000E+00  0.0000E+00  0.0000E+00  0.0000E+00  0.0000E+00  0.0000E+00
    -31.697  0.0000E+00  0.0000E+00  0.0000E+00  0.0000E+00  0.0000E+00  0.0000E+00  0.0000E+00  0.0000E+00  0.0000E+00
    -31.442  0.0000E+00  0.0000E+00  0.0000E+00  0.0000E+00  0.0000E+00  0.0000E+00  0.0000E+00  0.0000E+00  0.0000E+00
    -31.188  0.0000E+00  0.0000E+00  0.0000E+00  0.0000E+00  0.0000E+00  0.0000E+00  0.0000E+00  0.0000E+00  0.0000E+00
    -30.933  0.0000E+00  0.0000E+00  0.0000E+00  0.0000E+00  0.0000E+00  0.0000E+00  0.0000E+00  0.0000E+00  0.0000E+00
    -30.678  0.0000E+00  0.0000E+00  0.0000E+00  0.0000E+00  0.0000E+00  0.0000E+00  0.0000E+00  0.0000E+00  0.0000E+00
    -30.424  0.0000E+00  0.0000E+00  0.0000E+00  0.0000E+00  0.0000E+00  0.0000E+00  0.0000E+00  0.0000E+00  0.0000E+00
    -30.169  0.0000E+00  0.0000E+00  0.0000E+00  0.0000E+00  0.0000E+00  0.0000E+00  0.0000E+00  0.0000E+00  0.0000E+00
    -29.915  0.0000E+00  0.0000E+00  0.0000E+00  0.0000E+00  0.0000E+00  0.0000E+00  0.0000E+00  0.0000E+00  0.0000E+00
    -29.660  0.0000E+00  0.0000E+00  0.0000E+00  0.0000E+00  0.0000E+00  0.0000E+00  0.0000E+00  0.0000E+00  0.0000E+00
    -29.405  0.0000E+00  0.0000E+00  0.0000E+00  0.0000E+00  0.0000E+00  0.0000E+00  0.0000E+00  0.0000E+00  0.0000E+00
    -29.151  0.0000E+00  0.0000E+00  0.0000E+00  0.0000E+00  0.0000E+00  0.0000E+00  0.0000E+00  0.0000E+00  0.0000E+00
    -28.896  0.0000E+00  0.0000E+00  0.0000E+00  0.0000E+00  0.0000E+00  0.0000E+00  0.0000E+00  0.0000E+00  0.0000E+00
    -28.642  0.0000E+00  0.0000E+00  0.0000E+00  0.0000E+00  0.0000E+00  0.0000E+00  0.0000E+00  0.0000E+00  0.0000E+00
    -28.387  0.0000E+00  0.0000E+00  0.0000E+00  0.0000E+00  0.0000E+00  0.0000E+00  0.0000E+00  0.0000E+00  0.0000E+00
    -28.133  0.0000E+00  0.0000E+00  0.0000E+00  0.0000E+00  0.0000E+00  0.0000E+00  0.0000E+00  0.0000E+00  0.0000E+00
    -27.878  0.0000E+00  0.0000E+00  0.0000E+00  0.0000E+00  0.0000E+00  0.0000E+00  0.0000E+00  0.0000E+00  0.0000E+00
    -27.623  0.0000E+00  0.0000E+00  0.0000E+00  0.0000E+00  0.0000E+00  0.0000E+00  0.0000E+00  0.0000E+00  0.0000E+00
    -27.369  0.0000E+00  0.0000E+00  0.0000E+00  0.0000E+00  0.0000E+00  0.0000E+00  0.0000E+00  0.0000E+00  0.0000E+00
    -27.114  0.0000E+00  0.0000E+00  0.0000E+00  0.0000E+00  0.0000E+00  0.0000E+00  0.0000E+00  0.0000E+00  0.0000E+00
    -26.860  0.0000E+00  0.0000E+00  0.0000E+00  0.0000E+00  0.0000E+00  0.0000E+00  0.0000E+00  0.0000E+00  0.0000E+00
    -26.605  0.0000E+00  0.0000E+00  0.0000E+00  0.0000E+00  0.0000E+00  0.0000E+00  0.0000E+00  0.0000E+00  0.0000E+00
    -26.350  0.0000E+00  0.0000E+00  0.0000E+00  0.0000E+00  0.0000E+00  0.0000E+00  0.0000E+00  0.0000E+00  0.0000E+00
    -26.096  0.0000E+00  0.0000E+00  0.0000E+00  0.0000E+00  0.0000E+00  0.0000E+00  0.0000E+00  0.0000E+00  0.0000E+00
    -25.841  0.0000E+00  0.0000E+00  0.0000E+00  0.0000E+00  0.0000E+00  0.0000E+00  0.0000E+00  0.0000E+00  0.0000E+00
    -25.587 -0.6524E-35 -0.4203E-29 -0.7964E-30 -0.4203E-29 -0.2568E-35 -0.3454E-36 -0.2503E-35 -0.3454E-36 -0.6399E-35
    -25.332 -0.1375E-19 -0.6405E-14 -0.1861E-14 -0.6405E-14 -0.7712E-20 -0.1422E-20 -0.5494E-20 -0.1422E-20 -0.1455E-19
    -25.077 -0.8369E-10 -0.2153E-04 -0.1371E-04 -0.2153E-04 -0.6774E-10 -0.2488E-10 -0.3473E-10 -0.2488E-10 -0.9394E-10
    -24.823 -0.1449E-05 -0.6926E-02 -0.1868E+00 -0.6926E-02 -0.2961E-06 -0.8740E-06 -0.6197E-06 -0.8740E-06 -0.1682E-05
    -24.568  0.1528E-03  0.2596E+01  0.8060E+01  0.2596E+01  0.2151E-04  0.3162E-04  0.6502E-04  0.3162E-04  0.1618E-03
    -24.314  0.6401E-03  0.3626E+01 -0.1508E+00  0.3626E+01  0.2928E-04 -0.7561E-06  0.2730E-03 -0.7561E-06  0.8745E-03
    -24.059  0.1503E-04  0.1518E+01  0.2031E-03  0.1518E+01  0.5533E-05  0.2355E-07  0.6441E-05  0.2355E-07  0.2047E-04
    -23.804 -0.6574E-07 -0.1112E-01 -0.1698E-05 -0.1112E-01 -0.3628E-07 -0.1792E-09 -0.2827E-07 -0.1792E-09 -0.9478E-07
    -23.550 -0.5181E-14 -0.2417E-08 -0.2679E-12 -0.2417E-08 -0.4194E-14 -0.4367E-16 -0.2239E-14 -0.4367E-16 -0.7467E-14
    -23.295  0.0000E+00  0.0000E+00  0.0000E+00  0.0000E+00  0.0000E+00  0.0000E+00  0.0000E+00  0.0000E+00  0.0000E+00
    -23.041  0.0000E+00  0.0000E+00  0.0000E+00  0.0000E+00  0.0000E+00  0.0000E+00  0.0000E+00  0.0000E+00  0.0000E+00
    -22.786  0.0000E+00  0.0000E+00  0.0000E+00  0.0000E+00  0.0000E+00  0.0000E+00  0.0000E+00  0.0000E+00  0.0000E+00
    -22.532  0.0000E+00  0.0000E+00  0.0000E+00  0.0000E+00  0.0000E+00  0.0000E+00  0.0000E+00  0.0000E+00  0.0000E+00
    -22.277  0.0000E+00  0.0000E+00  0.0000E+00  0.0000E+00  0.0000E+00  0.0000E+00  0.0000E+00  0.0000E+00  0.0000E+00
    -22.022  0.0000E+00  0.0000E+00  0.0000E+00  0.0000E+00  0.0000E+00  0.0000E+00  0.0000E+00  0.0000E+00  0.0000E+00
    -21.768  0.0000E+00  0.0000E+00  0.0000E+00  0.0000E+00  0.0000E+00  0.0000E+00  0.0000E+00  0.0000E+00  0.0000E+00
    -21.513  0.0000E+00  0.0000E+00  0.0000E+00  0.0000E+00  0.0000E+00  0.0000E+00  0.0000E+00  0.0000E+00  0.0000E+00
    -21.259  0.0000E+00  0.0000E+00  0.0000E+00  0.0000E+00  0.0000E+00  0.0000E+00  0.0000E+00  0.0000E+00  0.0000E+00
    -21.004  0.0000E+00  0.0000E+00  0.0000E+00  0.0000E+00  0.0000E+00  0.0000E+00  0.0000E+00  0.0000E+00  0.0000E+00
    -20.749  0.0000E+00  0.0000E+00  0.0000E+00  0.0000E+00  0.0000E+00  0.0000E+00  0.0000E+00  0.0000E+00  0.0000E+00
    -20.495  0.0000E+00  0.0000E+00  0.0000E+00  0.0000E+00  0.0000E+00  0.0000E+00  0.0000E+00  0.0000E+00  0.0000E+00
    -20.240  0.0000E+00  0.0000E+00  0.0000E+00  0.0000E+00  0.0000E+00  0.0000E+00  0.0000E+00  0.0000E+00  0.0000E+00
    -19.986  0.0000E+00  0.0000E+00  0.0000E+00  0.0000E+00  0.0000E+00  0.0000E+00  0.0000E+00  0.0000E+00  0.0000E+00
    -19.731  0.0000E+00  0.0000E+00  0.0000E+00  0.0000E+00  0.0000E+00  0.0000E+00  0.0000E+00  0.0000E+00  0.0000E+00
    -19.476  0.0000E+00  0.0000E+00  0.0000E+00  0.0000E+00  0.0000E+00  0.0000E+00  0.0000E+00  0.0000E+00  0.0000E+00
    -19.222  0.0000E+00  0.0000E+00  0.0000E+00  0.0000E+00  0.0000E+00  0.0000E+00  0.0000E+00  0.0000E+00  0.0000E+00
    -18.967  0.0000E+00  0.0000E+00  0.0000E+00  0.0000E+00  0.0000E+00  0.0000E+00  0.0000E+00  0.0000E+00  0.0000E+00
    -18.713  0.0000E+00  0.0000E+00  0.0000E+00  0.0000E+00  0.0000E+00  0.0000E+00  0.0000E+00  0.0000E+00  0.0000E+00
    -18.458  0.0000E+00  0.0000E+00  0.0000E+00  0.0000E+00  0.0000E+00  0.0000E+00  0.0000E+00  0.0000E+00  0.0000E+00
    -18.203  0.0000E+00  0.0000E+00  0.0000E+00  0.0000E+00  0.0000E+00  0.0000E+00  0.0000E+00  0.0000E+00  0.0000E+00
    -17.949  0.0000E+00  0.0000E+00  0.0000E+00  0.0000E+00  0.0000E+00  0.0000E+00  0.0000E+00  0.0000E+00  0.0000E+00
    -17.694  0.0000E+00  0.0000E+00  0.0000E+00  0.0000E+00  0.0000E+00  0.0000E+00  0.0000E+00  0.0000E+00  0.0000E+00
    -17.440  0.0000E+00  0.0000E+00  0.0000E+00  0.0000E+00  0.0000E+00  0.0000E+00  0.0000E+00  0.0000E+00  0.0000E+00
    -17.185  0.0000E+00  0.0000E+00  0.0000E+00  0.0000E+00  0.0000E+00  0.0000E+00  0.0000E+00  0.0000E+00  0.0000E+00
    -16.931  0.0000E+00  0.0000E+00  0.0000E+00  0.0000E+00  0.0000E+00  0.0000E+00  0.0000E+00  0.0000E+00  0.0000E+00
    -16.676  0.0000E+00  0.0000E+00  0.0000E+00  0.0000E+00  0.0000E+00  0.0000E+00  0.0000E+00  0.0000E+00  0.0000E+00
    -16.421  0.0000E+00  0.0000E+00  0.0000E+00  0.0000E+00  0.0000E+00  0.0000E+00  0.0000E+00  0.0000E+00  0.0000E+00
    -16.167  0.0000E+00  0.0000E+00  0.0000E+00  0.0000E+00  0.0000E+00  0.0000E+00  0.0000E+00  0.0000E+00  0.0000E+00
    -15.912  0.0000E+00  0.0000E+00  0.0000E+00  0.0000E+00  0.0000E+00  0.0000E+00  0.0000E+00  0.0000E+00  0.0000E+00
    -15.658  0.0000E+00  0.0000E+00  0.0000E+00  0.0000E+00  0.0000E+00  0.0000E+00  0.0000E+00  0.0000E+00  0.0000E+00
    -15.403  0.0000E+00  0.0000E+00  0.0000E+00  0.0000E+00  0.0000E+00  0.0000E+00  0.0000E+00  0.0000E+00  0.0000E+00
    -15.148  0.0000E+00  0.0000E+00  0.0000E+00  0.0000E+00  0.0000E+00  0.0000E+00  0.0000E+00  0.0000E+00  0.0000E+00
    -14.894  0.0000E+00  0.0000E+00  0.0000E+00  0.0000E+00  0.0000E+00  0.0000E+00  0.0000E+00  0.0000E+00  0.0000E+00
    -14.639  0.0000E+00  0.0000E+00  0.0000E+00  0.0000E+00  0.0000E+00  0.0000E+00  0.0000E+00  0.0000E+00  0.0000E+00
    -14.385  0.0000E+00  0.0000E+00  0.0000E+00  0.0000E+00  0.0000E+00  0.0000E+00  0.0000E+00  0.0000E+00  0.0000E+00
    -14.130  0.0000E+00  0.0000E+00  0.0000E+00  0.0000E+00  0.0000E+00  0.0000E+00  0.0000E+00  0.0000E+00  0.0000E+00
    -13.875  0.0000E+00  0.0000E+00  0.0000E+00  0.0000E+00  0.0000E+00  0.0000E+00  0.0000E+00  0.0000E+00  0.0000E+00
    -13.621  0.0000E+00  0.0000E+00  0.0000E+00  0.0000E+00  0.0000E+00  0.0000E+00  0.0000E+00  0.0000E+00  0.0000E+00
    -13.366  0.0000E+00  0.0000E+00  0.0000E+00  0.0000E+00  0.0000E+00  0.0000E+00  0.0000E+00  0.0000E+00  0.0000E+00
    -13.112  0.0000E+00  0.0000E+00  0.0000E+00  0.0000E+00  0.0000E+00  0.0000E+00  0.0000E+00  0.0000E+00  0.0000E+00
    -12.857  0.0000E+00  0.0000E+00  0.0000E+00  0.0000E+00  0.0000E+00  0.0000E+00  0.0000E+00  0.0000E+00  0.0000E+00
    -12.602  0.0000E+00  0.0000E+00  0.0000E+00  0.0000E+00  0.0000E+00  0.0000E+00  0.0000E+00  0.0000E+00  0.0000E+00
    -12.348  0.0000E+00  0.0000E+00  0.0000E+00  0.0000E+00  0.0000E+00  0.0000E+00  0.0000E+00  0.0000E+00  0.0000E+00
    -12.093  0.0000E+00  0.0000E+00  0.0000E+00  0.0000E+00  0.0000E+00  0.0000E+00  0.0000E+00  0.0000E+00  0.0000E+00