   16   16    1    1
  0.1615369E+02  0.5645286E-09  0.5645286E-09  0.8109982E-09  0.5000000E-15
  1.000000000000000E-004
  CAR 
 unknown system                          
    130    180    128
 
  0.0000000E+00  0.0000000E+00  0.0000000E+00  0.5555556E-02
      1        -48.337737   1.000000
      2        -48.337101   1.000000
      3        -48.279588   1.000000
      4        -48.279588   1.000000
      5        -48.279108   1.000000
      6        -48.279108   1.000000
      7        -48.223618   1.000000
      8        -48.223159   1.000000
      9        -24.770514   1.000000
     10        -24.766826   1.000000
     11        -24.758204   1.000000
     12        -24.755479   1.000000
     13        -24.753347   1.000000
     14        -24.736286   1.000000
     15        -24.697998   1.000000
     16        -24.697998   1.000000
     17        -24.695285   1.000000
     18        -24.695285   1.000000
     19        -24.690086   1.000000
     20        -24.690086   1.000000
     21        -24.678666   1.000000
     22        -24.678666   1.000000
     23        -24.637044   1.000000
     24        -24.626100   1.000000
     25        -24.287833   1.000000
     26        -24.287833   1.000000
     27        -24.287292   1.000000
     28        -24.287292   1.000000
     29        -24.251437   1.000000
     30        -24.250800   1.000000
     31        -24.240554   1.000000
     32        -24.239945   1.000000
     33         -6.132519   1.000000
     34         -6.113025   1.000000
     35         -6.090063   1.000000
     36         -6.090063   1.000000
     37         -6.062872   1.000000
     38         -0.905039   1.000000
     39          0.571337   1.000000
     40          2.918427   1.000000
     41          3.020059   1.000000
     42          3.428690   1.000000
     43          3.608085   1.000000
     44          3.744950   1.000000
     45          3.744950   1.000000
     46          3.783292   1.000000
     47          5.072157   1.000000
     48          5.346936   1.000000
     49          5.346936   1.000000
     50          5.775629   1.000000
     51          6.006315   1.000000
     52          6.006315   1.000000
     53          6.476762   1.000000
     54          6.580442   1.000000
     55          6.601906   1.000000
     56          7.116480   1.000000
     57          7.139933   1.000000
     58          7.139933   1.000000
     59          7.146821   1.000000
     60          7.458147   1.000000
     61          7.611971   1.000000
     62          7.800608   1.000000
     63          7.800608   1.000000
     64          7.955230   1.000089
     65          7.981126   1.000354
     66          8.038519   1.004353
     67          8.038519   1.004353
     68          8.143232   1.033835
     69          8.143232   1.033835
     70          8.946678  -0.000000
     71          9.709310  -0.000000
     72          9.709310  -0.000000
     73          9.781332  -0.000000
     74         10.041865  -0.000000
     75         10.041865  -0.000000
     76         10.083827  -0.000000
     77         10.083827  -0.000000
     78         10.109496  -0.000000
     79         10.109496  -0.000000
     80         10.427431   0.000000
     81         10.462385   0.000000
     82         10.462385   0.000000
     83         10.575609   0.000000
     84         10.595009   0.000000
     85         10.801844   0.000000
     86         10.803247   0.000000
     87         11.222481   0.000000
     88         11.611196   0.000000
     89         11.622076   0.000000
     90         11.976749   0.000000
     91         12.141406   0.000000
     92         12.474281   0.000000
     93         12.476596   0.000000
     94         12.590413   0.000000
     95         12.590413   0.000000
     96         12.612055   0.000000
     97         12.612055   0.000000
     98         13.086668   0.000000
     99         13.319993   0.000000
    100         13.319993   0.000000
    101         13.626689   0.000000
    102         13.626689   0.000000
    103         13.707875   0.000000
    104         13.781256   0.000000
    105         14.044187   0.000000
    106         14.044187   0.000000
    107         14.264768   0.000000
    108         14.545366   0.000000
    109         14.744441   0.000000
    110         16.254124   0.000000
    111         16.311871   0.000000
    112         16.479847   0.000000
    113         16.585356   0.000000
    114         16.625758   0.000000
    115         16.625758   0.000000
    116         17.825350   0.000000
    117         17.951155   0.000000
    118         18.667772   0.000000
    119         18.667772   0.000000
    120         19.016922   0.000000
    121         19.016922   0.000000
    122         19.404811   0.000000
    123         19.404811   0.000000
    124         19.964871   0.000000
    125         20.519682   0.000000
    126         20.519685   0.000000
    127         20.687033   0.000000
    128         20.687034   0.000000
 
  0.0000000E+00  0.2631579E-01  0.0000000E+00  0.5555556E-02
      1        -48.337638   1.000000
      2        -48.337002   1.000000
      3        -48.279688   1.000000
      4        -48.279493   1.000000
      5        -48.279208   1.000000
      6        -48.279013   1.000000
      7        -48.223714   1.000000
      8        -48.223258   1.000000
      9        -24.770103   1.000000
     10        -24.766394   1.000000
     11        -24.757746   1.000000
     12        -24.755019   1.000000
     13        -24.753205   1.000000
     14        -24.736179   1.000000
     15        -24.698114   1.000000
     16        -24.697441   1.000000
     17        -24.695407   1.000000
     18        -24.694580   1.000000
     19        -24.690196   1.000000
     20        -24.689801   1.000000
     21        -24.678767   1.000000
     22        -24.678541   1.000000
     23        -24.637139   1.000000
     24        -24.626192   1.000000
     25        -24.288672   1.000000
     26        -24.288126   1.000000
     27        -24.287762   1.000000
     28        -24.287220   1.000000
     29        -24.251877   1.000000
     30        -24.251235   1.000000
     31        -24.240970   1.000000
     32        -24.240357   1.000000
     33         -6.132500   1.000000
     34         -6.113028   1.000000
     35         -6.090066   1.000000
     36         -6.090062   1.000000
     37         -6.062863   1.000000
     38         -0.901669   1.000000
     39          0.573756   1.000000
     40          2.907254   1.000000
     41          3.023930   1.000000
     42          3.422015   1.000000
     43          3.508675   1.000000
     44          3.693479   1.000000
     45          3.748380   1.000000
     46          3.946347   1.000000
     47          5.069090   1.000000
     48          5.348200   1.000000
     49          5.363301   1.000000
     50          5.777541   1.000000
     51          5.996378   1.000000
     52          6.005527   1.000000
     53          6.479607   1.000000
     54          6.582274   1.000000
     55          6.603845   1.000000
     56          6.995399   1.000000
     57          7.128865   1.000000
     58          7.145201   1.000000
     59          7.269824   1.000000
     60          7.459523   1.000000
     61          7.613897   1.000000
     62          7.694472   1.000000
     63          7.802640   1.000000
     64          7.951979   1.000074
     65          8.035971   1.003960
     66          8.042344   1.005004
     67          8.085492   1.018293
     68          8.139533   1.034871
     69          8.146056   1.032645
     70          8.948020  -0.000000
     71          9.709028  -0.000000
     72          9.710433  -0.000000
     73          9.794314  -0.000000
     74         10.034939  -0.000000
     75         10.044012  -0.000000
     76         10.076817  -0.000000
     77         10.084638  -0.000000
     78         10.111622  -0.000000
     79         10.112956  -0.000000
     80         10.425970   0.000000
     81         10.462949   0.000000
     82         10.466478   0.000000
     83         10.574454   0.000000
     84         10.593838   0.000000
     85         10.792402   0.000000
     86         10.801969   0.000000
     87         11.213154   0.000000
     88         11.607631   0.000000
     89         11.618878   0.000000
     90         11.979020   0.000000
     91         12.143650   0.000000
     92         12.363586   0.000000
     93         12.469942   0.000000
     94         12.583014   0.000000
     95         12.598649   0.000000
     96         12.611450   0.000000
     97         12.694478   0.000000
     98         13.095686   0.000000
     99         13.321497   0.000000
    100         13.337585   0.000000
    101         13.614492   0.000000
    102         13.638525   0.000000
    103         13.717288   0.000000
    104         13.790565   0.000000
    105         14.045131   0.000000
    106         14.047704   0.000000
    107         14.270240   0.000000
    108         14.545166   0.000000
    109         14.746740   0.000000
    110         16.260749   0.000000
    111         16.321585   0.000000
    112         16.432092   0.000000
    113         16.582272   0.000000
    114         16.596982   0.000000
    115         16.630398   0.000000
    116         17.884575   0.000000
    117         17.944683   0.000000
    118         18.653277   0.000000
    119         18.672157   0.000000
    120         19.018248   0.000000
    121         19.044492   0.000000
    122         19.402713   0.000000
    123         19.408658   0.000000
    124         19.977389   0.000000
    125         20.391193   0.000000
    126         20.513512   0.000000
    127         20.550382   0.000000
    128         20.686035   0.000000
 
  0.0000000E+00  0.5263158E-01  0.0000000E+00  0.5555556E-02
      1        -48.337343   1.000000
      2        -48.336710   1.000000
      3        -48.279988   1.000000
      4        -48.279506   1.000000
      5        -48.279211   1.000000
      6        -48.278727   1.000000
      7        -48.224003   1.000000
      8        -48.223546   1.000000
      9        -24.768977   1.000000
     10        -24.765219   1.000000
     11        -24.756325   1.000000
     12        -24.753531   1.000000
     13        -24.752732   1.000000
     14        -24.735851   1.000000
     15        -24.698459   1.000000
     16        -24.695924   1.000000
     17        -24.695746   1.000000
     18        -24.692460   1.000000
     19        -24.690526   1.000000
     20        -24.688801   1.000000
     21        -24.679066   1.000000
     22        -24.678150   1.000000
     23        -24.637424   1.000000
     24        -24.626470   1.000000
     25        -24.291184   1.000000
     26        -24.290625   1.000000
     27        -24.287552   1.000000
     28        -24.287007   1.000000
     29        -24.253345   1.000000
     30        -24.252676   1.000000
     31        -24.242089   1.000000
     32        -24.241458   1.000000
     33         -6.132445   1.000000
     34         -6.113038   1.000000
     35         -6.090074   1.000000
     36         -6.090056   1.000000
     37         -6.062836   1.000000
     38         -0.891574   1.000000
     39          0.581002   1.000000
     40          2.869726   1.000000
     41          3.035523   1.000000
     42          3.335032   1.000000
     43          3.416935   1.000000
     44          3.688311   1.000000
     45          3.758661   1.000000
     46          4.151938   1.000000
     47          5.059980   1.000000
     48          5.351981   1.000000
     49          5.411069   1.000000
     50          5.783270   1.000000
     51          5.967059   1.000000
     52          6.003153   1.000000
     53          6.488105   1.000000
     54          6.587658   1.000000
     55          6.609657   1.000000
     56          6.851528   1.000000
     57          7.119819   1.000000
     58          7.160974   1.000000
     59          7.395431   1.000000
     60          7.463619   1.000000
     61          7.529826   1.000000
     62          7.619656   1.000000
     63          7.808761   1.000000
     64          7.942295   1.000042
     65          8.028352   1.002954
     66          8.053865   1.007438
     67          8.128511   1.035085
     68          8.154523   1.026666
     69          8.244598   0.596442
     70          8.952044  -0.000000
     71          9.708144  -0.000000
     72          9.713795  -0.000000
     73          9.832381  -0.000000
     74         10.014686  -0.000000
     75         10.050440  -0.000000
     76         10.055879  -0.000000
     77         10.087068  -0.000000
     78         10.117991  -0.000000
     79         10.123291  -0.000000
     80         10.421625   0.000000
     81         10.464597   0.000000
     82         10.478702   0.000000
     83         10.570977   0.000000
     84         10.590366   0.000000
     85         10.762677   0.000000
     86         10.800115   0.000000
     87         11.186206   0.000000
     88         11.596999   0.000000
     89         11.609312   0.000000
     90         11.985462   0.000000
     91         12.150701   0.000000
     92         12.200382   0.000000
     93         12.457135   0.000000
     94         12.560303   0.000000
     95         12.561087   0.000000
     96         12.609623   0.000000
     97         12.831053   0.000000
     98         13.122351   0.000000
     99         13.326130   0.000000
    100         13.389317   0.000000
    101         13.578267   0.000000
    102         13.673110   0.000000
    103         13.744634   0.000000
    104         13.817671   0.000000
    105         14.048264   0.000000
    106         14.059167   0.000000
    107         14.286524   0.000000
    108         14.544499   0.000000
    109         14.753794   0.000000
    110         16.266417   0.000000
    111         16.276150   0.000000
    112         16.363737   0.000000
    113         16.497495   0.000000
    114         16.631657   0.000000
    115         16.644277   0.000000
    116         17.923265   0.000000
    117         18.036663   0.000000
    118         18.610197   0.000000
    119         18.685147   0.000000
    120         19.022212   0.000000
    121         19.120708   0.000000
    122         19.396157   0.000000
    123         19.420084   0.000000
    124         20.014825   0.000000
    125         20.124700   0.000000
    126         20.319353   0.000000
    127         20.495131   0.000000
    128         20.679815   0.000000
 
  0.0000000E+00  0.7894737E-01  0.0000000E+00  0.5555556E-02
      1        -48.336853   1.000000
      2        -48.336223   1.000000
      3        -48.280484   1.000000
      4        -48.280000   1.000000
      5        -48.278737   1.000000
      6        -48.278255   1.000000
      7        -48.224480   1.000000
      8        -48.224024   1.000000
      9        -24.767411   1.000000
     10        -24.763610   1.000000
     11        -24.754118   1.000000
     12        -24.751489   1.000000
     13        -24.750733   1.000000
     14        -24.735295   1.000000
     15        -24.699028   1.000000
     16        -24.696307   1.000000
     17        -24.693976   1.000000
     18        -24.691073   1.000000
     19        -24.689024   1.000000
     20        -24.686567   1.000000
     21        -24.679564   1.000000
     22        -24.677420   1.000000
     23        -24.637895   1.000000
     24        -24.626930   1.000000
     25        -24.295334   1.000000
     26        -24.294761   1.000000
     27        -24.287200   1.000000
     28        -24.286656   1.000000
     29        -24.256151   1.000000
     30        -24.255489   1.000000
     31        -24.243524   1.000000
     32        -24.242898   1.000000
     33         -6.132355   1.000000
     34         -6.113055   1.000000
     35         -6.090088   1.000000
     36         -6.090049   1.000000
     37         -6.062791   1.000000
     38         -0.874763   1.000000
     39          0.593056   1.000000
     40          2.795462   1.000000
     41          3.054796   1.000000
     42          3.187331   1.000000
     43          3.398804   1.000000
     44          3.691990   1.000000
     45          3.775774   1.000000
     46          4.365415   1.000000
     47          5.045121   1.000000
     48          5.358251   1.000000
     49          5.486779   1.000000
     50          5.792788   1.000000
     51          5.919748   1.000000
     52          5.999177   1.000000
     53          6.502165   1.000000
     54          6.595599   1.000000
     55          6.619328   1.000000
     56          6.704300   1.000000
     57          7.105011   1.000000
     58          7.187217   1.000000
     59          7.358425   1.000000
     60          7.470344   1.000000
     61          7.513040   1.000000
     62          7.629194   1.000000
     63          7.819046   1.000000
     64          7.926385   1.000016
     65          8.015735   1.001763
     66          8.072986   1.013272
     67          8.110386   1.029523
     68          8.168622   1.006739
     69          8.406230  -0.027583
     70          8.958741  -0.000000
     71          9.706541  -0.000000
     72          9.719373  -0.000000
     73          9.891188  -0.000000
     74          9.984480  -0.000000
     75         10.021312  -0.000000
     76         10.061119  -0.000000
     77         10.091113  -0.000000
     78         10.128565  -0.000000
     79         10.140398  -0.000000
     80         10.414464   0.000000
     81         10.467217   0.000000
     82         10.498911   0.000000
     83         10.565155   0.000000
     84         10.584715   0.000000
     85         10.714923   0.000000
     86         10.797095   0.000000
     87         11.144385   0.000000
     88         11.579492   0.000000
     89         11.593488   0.000000
     90         11.994978   0.000000
     91         12.026462   0.000000
     92         12.163515   0.000000
     93         12.436494   0.000000
     94         12.501605   0.000000
     95         12.525389   0.000000
     96         12.606544   0.000000
     97         12.961191   0.000000
     98         13.165801   0.000000
     99         13.334252   0.000000
    100         13.472387   0.000000
    101         13.519486   0.000000
    102         13.727586   0.000000
    103         13.787602   0.000000
    104         13.860512   0.000000
    105         14.054746   0.000000
    106         14.080531   0.000000
    107         14.313262   0.000000
    108         14.543134   0.000000
    109         14.766072   0.000000
    110         16.041275   0.000000
    111         16.261619   0.000000
    112         16.395544   0.000000
    113         16.444663   0.000000
    114         16.667279   0.000000
    115         16.688716   0.000000
    116         17.904274   0.000000
    117         18.222840   0.000000
    118         18.540398   0.000000
    119         18.706253   0.000000
    120         19.028787   0.000000
    121         19.225610   0.000000
    122         19.384347   0.000000
    123         19.438816   0.000000
    124         19.827783   0.000000
    125         20.069552   0.000000
    126         20.081701   0.000000
    127         20.464571   0.000000
    128         20.583947   0.000000
 
  0.0000000E+00  0.1052632E+00  0.0000000E+00  0.5555556E-02
      1        -48.336174   1.000000
      2        -48.335544   1.000000
      3        -48.281176   1.000000
      4        -48.280687   1.000000
      5        -48.278082   1.000000
      6        -48.277599   1.000000
      7        -48.225145   1.000000
      8        -48.224688   1.000000
      9        -24.765699   1.000000
     10        -24.761898   1.000000
     11        -24.752443   1.000000
     12        -24.747898   1.000000
     13        -24.746378   1.000000
     14        -24.734463   1.000000
     15        -24.699821   1.000000
     16        -24.697088   1.000000
     17        -24.692256   1.000000
     18        -24.691833   1.000000
     19        -24.684587   1.000000
     20        -24.682468   1.000000
     21        -24.680254   1.000000
     22        -24.676065   1.000000
     23        -24.638552   1.000000
     24        -24.627569   1.000000
     25        -24.301114   1.000000
     26        -24.300485   1.000000
     27        -24.286704   1.000000
     28        -24.286167   1.000000
     29        -24.260666   1.000000
     30        -24.259995   1.000000
     31        -24.244944   1.000000
     32        -24.244310   1.000000
     33         -6.132232   1.000000
     34         -6.113078   1.000000
     35         -6.090110   1.000000
     36         -6.090039   1.000000
     37         -6.062731   1.000000
     38         -0.851260   1.000000
     39          0.609878   1.000000
     40          2.678120   1.000000
     41          3.064835   1.000000
     42          3.081703   1.000000
     43          3.386189   1.000000
     44          3.701084   1.000000
     45          3.799684   1.000000
     46          4.582207   1.000000
     47          5.025288   1.000000
     48          5.366962   1.000000
     49          5.585938   1.000000
     50          5.806053   1.000000
     51          5.856512   1.000000
     52          5.993573   1.000000
     53          6.521644   1.000000
     54          6.545123   1.000000
     55          6.615809   1.000000
     56          6.632853   1.000000
     57          7.084620   1.000000
     58          7.185867   1.000000
     59          7.223862   1.000000
     60          7.479532   1.000000
     61          7.621244   1.000000
     62          7.642591   1.000000
     63          7.833610   1.000000
     64          7.904591   1.000004
     65          7.998244   1.000810
     66          8.085535   1.018312
     67          8.099608   1.024700
     68          8.188326   0.951777
     69          8.563965  -0.000060
     70          8.968098  -0.000000
     71          9.704021  -0.000000
     72          9.727132  -0.000000
     73          9.917723  -0.000000
     74          9.972531  -0.000000
     75          9.996930  -0.000000
     76         10.075964  -0.000000
     77         10.096794  -0.000000
     78         10.143286  -0.000000
     79         10.164111  -0.000000
     80         10.404537   0.000000
     81         10.470598   0.000000
     82         10.526860   0.000000
     83         10.556983   0.000000
     84         10.577063   0.000000
     85         10.651646   0.000000
     86         10.792904   0.000000
     87         11.091374   0.000000
     88         11.555401   0.000000
     89         11.571574   0.000000
     90         11.845180   0.000000
     91         12.005856   0.000000
     92         12.183558   0.000000
     93         12.409056   0.000000
     94         12.427998   0.000000
     95         12.477097   0.000000
     96         12.602167   0.000000
     97         13.082393   0.000000
     98         13.224943   0.000000
     99         13.346661   0.000000
    100         13.441052   0.000000
    101         13.583057   0.000000
    102         13.796507   0.000000
    103         13.842844   0.000000
    104         13.916918   0.000000
    105         14.067641   0.000000
    106         14.113586   0.000000
    107         14.349948   0.000000
    108         14.540529   0.000000
    109         14.784284   0.000000
    110         15.769186   0.000000
    111         16.249888   0.000000
    112         16.270744   0.000000
    113         16.556596   0.000000
    114         16.699215   0.000000
    115         16.767093   0.000000
    116         17.890836   0.000000
    117         18.411449   0.000000
    118         18.451132   0.000000
    119         18.734713   0.000000
    120         19.037908   0.000000
    121         19.283648   0.000000
    122         19.365661   0.000000
    123         19.466496   0.000000
    124         19.588803   0.000000
    125         19.826790   0.000000
    126         20.163069   0.000000
    127         20.289474   0.000000
    128         20.417897   0.000000
 
  0.0000000E+00  0.1315789E+00  0.0000000E+00  0.5555556E-02
      1        -48.335307   1.000000
      2        -48.334681   1.000000
      3        -48.282057   1.000000
      4        -48.281563   1.000000
      5        -48.277247   1.000000
      6        -48.276762   1.000000
      7        -48.225989   1.000000
      8        -48.225532   1.000000
      9        -24.763987   1.000000
     10        -24.760213   1.000000
     11        -24.751262   1.000000
     12        -24.741886   1.000000
     13        -24.740594   1.000000
     14        -24.733143   1.000000
     15        -24.700827   1.000000
     16        -24.698086   1.000000
     17        -24.692799   1.000000
     18        -24.690853   1.000000
     19        -24.681131   1.000000
     20        -24.680282   1.000000
     21        -24.676441   1.000000
     22        -24.672983   1.000000
     23        -24.639377   1.000000
     24        -24.628378   1.000000
     25        -24.308445   1.000000
     26        -24.307787   1.000000
     27        -24.286085   1.000000
     28        -24.285543   1.000000
     29        -24.266945   1.000000
     30        -24.266271   1.000000
     31        -24.246231   1.000000
     32        -24.245572   1.000000
     33         -6.132081   1.000000
     34         -6.113106   1.000000
     35         -6.090135   1.000000
     36         -6.090026   1.000000
     37         -6.062656   1.000000
     38         -0.821094   1.000000
     39          0.631404   1.000000
     40          2.527785   1.000000
     41          2.959864   1.000000
     42          3.116170   1.000000
     43          3.382727   1.000000
     44          3.715355   1.000000
     45          3.830351   1.000000
     46          4.796902   1.000000
     47          5.004263   1.000000
     48          5.378049   1.000000
     49          5.703866   1.000000
     50          5.779975   1.000000
     51          5.823000   1.000000
     52          5.986308   1.000000
     53          6.393507   1.000000
     54          6.546353   1.000000
     55          6.629667   1.000000
     56          6.650171   1.000000
     57          7.013857   1.000000
     58          7.058947   1.000000
     59          7.270829   1.000000
     60          7.490945   1.000000
     61          7.658908   1.000000
     62          7.719652   1.000000
     63          7.852598   1.000000
     64          7.877479   1.000001
     65          7.976049   1.000273
     66          8.054541   1.007605
     67          8.133593   1.035458
     68          8.213605   0.826001
     69          8.714952  -0.000000
     70          8.980098  -0.000000
     71          9.700318  -0.000000
     72          9.737021  -0.000000
     73          9.866965  -0.000000
     74          9.912301  -0.000000
     75         10.093116  -0.000000
     76         10.094614  -0.000000
     77         10.104388  -0.000000
     78         10.162058  -0.000000
     79         10.194213  -0.000000
     80         10.391844   0.000000
     81         10.473970   0.000000
     82         10.546512   0.000000
     83         10.562243   0.000000
     84         10.567601   0.000000
     85         10.576278   0.000000
     86         10.787567   0.000000
     87         11.030995   0.000000
     88         11.525087   0.000000
     89         11.543652   0.000000
     90         11.658286   0.000000
     91         12.016101   0.000000
     92         12.212345   0.000000
     93         12.344725   0.000000
     94         12.376284   0.000000
     95         12.417651   0.000000
     96         12.596429   0.000000
     97         13.194094   0.000000
     98         13.297263   0.000000
     99         13.346765   0.000000
    100         13.365840   0.000000
    101         13.717434   0.000000
    102         13.869388   0.000000
    103         13.905825   0.000000
    104         13.986011   0.000000
    105         14.094825   0.000000
    106         14.159546   0.000000
    107         14.395954   0.000000
    108         14.535422   0.000000
    109         14.809375   0.000000
    110         15.481231   0.000000
    111         16.124495   0.000000
    112         16.233018   0.000000
    113         16.693297   0.000000
    114         16.739816   0.000000
    115         16.865443   0.000000
    116         17.886873   0.000000
    117         18.330951   0.000000
    118         18.595913   0.000000
    119         18.769547   0.000000
    120         19.049434   0.000000
    121         19.090058   0.000000
    122         19.337156   0.000000
    123         19.499628   0.000000
    124         19.579959   0.000000
    125         19.607147   0.000000
    126         20.006297   0.000000
    127         20.300378   0.000000
    128         20.308901   0.000000
 
  0.0000000E+00  0.1578947E+00  0.0000000E+00  0.5555556E-02
      1        -48.334259   1.000000
      2        -48.333636   1.000000
      3        -48.283119   1.000000
      4        -48.282623   1.000000
      5        -48.276238   1.000000
      6        -48.275756   1.000000
      7        -48.227009   1.000000
      8        -48.226552   1.000000
      9        -24.762278   1.000000
     10        -24.758559   1.000000
     11        -24.750036   1.000000
     12        -24.735083   1.000000
     13        -24.734053   1.000000
     14        -24.729695   1.000000
     15        -24.702044   1.000000
     16        -24.699290   1.000000
     17        -24.693966   1.000000
     18        -24.689554   1.000000
     19        -24.682191   1.000000
     20        -24.677633   1.000000
     21        -24.668761   1.000000
     22        -24.666707   1.000000
     23        -24.640377   1.000000
     24        -24.629352   1.000000
     25        -24.317292   1.000000