       N       E                     dE             d eps       ncg     rms          rms(c)
DAV:   1    -0.976219264241E+02   -0.97622E+02   -0.64383E-07 56576   0.459E-03
DAV:   2    -0.976219264431E+02   -0.18981E-07   -0.18819E-07 36352   0.124E-03
   1 F= -.97621926E+02 E0= -.97624774E+02  d E =0.854360E-02
