  17  17   1   0
  0.1675752E+02  0.5858456E-09  0.5858456E-09  0.8300274E-09  0.5000000E-15
  1.000000000000000E-004
  CAR 
 unknown system                          
     22.67319373    -52.35149759  301      7.98311027      1.00000000
    -52.351  0.0000E+00  0.0000E+00
    -52.101  0.0000E+00  0.0000E+00
    -51.851  0.0000E+00  0.0000E+00
    -51.601  0.0000E+00  0.0000E+00
    -51.351  0.0000E+00  0.0000E+00
    -51.101  0.0000E+00  0.0000E+00
    -50.851  0.0000E+00  0.0000E+00
    -50.601  0.0000E+00  0.0000E+00
    -50.351  0.0000E+00  0.0000E+00
    -50.101  0.0000E+00  0.0000E+00
    -49.851 -0.5732E-34 -0.1433E-34
    -49.601 -0.5247E-17 -0.1312E-17
    -49.351 -0.1443E-05 -0.3610E-06
    -49.100 -0.7028E+00 -0.1758E+00
    -48.850  0.3279E+02  0.8024E+01
    -48.600  0.2169E+02  0.1345E+02
    -48.350  0.1022E+02  0.1600E+02
    -48.100 -0.1875E-01  0.1600E+02
    -47.850 -0.2461E-09  0.1600E+02
    -47.600  0.0000E+00  0.1600E+02
    -47.350  0.0000E+00  0.1600E+02
    -47.100  0.0000E+00  0.1600E+02
    -46.850  0.0000E+00  0.1600E+02
    -46.600  0.0000E+00  0.1600E+02
    -46.350  0.0000E+00  0.1600E+02
    -46.099  0.0000E+00  0.1600E+02
    -45.849  0.0000E+00  0.1600E+02
    -45.599  0.0000E+00  0.1600E+02
    -45.349  0.0000E+00  0.1600E+02
    -45.099  0.0000E+00  0.1600E+02
    -44.849  0.0000E+00  0.1600E+02
    -44.599  0.0000E+00  0.1600E+02
    -44.349  0.0000E+00  0.1600E+02
    -44.099  0.0000E+00  0.1600E+02
    -43.849  0.0000E+00  0.1600E+02
    -43.599  0.0000E+00  0.1600E+02
    -43.349  0.0000E+00  0.1600E+02
    -43.098  0.0000E+00  0.1600E+02
    -42.848  0.0000E+00  0.1600E+02
    -42.598  0.0000E+00  0.1600E+02
    -42.348  0.0000E+00  0.1600E+02
    -42.098  0.0000E+00  0.1600E+02
    -41.848  0.0000E+00  0.1600E+02
    -41.598  0.0000E+00  0.1600E+02
    -41.348  0.0000E+00  0.1600E+02
    -41.098  0.0000E+00  0.1600E+02
    -40.848  0.0000E+00  0.1600E+02
    -40.598  0.0000E+00  0.1600E+02
    -40.348  0.0000E+00  0.1600E+02
    -40.097  0.0000E+00  0.1600E+02
    -39.847  0.0000E+00  0.1600E+02
    -39.597  0.0000E+00  0.1600E+02
    -39.347  0.0000E+00  0.1600E+02
    -39.097  0.0000E+00  0.1600E+02
    -38.847  0.0000E+00  0.1600E+02
    -38.597  0.0000E+00  0.1600E+02
    -38.347  0.0000E+00  0.1600E+02
    -38.097  0.0000E+00  0.1600E+02
    -37.847  0.0000E+00  0.1600E+02
    -37.597  0.0000E+00  0.1600E+02
    -37.347  0.0000E+00  0.1600E+02
    -37.096  0.0000E+00  0.1600E+02
    -36.846  0.0000E+00  0.1600E+02
    -36.596  0.0000E+00  0.1600E+02
    -36.346  0.0000E+00  0.1600E+02
    -36.096  0.0000E+00  0.1600E+02
    -35.846  0.0000E+00  0.1600E+02
    -35.596  0.0000E+00  0.1600E+02
    -35.346  0.0000E+00  0.1600E+02
    -35.096  0.0000E+00  0.1600E+02
    -34.846  0.0000E+00  0.1600E+02
    -34.596  0.0000E+00  0.1600E+02
    -34.346  0.0000E+00  0.1600E+02
    -34.095  0.0000E+00  0.1600E+02
    -33.845  0.0000E+00  0.1600E+02
    -33.595  0.0000E+00  0.1600E+02
    -33.345  0.0000E+00  0.1600E+02
    -33.095  0.0000E+00  0.1600E+02
    -32.845  0.0000E+00  0.1600E+02
    -32.595  0.0000E+00  0.1600E+02
    -32.345  0.0000E+00  0.1600E+02
    -32.095  0.0000E+00  0.1600E+02
    -31.845  0.0000E+00  0.1600E+02
    -31.595  0.0000E+00  0.1600E+02
    -31.345  0.0000E+00  0.1600E+02
    -31.095  0.0000E+00  0.1600E+02
    -30.844  0.0000E+00  0.1600E+02
    -30.594  0.0000E+00  0.1600E+02
    -30.344  0.0000E+00  0.1600E+02
    -30.094  0.0000E+00  0.1600E+02
    -29.844  0.0000E+00  0.1600E+02
    -29.594  0.0000E+00  0.1600E+02
    -29.344  0.0000E+00  0.1600E+02
    -29.094  0.0000E+00  0.1600E+02
    -28.844  0.0000E+00  0.1600E+02
    -28.594  0.0000E+00  0.1600E+02
    -28.344  0.0000E+00  0.1600E+02
    -28.094  0.0000E+00  0.1600E+02
    -27.843  0.0000E+00  0.1600E+02
    -27.593  0.0000E+00  0.1600E+02
    -27.343  0.0000E+00  0.1600E+02
    -27.093  0.0000E+00  0.1600E+02
    -26.843  0.0000E+00  0.1600E+02
    -26.593  0.0000E+00  0.1600E+02
    -26.343 -0.3557E-42  0.1600E+02
    -26.093 -0.4513E-23  0.1600E+02
    -25.843 -0.1878E-09  0.1600E+02
    -25.593 -0.2125E-01  0.1599E+02
    -25.343  0.1160E+02  0.1890E+02
    -25.093  0.7835E+02  0.3849E+02
    -24.842  0.6484E+02  0.5471E+02
    -24.592  0.3755E+02  0.6410E+02
    -24.342 -0.3863E+00  0.6400E+02
    -24.092 -0.5345E-06  0.6400E+02
    -23.842  0.0000E+00  0.6400E+02
    -23.592  0.0000E+00  0.6400E+02
    -23.342  0.0000E+00  0.6400E+02
    -23.092  0.0000E+00  0.6400E+02
    -22.842  0.0000E+00  0.6400E+02
    -22.592  0.0000E+00  0.6400E+02
    -22.342  0.0000E+00  0.6400E+02
    -22.092  0.0000E+00  0.6400E+02
    -21.841  0.0000E+00  0.6400E+02
    -21.591  0.0000E+00  0.6400E+02
    -21.341  0.0000E+00  0.6400E+02
    -21.091  0.0000E+00  0.6400E+02
    -20.841  0.0000E+00  0.6400E+02
    -20.591  0.0000E+00  0.6400E+02
    -20.341  0.0000E+00  0.6400E+02
    -20.091  0.0000E+00  0.6400E+02
    -19.841  0.0000E+00  0.6400E+02
    -19.591  0.0000E+00  0.6400E+02
    -19.341  0.0000E+00  0.6400E+02
    -19.091  0.0000E+00  0.6400E+02
    -18.840  0.0000E+00  0.6400E+02
    -18.590  0.0000E+00  0.6400E+02
    -18.340  0.0000E+00  0.6400E+02
    -18.090  0.0000E+00  0.6400E+02
    -17.840  0.0000E+00  0.6400E+02
    -17.590  0.0000E+00  0.6400E+02
    -17.340  0.0000E+00  0.6400E+02
    -17.090  0.0000E+00  0.6400E+02
    -16.840  0.0000E+00  0.6400E+02
    -16.590  0.0000E+00  0.6400E+02
    -16.340  0.0000E+00  0.6400E+02
    -16.090  0.0000E+00  0.6400E+02
    -15.839  0.0000E+00  0.6400E+02
    -15.589  0.0000E+00  0.6400E+02
    -15.339  0.0000E+00  0.6400E+02
    -15.089  0.0000E+00  0.6400E+02
    -14.839  0.0000E+00  0.6400E+02
    -14.589  0.0000E+00  0.6400E+02
    -14.339  0.0000E+00  0.6400E+02
    -14.089  0.0000E+00  0.6400E+02
    -13.839  0.0000E+00  0.6400E+02
    -13.589  0.0000E+00  0.6400E+02
    -13.339  0.0000E+00  0.6400E+02
    -13.089  0.0000E+00  0.6400E+02
    -12.838  0.0000E+00  0.6400E+02
    -12.588  0.0000E+00  0.6400E+02
    -12.338  0.0000E+00  0.6400E+02
    -12.088  0.0000E+00  0.6400E+02
    -11.838  0.0000E+00  0.6400E+02
    -11.588  0.0000E+00  0.6400E+02
    -11.338  0.0000E+00  0.6400E+02
    -11.088  0.0000E+00  0.6400E+02
    -10.838  0.0000E+00  0.6400E+02
    -10.588  0.0000E+00  0.6400E+02
    -10.338  0.0000E+00  0.6400E+02
    -10.088  0.0000E+00  0.6400E+02
     -9.838  0.0000E+00  0.6400E+02
     -9.587  0.0000E+00  0.6400E+02
     -9.337  0.0000E+00  0.6400E+02
     -9.087  0.0000E+00  0.6400E+02
     -8.837  0.0000E+00  0.6400E+02
     -8.587  0.0000E+00  0.6400E+02
     -8.337 -0.1401E-34  0.6400E+02
     -8.087 -0.1298E-17  0.6400E+02
     -7.837 -0.3599E-06  0.6400E+02
     -7.587 -0.1818E+00  0.6395E+02
     -7.337  0.1242E+02  0.6706E+02
     -7.087  0.2821E+02  0.7411E+02
     -6.837 -0.4535E+00  0.7400E+02
     -6.586 -0.1055E-05  0.7400E+02
     -6.336  0.0000E+00  0.7400E+02
     -6.086  0.0000E+00  0.7400E+02
     -5.836  0.0000E+00  0.7400E+02
     -5.586  0.0000E+00  0.7400E+02
     -5.336  0.0000E+00  0.7400E+02
     -5.086  0.0000E+00  0.7400E+02
     -4.836  0.0000E+00  0.7400E+02
     -4.586  0.0000E+00  0.7400E+02
     -4.336  0.0000E+00  0.7400E+02
     -4.086  0.0000E+00  0.7400E+02
     -3.836  0.0000E+00  0.7400E+02
     -3.585  0.0000E+00  0.7400E+02
     -3.335  0.0000E+00  0.7400E+02
     -3.085  0.0000E+00  0.7400E+02
     -2.835 -0.5507E-44  0.7400E+02
     -2.585 -0.7029E-25  0.7400E+02
     -2.335 -0.2997E-11  0.7400E+02
     -2.085 -0.3837E-03  0.7400E+02
     -1.835  0.2315E+00  0.7406E+02
     -1.585  0.2040E+01  0.7457E+02
     -1.335  0.7322E+00  0.7475E+02
     -1.085  0.1905E+01  0.7523E+02
     -0.835  0.1384E+01  0.7557E+02
     -0.584  0.1735E+01  0.7601E+02
     -0.334  0.3819E+00  0.7610E+02
     -0.084  0.2714E+01  0.7678E+02
      0.166  0.1904E+01  0.7726E+02
      0.416  0.2048E+01  0.7777E+02
      0.666  0.1758E+01  0.7821E+02
      0.916  0.2043E+01  0.7872E+02
      1.166  0.5623E+01  0.8013E+02
      1.416  0.3095E+01  0.8090E+02
      1.666  0.2961E+01  0.8164E+02
      1.916  0.3438E+01  0.8250E+02
      2.166  0.4114E+01  0.8353E+02
      2.417  0.4056E+01  0.8454E+02
      2.667  0.3456E+01  0.8541E+02
      2.917  0.3007E+01  0.8616E+02
      3.167  0.3699E+01  0.8709E+02
      3.417  0.5263E+01  0.8840E+02
      3.667  0.3857E+01  0.8937E+02
      3.917  0.5403E+01  0.9072E+02
      4.167  0.5514E+01  0.9210E+02
      4.417  0.4922E+01  0.9333E+02
      4.667  0.4520E+01  0.9446E+02
      4.917  0.5471E+01  0.9583E+02
      5.167  0.8638E+01  0.9799E+02
      5.418  0.9054E+01  0.1003E+03
      5.668  0.6796E+01  0.1019E+03
      5.918  0.6265E+01  0.1035E+03
      6.168  0.8870E+01  0.1057E+03
      6.418  0.1835E+02  0.1103E+03
      6.668  0.1122E+02  0.1131E+03
      6.918  0.1531E+02  0.1170E+03
      7.168  0.1240E+02  0.1201E+03
      7.418  0.1691E+02  0.1243E+03
      7.668  0.1584E+02  0.1282E+03
      7.918  0.1524E+02  0.1321E+03
      8.168  0.1332E+02  0.1354E+03
      8.419  0.1295E+02  0.1386E+03
      8.669  0.1276E+02  0.1418E+03
      8.919  0.1381E+02  0.1453E+03
      9.169  0.1786E+02  0.1497E+03
      9.419  0.3104E+02  0.1575E+03
      9.669  0.3411E+02  0.1660E+03
      9.919  0.2285E+02  0.1717E+03
     10.169  0.1847E+02  0.1764E+03
     10.419  0.8184E+01  0.1784E+03
     10.669  0.6634E+01  0.1801E+03
     10.919  0.1095E+02  0.1828E+03
     11.169  0.1323E+02  0.1861E+03
     11.419  0.1239E+02  0.1892E+03
     11.670  0.1158E+02  0.1921E+03
     11.920  0.8777E+01  0.1943E+03
     12.170  0.7058E+01  0.1961E+03
     12.420  0.1338E+02  0.1994E+03
     12.670  0.1299E+02  0.2027E+03
     12.920  0.1101E+02  0.2054E+03
     13.170  0.8974E+01  0.2077E+03
     13.420  0.1480E+02  0.2114E+03
     13.670  0.8149E+01  0.2134E+03
     13.920  0.7093E+01  0.2152E+03
     14.170  0.8053E+01  0.2172E+03
     14.420  0.7162E+01  0.2190E+03
     14.671  0.7842E+01  0.2209E+03
     14.921  0.7780E+01  0.2229E+03
     15.171  0.8226E+01  0.2249E+03
     15.421  0.1051E+02  0.2276E+03
     15.671  0.9239E+01  0.2299E+03
     15.921  0.7873E+01  0.2319E+03
     16.171  0.1165E+02  0.2348E+03
     16.421  0.1114E+02  0.2376E+03
     16.671  0.1049E+02  0.2402E+03
     16.921  0.1052E+02  0.2428E+03
     17.171  0.7530E+01  0.2447E+03
     17.421  0.8074E+01  0.2467E+03
     17.672  0.7006E+01  0.2485E+03
     17.922  0.9844E+01  0.2509E+03
     18.172  0.7979E+01  0.2529E+03
     18.422  0.4063E+01  0.2539E+03
     18.672  0.5121E+01  0.2552E+03
     18.922  0.1895E+01  0.2557E+03
     19.172  0.7606E+00  0.2559E+03
     19.422  0.4812E+00  0.2560E+03
     19.672 -0.7998E-02  0.2560E+03
     19.922 -0.1333E-07  0.2560E+03
     20.172  0.0000E+00  0.2560E+03
     20.422  0.0000E+00  0.2560E+03
     20.673  0.0000E+00  0.2560E+03
     20.923  0.0000E+00  0.2560E+03
     21.173  0.0000E+00  0.2560E+03
     21.423  0.0000E+00  0.2560E+03
     21.673  0.0000E+00  0.2560E+03
     21.923  0.0000E+00  0.2560E+03
     22.173  0.0000E+00  0.2560E+03
     22.423  0.0000E+00  0.2560E+03
     22.673  0.0000E+00  0.2560E+03
     22.67319373    -52.35149759  301      7.98311027      1.00000000
    -52.351  0.0000E+00  0.0000E+00  0.0000E+00  0.0000E+00  0.0000E+00  0.0000E+00  0.0000E+00  0.0000E+00  0.0000E+00
    -52.101  0.0000E+00  0.0000E+00  0.0000E+00  0.0000E+00  0.0000E+00  0.0000E+00  0.0000E+00  0.0000E+00  0.0000E+00
    -51.851  0.0000E+00  0.0000E+00  0.0000E+00  0.0000E+00  0.0000E+00  0.0000E+00  0.0000E+00  0.0000E+00  0.0000E+00
    -51.601  0.0000E+00  0.0000E+00  0.0000E+00  0.0000E+00  0.0000E+00  0.0000E+00  0.0000E+00  0.0000E+00  0.0000E+00
    -51.351  0.0000E+00  0.0000E+00  0.0000E+00  0.0000E+00  0.0000E+00  0.0000E+00  0.0000E+00  0.0000E+00  0.0000E+00
    -51.101  0.0000E+00  0.0000E+00  0.0000E+00  0.0000E+00  0.0000E+00  0.0000E+00  0.0000E+00  0.0000E+00  0.0000E+00
    -50.851  0.0000E+00  0.0000E+00  0.0000E+00  0.0000E+00  0.0000E+00  0.0000E+00  0.0000E+00  0.0000E+00  0.0000E+00
    -50.601  0.0000E+00  0.0000E+00  0.0000E+00  0.0000E+00  0.0000E+00  0.0000E+00  0.0000E+00  0.0000E+00  0.0000E+00
    -50.351  0.0000E+00  0.0000E+00  0.0000E+00  0.0000E+00  0.0000E+00  0.0000E+00  0.0000E+00  0.0000E+00  0.0000E+00
    -50.101  0.0000E+00  0.0000E+00  0.0000E+00  0.0000E+00  0.0000E+00  0.0000E+00  0.0000E+00  0.0000E+00  0.0000E+00
    -49.851 -0.5443E-37 -0.2341E-40 -0.1351E-42 -0.2341E-40 -0.4463E-47 -0.1969E-42 -0.9923E-41 -0.1969E-42 -0.2147E-40
    -49.601 -0.4573E-20 -0.2220E-23 -0.1135E-25 -0.2220E-23 -0.4125E-30 -0.1867E-25 -0.8334E-24 -0.1867E-25 -0.2081E-23
    -49.351 -0.1151E-08 -0.6304E-12 -0.2855E-14 -0.6304E-12 -0.1144E-18 -0.5302E-14 -0.2097E-12 -0.5302E-14 -0.6037E-12
    -49.100 -0.5054E-03 -0.3168E-06 -0.1253E-08 -0.3168E-06 -0.5617E-13 -0.2664E-08 -0.9203E-07 -0.2664E-08 -0.3108E-06
    -48.850  0.1287E-01  0.1497E-04  0.4472E-07  0.1497E-04 -0.1094E-10  0.1259E-06  0.4143E-05  0.1259E-06  0.1479E-04
    -48.600  0.4115E+01 -0.7957E-07  0.4955E-05 -0.7957E-07  0.1643E-08 -0.5386E-09  0.1231E-04 -0.5386E-09 -0.7272E-07
    -48.350  0.3838E+01  0.4065E-08  0.4622E-05  0.4065E-08  0.2899E-09  0.5841E-10  0.1153E-04  0.5841E-10  0.6148E-08
    -48.100 -0.8354E-02 -0.6721E-11 -0.1006E-07 -0.6721E-11 -0.2203E-12 -0.7598E-13 -0.2510E-07 -0.7598E-13 -0.1369E-10
    -47.850 -0.1206E-09 -0.7975E-19 -0.1452E-15 -0.7975E-19 -0.3244E-21 -0.7189E-21 -0.3626E-15 -0.7189E-21 -0.1971E-18
    -47.600  0.0000E+00  0.0000E+00  0.0000E+00  0.0000E+00  0.0000E+00  0.0000E+00  0.0000E+00  0.0000E+00  0.0000E+00
    -47.350  0.0000E+00  0.0000E+00  0.0000E+00  0.0000E+00  0.0000E+00  0.0000E+00  0.0000E+00  0.0000E+00  0.0000E+00
    -47.100  0.0000E+00  0.0000E+00  0.0000E+00  0.0000E+00  0.0000E+00  0.0000E+00  0.0000E+00  0.0000E+00  0.0000E+00
    -46.850  0.0000E+00  0.0000E+00  0.0000E+00  0.0000E+00  0.0000E+00  0.0000E+00  0.0000E+00  0.0000E+00  0.0000E+00
    -46.600  0.0000E+00  0.0000E+00  0.0000E+00  0.0000E+00  0.0000E+00  0.0000E+00  0.0000E+00  0.0000E+00  0.0000E+00
    -46.350  0.0000E+00  0.0000E+00  0.0000E+00  0.0000E+00  0.0000E+00  0.0000E+00  0.0000E+00  0.0000E+00  0.0000E+00
    -46.099  0.0000E+00  0.0000E+00  0.0000E+00  0.0000E+00  0.0000E+00  0.0000E+00  0.0000E+00  0.0000E+00  0.0000E+00
    -45.849  0.0000E+00  0.0000E+00  0.0000E+00  0.0000E+00  0.0000E+00  0.0000E+00  0.0000E+00  0.0000E+00  0.0000E+00
    -45.599  0.0000E+00  0.0000E+00  0.0000E+00  0.0000E+00  0.0000E+00  0.0000E+00  0.0000E+00  0.0000E+00  0.0000E+00
    -45.349  0.0000E+00  0.0000E+00  0.0000E+00  0.0000E+00  0.0000E+00  0.0000E+00  0.0000E+00  0.0000E+00  0.0000E+00
    -45.099  0.0000E+00  0.0000E+00  0.0000E+00  0.0000E+00  0.0000E+00  0.0000E+00  0.0000E+00  0.0000E+00  0.0000E+00
    -44.849  0.0000E+00  0.0000E+00  0.0000E+00  0.0000E+00  0.0000E+00  0.0000E+00  0.0000E+00  0.0000E+00  0.0000E+00
    -44.599  0.0000E+00  0.0000E+00  0.0000E+00  0.0000E+00  0.0000E+00  0.0000E+00  0.0000E+00  0.0000E+00  0.0000E+00
    -44.349  0.0000E+00  0.0000E+00  0.0000E+00  0.0000E+00  0.0000E+00  0.0000E+00  0.0000E+00  0.0000E+00  0.0000E+00
    -44.099  0.0000E+00  0.0000E+00  0.0000E+00  0.0000E+00  0.0000E+00  0.0000E+00  0.0000E+00  0.0000E+00  0.0000E+00
    -43.849  0.0000E+00  0.0000E+00  0.0000E+00  0.0000E+00  0.0000E+00  0.0000E+00  0.0000E+00  0.0000E+00  0.0000E+00
    -43.599  0.0000E+00  0.0000E+00  0.0000E+00  0.0000E+00  0.0000E+00  0.0000E+00  0.0000E+00  0.0000E+00  0.0000E+00
    -43.349  0.0000E+00  0.0000E+00  0.0000E+00  0.0000E+00  0.0000E+00  0.0000E+00  0.0000E+00  0.0000E+00  0.0000E+00
    -43.098  0.0000E+00  0.0000E+00  0.0000E+00  0.0000E+00  0.0000E+00  0.0000E+00  0.0000E+00  0.0000E+00  0.0000E+00
    -42.848  0.0000E+00  0.0000E+00  0.0000E+00  0.0000E+00  0.0000E+00  0.0000E+00  0.0000E+00  0.0000E+00  0.0000E+00
    -42.598  0.0000E+00  0.0000E+00  0.0000E+00  0.0000E+00  0.0000E+00  0.0000E+00  0.0000E+00  0.0000E+00  0.0000E+00
    -42.348  0.0000E+00  0.0000E+00  0.0000E+00  0.0000E+00  0.0000E+00  0.0000E+00  0.0000E+00  0.0000E+00  0.0000E+00
    -42.098  0.0000E+00  0.0000E+00  0.0000E+00  0.0000E+00  0.0000E+00  0.0000E+00  0.0000E+00  0.0000E+00  0.0000E+00
    -41.848  0.0000E+00  0.0000E+00  0.0000E+00  0.0000E+00  0.0000E+00  0.0000E+00  0.0000E+00  0.0000E+00  0.0000E+00
    -41.598  0.0000E+00  0.0000E+00  0.0000E+00  0.0000E+00  0.0000E+00  0.0000E+00  0.0000E+00  0.0000E+00  0.0000E+00
    -41.348  0.0000E+00  0.0000E+00  0.0000E+00  0.0000E+00  0.0000E+00  0.0000E+00  0.0000E+00  0.0000E+00  0.0000E+00
    -41.098  0.0000E+00  0.0000E+00  0.0000E+00  0.0000E+00  0.0000E+00  0.0000E+00  0.0000E+00  0.0000E+00  0.0000E+00
    -40.848  0.0000E+00  0.0000E+00  0.0000E+00  0.0000E+00  0.0000E+00  0.0000E+00  0.0000E+00  0.0000E+00  0.0000E+00
    -40.598  0.0000E+00  0.0000E+00  0.0000E+00  0.0000E+00  0.0000E+00  0.0000E+00  0.0000E+00  0.0000E+00  0.0000E+00
    -40.348  0.0000E+00  0.0000E+00  0.0000E+00  0.0000E+00  0.0000E+00  0.0000E+00  0.0000E+00  0.0000E+00  0.0000E+00
    -40.097  0.0000E+00  0.0000E+00  0.0000E+00  0.0000E+00  0.0000E+00  0.0000E+00  0.0000E+00  0.0000E+00  0.0000E+00
    -39.847  0.0000E+00  0.0000E+00  0.0000E+00  0.0000E+00  0.0000E+00  0.0000E+00  0.0000E+00  0.0000E+00  0.0000E+00
    -39.597  0.0000E+00  0.0000E+00  0.0000E+00  0.0000E+00  0.0000E+00  0.0000E+00  0.0000E+00  0.0000E+00  0.0000E+00
    -39.347  0.0000E+00  0.0000E+00  0.0000E+00  0.0000E+00  0.0000E+00  0.0000E+00  0.0000E+00  0.0000E+00  0.0000E+00
    -39.097  0.0000E+00  0.0000E+00  0.0000E+00  0.0000E+00  0.0000E+00  0.0000E+00  0.0000E+00  0.0000E+00  0.0000E+00
    -38.847  0.0000E+00  0.0000E+00  0.0000E+00  0.0000E+00  0.0000E+00  0.0000E+00  0.0000E+00  0.0000E+00  0.0000E+00
    -38.597  0.0000E+00  0.0000E+00  0.0000E+00  0.0000E+00  0.0000E+00  0.0000E+00  0.0000E+00  0.0000E+00  0.0000E+00
    -38.347  0.0000E+00  0.0000E+00  0.0000E+00  0.0000E+00  0.0000E+00  0.0000E+00  0.0000E+00  0.0000E+00  0.0000E+00
    -38.097  0.0000E+00  0.0000E+00  0.0000E+00  0.0000E+00  0.0000E+00  0.0000E+00  0.0000E+00  0.0000E+00  0.0000E+00
    -37.847  0.0000E+00  0.0000E+00  0.0000E+00  0.0000E+00  0.0000E+00  0.0000E+00  0.0000E+00  0.0000E+00  0.0000E+00
    -37.597  0.0000E+00  0.0000E+00  0.0000E+00  0.0000E+00  0.0000E+00  0.0000E+00  0.0000E+00  0.0000E+00  0.0000E+00
    -37.347  0.0000E+00  0.0000E+00  0.0000E+00  0.0000E+00  0.0000E+00  0.0000E+00  0.0000E+00  0.0000E+00  0.0000E+00
    -37.096  0.0000E+00  0.0000E+00  0.0000E+00  0.0000E+00  0.0000E+00  0.0000E+00  0.0000E+00  0.0000E+00  0.0000E+00
    -36.846  0.0000E+00  0.0000E+00  0.0000E+00  0.0000E+00  0.0000E+00  0.0000E+00  0.0000E+00  0.0000E+00  0.0000E+00
    -36.596  0.0000E+00  0.0000E+00  0.0000E+00  0.0000E+00  0.0000E+00  0.0000E+00  0.0000E+00  0.0000E+00  0.0000E+00
    -36.346  0.0000E+00  0.0000E+00  0.0000E+00  0.0000E+00  0.0000E+00  0.0000E+00  0.0000E+00  0.0000E+00  0.0000E+00
    -36.096  0.0000E+00  0.0000E+00  0.0000E+00  0.0000E+00  0.0000E+00  0.0000E+00  0.0000E+00  0.0000E+00  0.0000E+00
    -35.846  0.0000E+00  0.0000E+00  0.0000E+00  0.0000E+00  0.0000E+00  0.0000E+00  0.0000E+00  0.0000E+00  0.0000E+00
    -35.596  0.0000E+00  0.0000E+00  0.0000E+00  0.0000E+00  0.0000E+00  0.0000E+00  0.0000E+00  0.0000E+00  0.0000E+00
    -35.346  0.0000E+00  0.0000E+00  0.0000E+00  0.0000E+00  0.0000E+00  0.0000E+00  0.0000E+00  0.0000E+00  0.0000E+00
    -35.096  0.0000E+00  0.0000E+00  0.0000E+00  0.0000E+00  0.0000E+00  0.0000E+00  0.0000E+00  0.0000E+00  0.0000E+00
    -34.846  0.0000E+00  0.0000E+00  0.0000E+00  0.0000E+00  0.0000E+00  0.0000E+00  0.0000E+00  0.0000E+00  0.0000E+00
    -34.596  0.0000E+00  0.0000E+00  0.0000E+00  0.0000E+00  0.0000E+00  0.0000E+00  0.0000E+00  0.0000E+00  0.0000E+00
    -34.346  0.0000E+00  0.0000E+00  0.0000E+00  0.0000E+00  0.0000E+00  0.0000E+00  0.0000E+00  0.0000E+00  0.0000E+00
    -34.095  0.0000E+00  0.0000E+00  0.0000E+00  0.0000E+00  0.0000E+00  0.0000E+00  0.0000E+00  0.0000E+00  0.0000E+00
    -33.845  0.0000E+00  0.0000E+00  0.0000E+00  0.0000E+00  0.0000E+00  0.0000E+00  0.0000E+00  0.0000E+00  0.0000E+00
    -33.595  0.0000E+00  0.0000E+00  0.0000E+00  0.0000E+00  0.0000E+00  0.0000E+00  0.0000E+00  0.0000E+00  0.0000E+00
    -33.345  0.0000E+00  0.0000E+00  0.0000E+00  0.0000E+00  0.0000E+00  0.0000E+00  0.0000E+00  0.0000E+00  0.0000E+00
    -33.095  0.0000E+00  0.0000E+00  0.0000E+00  0.0000E+00  0.0000E+00  0.0000E+00  0.0000E+00  0.0000E+00  0.0000E+00
    -32.845  0.0000E+00  0.0000E+00  0.0000E+00  0.0000E+00  0.0000E+00  0.0000E+00  0.0000E+00  0.0000E+00  0.0000E+00
    -32.595  0.0000E+00  0.0000E+00  0.0000E+00  0.0000E+00  0.0000E+00  0.0000E+00  0.0000E+00  0.0000E+00  0.0000E+00
    -32.345  0.0000E+00  0.0000E+00  0.0000E+00  0.0000E+00  0.0000E+00  0.0000E+00  0.0000E+00  0.0000E+00  0.0000E+00
    -32.095  0.0000E+00  0.0000E+00  0.0000E+00  0.0000E+00  0.0000E+00  0.0000E+00  0.0000E+00  0.0000E+00  0.0000E+00
    -31.845  0.0000E+00  0.0000E+00  0.0000E+00  0.0000E+00  0.0000E+00  0.0000E+00  0.0000E+00  0.0000E+00  0.0000E+00
    -31.595  0.0000E+00  0.0000E+00  0.0000E+00  0.0000E+00  0.0000E+00  0.0000E+00  0.0000E+00  0.0000E+00  0.0000E+00
    -31.345  0.0000E+00  0.0000E+00  0.0000E+00  0.0000E+00  0.0000E+00  0.0000E+00  0.0000E+00  0.0000E+00  0.0000E+00
    -31.095  0.0000E+00  0.0000E+00  0.0000E+00  0.0000E+00  0.0000E+00  0.0000E+00  0.0000E+00  0.0000E+00  0.0000E+00
    -30.844  0.0000E+00  0.0000E+00  0.0000E+00  0.0000E+00  0.0000E+00  0.0000E+00  0.0000E+00  0.0000E+00  0.0000E+00
    -30.594  0.0000E+00  0.0000E+00  0.0000E+00  0.0000E+00  0.0000E+00  0.0000E+00  0.0000E+00  0.0000E+00  0.0000E+00
    -30.344  0.0000E+00  0.0000E+00  0.0000E+00  0.0000E+00  0.0000E+00  0.0000E+00  0.0000E+00  0.0000E+00  0.0000E+00
    -30.094  0.0000E+00  0.0000E+00  0.0000E+00  0.0000E+00  0.0000E+00  0.0000E+00  0.0000E+00  0.0000E+00  0.0000E+00
    -29.844  0.0000E+00  0.0000E+00  0.0000E+00  0.0000E+00  0.0000E+00  0.0000E+00  0.0000E+00  0.0000E+00  0.0000E+00
    -29.594  0.0000E+00  0.0000E+00  0.0000E+00  0.0000E+00  0.0000E+00  0.0000E+00  0.0000E+00  0.0000E+00  0.0000E+00
    -29.344  0.0000E+00  0.0000E+00  0.0000E+00  0.0000E+00  0.0000E+00  0.0000E+00  0.0000E+00  0.0000E+00  0.0000E+00
    -29.094  0.0000E+00  0.0000E+00  0.0000E+00  0.0000E+00  0.0000E+00  0.0000E+00  0.0000E+00  0.0000E+00  0.0000E+00
    -28.844  0.0000E+00  0.0000E+00  0.0000E+00  0.0000E+00  0.0000E+00  0.0000E+00  0.0000E+00  0.0000E+00  0.0000E+00
    -28.594  0.0000E+00  0.0000E+00  0.0000E+00  0.0000E+00  0.0000E+00  0.0000E+00  0.0000E+00  0.0000E+00  0.0000E+00
    -28.344  0.0000E+00  0.0000E+00  0.0000E+00  0.0000E+00  0.0000E+00  0.0000E+00  0.0000E+00  0.0000E+00  0.0000E+00
    -28.094  0.0000E+00  0.0000E+00  0.0000E+00  0.0000E+00  0.0000E+00  0.0000E+00  0.0000E+00  0.0000E+00  0.0000E+00
    -27.843  0.0000E+00  0.0000E+00  0.0000E+00  0.0000E+00  0.0000E+00  0.0000E+00  0.0000E+00  0.0000E+00  0.0000E+00
    -27.593  0.0000E+00  0.0000E+00  0.0000E+00  0.0000E+00  0.0000E+00  0.0000E+00  0.0000E+00  0.0000E+00  0.0000E+00
    -27.343  0.0000E+00  0.0000E+00  0.0000E+00  0.0000E+00  0.0000E+00  0.0000E+00  0.0000E+00  0.0000E+00  0.0000E+00
    -27.093  0.0000E+00  0.0000E+00  0.0000E+00  0.0000E+00  0.0000E+00  0.0000E+00  0.0000E+00  0.0000E+00  0.0000E+00
    -26.843  0.0000E+00  0.0000E+00  0.0000E+00  0.0000E+00  0.0000E+00  0.0000E+00  0.0000E+00  0.0000E+00  0.0000E+00
    -26.593  0.0000E+00  0.0000E+00  0.0000E+00  0.0000E+00  0.0000E+00  0.0000E+00  0.0000E+00  0.0000E+00  0.0000E+00
    -26.343 -0.3115E-49 -0.2334E-46 -0.3572E-45 -0.2334E-46 -0.7672E-52 -0.1275E-48 -0.2973E-49 -0.1275E-48 -0.2407E-49
    -26.093 -0.3621E-30 -0.3054E-27 -0.4143E-26 -0.3054E-27 -0.9693E-33 -0.1659E-29 -0.3491E-30 -0.1659E-29 -0.3294E-30
    -25.843 -0.1376E-16 -0.1304E-13 -0.1570E-12 -0.1304E-13 -0.4021E-19 -0.7036E-16 -0.1341E-16 -0.7036E-16 -0.1476E-16
    -25.593 -0.1415E-08 -0.1583E-05 -0.1606E-04 -0.1583E-05 -0.1115E-10 -0.8064E-08 -0.1393E-08 -0.8064E-08 -0.1799E-08
    -25.343 -0.5211E-06 -0.1163E-01  0.8932E-02 -0.1163E-01 -0.5448E-06  0.4818E-05  0.2675E-06  0.4818E-05 -0.2546E-06
    -25.093  0.2539E-03  0.7137E+00 -0.1941E+00  0.7137E+00  0.2324E-04  0.9436E-05  0.1028E-03  0.9436E-05  0.3027E-03
    -24.842  0.1444E-03  0.1469E+01  0.8290E+01  0.1469E+01  0.8349E-06  0.1339E-05  0.5177E-04  0.1339E-05  0.1809E-03
    -24.592  0.8035E-05  0.5765E+01 -0.2458E+00  0.5765E+01  0.3635E-06  0.9150E-05  0.3283E-05  0.9150E-05  0.1106E-04
    -24.342 -0.9074E-07 -0.7330E-01 -0.9704E-05 -0.7330E-01 -0.1194E-08 -0.1430E-06 -0.3523E-07 -0.1430E-06 -0.1150E-06
    -24.092 -0.5402E-13 -0.1075E-06 -0.3905E-11 -0.1075E-06 -0.1655E-15 -0.2293E-12 -0.2101E-13 -0.2293E-12 -0.6829E-13
    -23.842  0.0000E+00  0.0000E+00  0.0000E+00  0.0000E+00  0.0000E+00  0.0000E+00  0.0000E+00  0.0000E+00  0.0000E+00
    -23.592  0.0000E+00  0.0000E+00  0.0000E+00  0.0000E+00  0.0000E+00  0.0000E+00  0.0000E+00  0.0000E+00  0.0000E+00
    -23.342  0.0000E+00  0.0000E+00  0.0000E+00  0.0000E+00  0.0000E+00  0.0000E+00  0.0000E+00  0.0000E+00  0.0000E+00
    -23.092  0.0000E+00  0.0000E+00  0.0000E+00  0.0000E+00  0.0000E+00  0.0000E+00  0.0000E+00  0.0000E+00  0.0000E+00
    -22.842  0.0000E+00  0.0000E+00  0.0000E+00  0.0000E+00  0.0000E+00  0.0000E+00  0.0000E+00  0.0000E+00  0.0000E+00
    -22.592  0.0000E+00  0.0000E+00  0.0000E+00  0.0000E+00  0.0000E+00  0.0000E+00  0.0000E+00  0.0000E+00  0.0000E+00
    -22.342  0.0000E+00  0.0000E+00  0.0000E+00  0.0000E+00  0.0000E+00  0.0000E+00  0.0000E+00  0.0000E+00  0.0000E+00
    -22.092  0.0000E+00  0.0000E+00  0.0000E+00  0.0000E+00  0.0000E+00  0.0000E+00  0.0000E+00  0.0000E+00  0.0000E+00
    -21.841  0.0000E+00  0.0000E+00  0.0000E+00  0.0000E+00  0.0000E+00  0.0000E+00  0.0000E+00  0.0000E+00  0.0000E+00
    -21.591  0.0000E+00  0.0000E+00  0.0000E+00  0.0000E+00  0.0000E+00  0.0000E+00  0.0000E+00  0.0000E+00  0.0000E+00
    -21.341  0.0000E+00  0.0000E+00  0.0000E+00  0.0000E+00  0.0000E+00  0.0000E+00  0.0000E+00  0.0000E+00  0.0000E+00
    -21.091  0.0000E+00  0.0000E+00  0.0000E+00  0.0000E+00  0.0000E+00  0.0000E+00  0.0000E+00  0.0000E+00  0.0000E+00
    -20.841  0.0000E+00  0.0000E+00  0.0000E+00  0.0000E+00  0.0000E+00  0.0000E+00  0.0000E+00  0.0000E+00  0.0000E+00
    -20.591  0.0000E+00  0.0000E+00  0.0000E+00  0.0000E+00  0.0000E+00  0.0000E+00  0.0000E+00  0.0000E+00  0.0000E+00
    -20.341  0.0000E+00  0.0000E+00  0.0000E+00  0.0000E+00  0.0000E+00  0.0000E+00  0.0000E+00  0.0000E+00  0.0000E+00
    -20.091  0.0000E+00  0.0000E+00  0.0000E+00  0.0000E+00  0.0000E+00  0.0000E+00  0.0000E+00  0.0000E+00  0.0000E+00
    -19.841  0.0000E+00  0.0000E+00  0.0000E+00  0.0000E+00  0.0000E+00  0.0000E+00  0.0000E+00  0.0000E+00  0.0000E+00
    -19.591  0.0000E+00  0.0000E+00  0.0000E+00  0.0000E+00  0.0000E+00  0.0000E+00  0.0000E+00  0.0000E+00  0.0000E+00
    -19.341  0.0000E+00  0.0000E+00  0.0000E+00  0.0000E+00  0.0000E+00  0.0000E+00  0.0000E+00  0.0000E+00  0.0000E+00
    -19.091  0.0000E+00  0.0000E+00  0.0000E+00  0.0000E+00  0.0000E+00  0.0000E+00  0.0000E+00  0.0000E+00  0.0000E+00
    -18.840  0.0000E+00  0.0000E+00  0.0000E+00  0.0000E+00  0.0000E+00  0.0000E+00  0.0000E+00  0.0000E+00  0.0000E+00
    -18.590  0.0000E+00  0.0000E+00  0.0000E+00  0.0000E+00  0.0000E+00  0.0000E+00  0.0000E+00  0.0000E+00  0.0000E+00
    -18.340  0.0000E+00  0.0000E+00  0.0000E+00  0.0000E+00  0.0000E+00  0.0000E+00  0.0000E+00  0.0000E+00  0.0000E+00
    -18.090  0.0000E+00  0.0000E+00  0.0000E+00  0.0000E+00  0.0000E+00  0.0000E+00  0.0000E+00  0.0000E+00  0.0000E+00
    -17.840  0.0000E+00  0.0000E+00  0.0000E+00  0.0000E+00  0.0000E+00  0.0000E+00  0.0000E+00  0.0000E+00  0.0000E+00
    -17.590  0.0000E+00  0.0000E+00  0.0000E+00  0.0000E+00  0.0000E+00  0.0000E+00  0.0000E+00  0.0000E+00  0.0000E+00
    -17.340  0.0000E+00  0.0000E+00  0.0000E+00  0.0000E+00  0.0000E+00  0.0000E+00  0.0000E+00  0.0000E+00  0.0000E+00
    -17.090  0.0000E+00  0.0000E+00  0.0000E+00  0.0000E+00  0.0000E+00  0.0000E+00  0.0000E+00  0.0000E+00  0.0000E+00
    -16.840  0.0000E+00  0.0000E+00  0.0000E+00  0.0000E+00  0.0000E+00  0.0000E+00  0.0000E+00  0.0000E+00  0.0000E+00
    -16.590  0.0000E+00  0.0000E+00  0.0000E+00  0.0000E+00  0.0000E+00  0.0000E+00  0.0000E+00  0.0000E+00  0.0000E+00
    -16.340  0.0000E+00  0.0000E+00  0.0000E+00  0.0000E+00  0.0000E+00  0.0000E+00  0.0000E+00  0.0000E+00  0.0000E+00
    -16.090  0.0000E+00  0.0000E+00  0.0000E+00  0.0000E+00  0.0000E+00  0.0000E+00  0.0000E+00  0.0000E+00  0.0000E+00
    -15.839  0.0000E+00  0.0000E+00  0.0000E+00  0.0000E+00  0.0000E+00  0.0000E+00  0.0000E+00  0.0000E+00  0.0000E+00
    -15.589  0.0000E+00  0.0000E+00  0.0000E+00  0.0000E+00  0.0000E+00  0.0000E+00  0.0000E+00  0.0000E+00  0.0000E+00
    -15.339  0.0000E+00  0.0000E+00  0.0000E+00  0.0000E+00  0.0000E+00  0.0000E+00  0.0000E+00  0.0000E+00  0.0000E+00
    -15.089  0.0000E+00  0.0000E+00  0.0000E+00  0.0000E+00  0.0000E+00  0.0000E+00  0.0000E+00  0.0000E+00  0.0000E+00
    -14.839  0.0000E+00  0.0000E+00  0.0000E+00  0.0000E+00  0.0000E+00  0.0000E+00  0.0000E+00  0.0000E+00  0.0000E+00
    -14.589  0.0000E+00  0.0000E+00  0.0000E+00  0.0000E+00  0.0000E+00  0.0000E+00  0.0000E+00  0.0000E+00  0.0000E+00
    -14.339  0.0000E+00  0.0000E+00  0.0000E+00  0.0000E+00  0.0000E+00  0.0000E+00  0.0000E+00  0.0000E+00  0.0000E+00
    -14.089  0.0000E+00  0.0000E+00  0.0000E+00  0.0000E+00  0.0000E+00  0.0000E+00  0.0000E+00  0.0000E+00  0.0000E+00
    -13.839  0.0000E+00  0.0000E+00  0.0000E+00  0.0000E+00  0.0000E+00  0.0000E+00  0.0000E+00  0.0000E+00  0.0000E+00
    -13.589  0.0000E+00  0.0000E+00  0.0000E+00  0.0000E+00  0.0000E+00  0.0000E+00  0.0000E+00  0.0000E+00  0.0000E+00
    -13.339  0.0000E+00  0.0000E+00  0.0000E+00  0.0000E+00  0.0000E+00  0.0000E+00  0.0000E+00  0.0000E+00  0.0000E+00