   17   17    1    1
  0.1675752E+02  0.5858456E-09  0.5858456E-09  0.8300274E-09  0.5000000E-15
  1.000000000000000E-004
  CAR 
 unknown system                          
    133    180    128
 
  0.0000000E+00  0.0000000E+00  0.0000000E+00  0.5555556E-02
      1        -48.941284   1.000000
      2        -48.940887   1.000000
      3        -48.936954   1.000000
      4        -48.936630   1.000000
      5        -48.646695   1.000000
      6        -48.643358   1.000000
      7        -48.601595   1.000000
      8        -48.600951   1.000000
      9        -25.338137   1.000000
     10        -25.332336   1.000000
     11        -25.327469   1.000000
     12        -25.323190   1.000000
     13        -25.226698   1.000000
     14        -25.226698   1.000000
     15        -25.224414   1.000000
     16        -25.224414   1.000000
     17        -25.170764   1.000000
     18        -25.170764   1.000000
     19        -25.169482   1.000000
     20        -25.169482   1.000000
     21        -25.042174   1.000000
     22        -24.992984   1.000000
     23        -24.989400   1.000000
     24        -24.974341   1.000000
     25        -24.831402   1.000000
     26        -24.831402   1.000000
     27        -24.827519   1.000000
     28        -24.827519   1.000000
     29        -24.755636   1.000000
     30        -24.755636   1.000000
     31        -24.754557   1.000000
     32        -24.754557   1.000000
     33         -7.423658   1.000000
     34         -7.323424   1.000000
     35         -7.295122   1.000000
     36         -7.244030   1.000000
     37         -7.244030   1.000000
     38         -1.827092   1.000000
     39          0.108859   1.000000
     40          1.484637   1.000000
     41          2.378493   1.000000
     42          2.378493   1.000000
     43          2.658709   1.000000
     44          3.198368   1.000000
     45          3.198368   1.000000
     46          3.532692   1.000000
     47          4.467742   1.000000
     48          4.867261   1.000000
     49          4.979912   1.000000
     50          5.265591   1.000000
     51          5.265591   1.000000
     52          5.732846   1.000000
     53          6.072244   1.000000
     54          6.189771   1.000000
     55          6.378469   1.000000
     56          6.378469   1.000000
     57          6.669319   1.000000
     58          6.680583   1.000000
     59          6.680583   1.000000
     60          6.734338   1.000000
     61          6.734338   1.000000
     62          6.790280   1.000000
     63          6.872180   1.000000
     64          7.271191   1.000000
     65          7.455517   1.000000
     66          7.693739   1.000167
     67          7.876475   1.030714
     68          7.925218   0.910331
     69          7.925218   0.910331
     70          8.390528  -0.000000
     71          8.508117  -0.000000
     72          8.806116  -0.000000
     73          9.168026  -0.000000
     74          9.222278  -0.000000
     75          9.222278  -0.000000
     76          9.427048  -0.000000
     77          9.490751  -0.000000
     78          9.531037  -0.000000
     79          9.560646  -0.000000
     80          9.568777  -0.000000
     81          9.584160  -0.000000
     82          9.584160  -0.000000
     83          9.723698  -0.000000
     84          9.723698  -0.000000
     85          9.899821  -0.000000
     86         10.039703   0.000000
     87         10.039703   0.000000
     88         10.648621   0.000000
     89         10.715146   0.000000
     90         10.715146   0.000000
     91         10.917205   0.000000
     92         11.359413   0.000000
     93         11.376878   0.000000
     94         11.446408   0.000000
     95         11.619405   0.000000
     96         11.619405   0.000000
     97         11.723059   0.000000
     98         12.095613   0.000000
     99         12.095613   0.000000
    100         12.123700   0.000000
    101         12.308506   0.000000
    102         12.359019   0.000000
    103         12.854722   0.000000
    104         13.160641   0.000000
    105         13.368296   0.000000
    106         13.368296   0.000000
    107         13.413468   0.000000
    108         13.458671   0.000000
    109         13.627512   0.000000
    110         14.872668   0.000000
    111         14.933203   0.000000
    112         14.933203   0.000000
    113         14.957063   0.000000
    114         14.957063   0.000000
    115         15.566651   0.000000
    116         16.422455   0.000000
    117         16.431122   0.000000
    118         16.441433   0.000000
    119         16.921634   0.000000
    120         16.921634   0.000000
    121         17.481802   0.000000
    122         17.828229   0.000000
    123         17.985733   0.000000
    124         17.985733   0.000000
    125         18.476564   0.000000
    126         18.570712   0.000000
    127         18.570729   0.000000
    128         18.858434   0.000000
 
  0.0000000E+00  0.2631579E-01  0.0000000E+00  0.5555556E-02
      1        -48.941271   1.000000
      2        -48.940873   1.000000
      3        -48.936958   1.000000
      4        -48.936631   1.000000
      5        -48.646701   1.000000
      6        -48.643365   1.000000
      7        -48.601602   1.000000
      8        -48.600957   1.000000
      9        -25.338128   1.000000
     10        -25.332348   1.000000
     11        -25.327465   1.000000
     12        -25.323202   1.000000
     13        -25.226661   1.000000
     14        -25.226330   1.000000
     15        -25.224377   1.000000
     16        -25.224040   1.000000
     17        -25.170798   1.000000
     18        -25.170392   1.000000
     19        -25.169509   1.000000
     20        -25.169102   1.000000
     21        -25.042168   1.000000
     22        -24.992979   1.000000
     23        -24.989404   1.000000
     24        -24.974346   1.000000
     25        -24.831768   1.000000
     26        -24.831396   1.000000
     27        -24.827879   1.000000
     28        -24.827514   1.000000
     29        -24.756067   1.000000
     30        -24.755648   1.000000
     31        -24.754979   1.000000
     32        -24.754567   1.000000
     33         -7.423663   1.000000
     34         -7.323418   1.000000
     35         -7.295116   1.000000
     36         -7.244033   1.000000
     37         -7.244030   1.000000
     38         -1.824411   1.000000
     39          0.111008   1.000000
     40          1.466301   1.000000
     41          2.381121   1.000000
     42          2.388540   1.000000
     43          2.662145   1.000000
     44          3.158427   1.000000
     45          3.200526   1.000000
     46          3.571182   1.000000
     47          4.480695   1.000000
     48          4.858165   1.000000
     49          4.987470   1.000000
     50          5.258633   1.000000
     51          5.258964   1.000000
     52          5.734172   1.000000
     53          6.053847   1.000000
     54          6.189631   1.000000
     55          6.379314   1.000000
     56          6.381449   1.000000
     57          6.610123   1.000000
     58          6.640299   1.000000
     59          6.686042   1.000000
     60          6.716761   1.000000
     61          6.733125   1.000000
     62          6.852010   1.000000
     63          6.950453   1.000000
     64          7.272205   1.000000
     65          7.456170   1.000000
     66          7.694022   1.000170
     67          7.876501   1.030696
     68          7.922012   0.924884
     69          7.928223   0.895752
     70          8.402992  -0.000000
     71          8.508399  -0.000000
     72          8.805251  -0.000000
     73          9.167888  -0.000000
     74          9.213351  -0.000000
     75          9.222179  -0.000000
     76          9.420952  -0.000000
     77          9.492855  -0.000000
     78          9.528837  -0.000000
     79          9.549042  -0.000000
     80          9.562847  -0.000000
     81          9.584532  -0.000000
     82          9.605566  -0.000000
     83          9.717440  -0.000000
     84          9.724227  -0.000000
     85          9.904334  -0.000000
     86         10.037034   0.000000
     87         10.039296   0.000000
     88         10.647052   0.000000
     89         10.712405   0.000000
     90         10.718122   0.000000
     91         10.915335   0.000000
     92         11.360482   0.000000
     93         11.376148   0.000000
     94         11.376212   0.000000
     95         11.613263   0.000000
     96         11.680698   0.000000
     97         11.721134   0.000000
     98         12.083180   0.000000
     99         12.102159   0.000000
    100         12.143204   0.000000
    101         12.312594   0.000000
    102         12.361086   0.000000
    103         12.855097   0.000000
    104         13.159168   0.000000
    105         13.361109   0.000000
    106         13.372560   0.000000
    107         13.426291   0.000000
    108         13.455033   0.000000
    109         13.631487   0.000000
    110         14.738573   0.000000
    111         14.932244   0.000000
    112         14.952411   0.000000
    113         14.961119   0.000000
    114         15.043823   0.000000
    115         15.575613   0.000000
    116         16.401082   0.000000
    117         16.427628   0.000000
    118         16.454906   0.000000
    119         16.916593   0.000000
    120         16.950727   0.000000
    121         17.506929   0.000000
    122         17.830346   0.000000
    123         17.966347   0.000000
    124         17.986658   0.000000
    125         18.303096   0.000000
    126         18.536409   0.000000
    127         18.713125   0.000000
    128         18.833369   0.000000
 
  0.0000000E+00  0.5263158E-01  0.0000000E+00  0.5555556E-02
      1        -48.941227   1.000000
      2        -48.940832   1.000000
      3        -48.936962   1.000000
      4        -48.936635   1.000000
      5        -48.646718   1.000000
      6        -48.643381   1.000000
      7        -48.601622   1.000000
      8        -48.600978   1.000000
      9        -25.338096   1.000000
     10        -25.332383   1.000000
     11        -25.327446   1.000000
     12        -25.323233   1.000000
     13        -25.226554   1.000000
     14        -25.225201   1.000000
     15        -25.224270   1.000000
     16        -25.222923   1.000000
     17        -25.170901   1.000000
     18        -25.169607   1.000000
     19        -25.169267   1.000000
     20        -25.167984   1.000000
     21        -25.042145   1.000000
     22        -24.992962   1.000000
     23        -24.989416   1.000000
     24        -24.974355   1.000000
     25        -24.832856   1.000000
     26        -24.831381   1.000000
     27        -24.828950   1.000000
     28        -24.827499   1.000000
     29        -24.757328   1.000000
     30        -24.756240   1.000000
     31        -24.755676   1.000000
     32        -24.754598   1.000000
     33         -7.423677   1.000000
     34         -7.323400   1.000000
     35         -7.295097   1.000000
     36         -7.244040   1.000000
     37         -7.244031   1.000000
     38         -1.816381   1.000000
     39          0.117406   1.000000
     40          1.414435   1.000000
     41          2.389006   1.000000
     42          2.416238   1.000000
     43          2.672449   1.000000
     44          3.067521   1.000000
     45          3.206998   1.000000
     46          3.658453   1.000000
     47          4.517502   1.000000
     48          4.831435   1.000000
     49          5.010622   1.000000
     50          5.237893   1.000000
     51          5.239239   1.000000
     52          5.738143   1.000000
     53          6.000405   1.000000
     54          6.186743   1.000000
     55          6.381786   1.000000
     56          6.389851   1.000000
     57          6.500004   1.000000
     58          6.587466   1.000000
     59          6.702331   1.000000
     60          6.718257   1.000000
     61          6.729567   1.000000
     62          6.947483   1.000000
     63          7.086315   1.000000
     64          7.275243   1.000000
     65          7.458163   1.000000
     66          7.694382   1.000173
     67          7.877086   1.030302
     68          7.912467   0.962098
     69          7.937117   0.847306
     70          8.439659  -0.000000
     71          8.509224  -0.000000
     72          8.802780  -0.000000
     73          9.167464  -0.000000
     74          9.187366  -0.000000
     75          9.221493  -0.000000
     76          9.400552  -0.000000
     77          9.499134  -0.000000
     78          9.522184  -0.000000
     79          9.532056  -0.000000
     80          9.569428  -0.000000
     81          9.585141  -0.000000
     82          9.630404  -0.000000
     83          9.700573  -0.000000
     84          9.725825  -0.000000
     85          9.913585  -0.000000
     86         10.031520   0.000000
     87         10.038082   0.000000
     88         10.642330   0.000000
     89         10.704290   0.000000
     90         10.726824   0.000000
     91         10.909719   0.000000
     92         11.251722   0.000000
     93         11.360673   0.000000
     94         11.377104   0.000000
     95         11.595077   0.000000
     96         11.715567   0.000000
     97         11.778642   0.000000
     98         12.068157   0.000000
     99         12.120985   0.000000
    100         12.179505   0.000000
    101         12.323690   0.000000
    102         12.367482   0.000000
    103         12.856273   0.000000
    104         13.154653   0.000000
    105         13.349070   0.000000
    106         13.385308   0.000000
    107         13.446938   0.000000
    108         13.455261   0.000000
    109         13.643268   0.000000
    110         14.538782   0.000000
    111         14.929360   0.000000
    112         14.973234   0.000000
    113         15.008242   0.000000
    114         15.102930   0.000000
    115         15.602384   0.000000
    116         16.322555   0.000000
    117         16.442204   0.000000
    118         16.509818   0.000000
    119         16.901073   0.000000
    120         17.011559   0.000000
    121         17.578754   0.000000
    122         17.836993   0.000000
    123         17.889055   0.000000
    124         17.990936   0.000000
    125         18.106754   0.000000
    126         18.441831   0.000000
    127         18.679942   0.000000
    128         18.731689   0.000000
 
  0.0000000E+00  0.7894737E-01  0.0000000E+00  0.5555556E-02
      1        -48.941161   1.000000
      2        -48.940765   1.000000
      3        -48.936969   1.000000
      4        -48.936640   1.000000
      5        -48.646747   1.000000
      6        -48.643408   1.000000
      7        -48.601655   1.000000
      8        -48.601011   1.000000
      9        -25.338049   1.000000
     10        -25.332439   1.000000
     11        -25.327418   1.000000
     12        -25.323284   1.000000
     13        -25.226368   1.000000
     14        -25.224089   1.000000
     15        -25.223346   1.000000
     16        -25.221078   1.000000
     17        -25.171066   1.000000
     18        -25.169766   1.000000
     19        -25.167422   1.000000
     20        -25.166144   1.000000
     21        -25.042109   1.000000
     22        -24.992935   1.000000
     23        -24.989437   1.000000
     24        -24.974370   1.000000
     25        -24.834657   1.000000
     26        -24.831358   1.000000
     27        -24.830721   1.000000
     28        -24.827468   1.000000
     29        -24.759418   1.000000
     30        -24.758319   1.000000
     31        -24.755721   1.000000
     32        -24.754646   1.000000
     33         -7.423700   1.000000
     34         -7.323370   1.000000
     35         -7.295067   1.000000
     36         -7.244052   1.000000
     37         -7.244031   1.000000
     38         -1.803032   1.000000
     39          0.127904   1.000000
     40          1.336391   1.000000
     41          2.402131   1.000000
     42          2.456214   1.000000
     43          2.689603   1.000000
     44          2.955906   1.000000
     45          3.217774   1.000000
     46          3.765830   1.000000
     47          4.572824   1.000000
     48          4.788574   1.000000
     49          5.050326   1.000000
     50          5.203845   1.000000
     51          5.207230   1.000000
     52          5.744738   1.000000
     53          5.917228   1.000000
     54          6.170993   1.000000
     55          6.385681   1.000000
     56          6.401942   1.000000
     57          6.406406   1.000000
     58          6.545275   1.000000
     59          6.723904   1.000000
     60          6.729143   1.000000
     61          6.729357   1.000000
     62          7.047970   1.000000
     63          7.232554   1.000000
     64          7.280927   1.000000
     65          7.461603   1.000000
     66          7.693377   1.000164
     67          7.879704   1.028311
     68          7.896810   1.004456
     69          7.951544   0.752953
     70          8.498449  -0.000000
     71          8.510550  -0.000000
     72          8.799052  -0.000000
     73          9.146255  -0.000000
     74          9.166725  -0.000000
     75          9.218574  -0.000000
     76          9.366045  -0.000000
     77          9.509496  -0.000000
     78          9.511073  -0.000000
     79          9.527785  -0.000000
     80          9.580316  -0.000000
     81          9.584764  -0.000000
     82          9.651150  -0.000000
     83          9.676483  -0.000000
     84          9.728516  -0.000000
     85          9.915999  -0.000000
     86         10.031621   0.000000
     87         10.036086   0.000000
     88         10.634407   0.000000
     89         10.691104   0.000000
     90         10.740602   0.000000
     91         10.900341   0.000000
     92         11.114368   0.000000
     93         11.354092   0.000000
     94         11.385858   0.000000
     95         11.565535   0.000000
     96         11.706968   0.000000
     97         11.872295   0.000000
     98         12.057656   0.000000
     99         12.149827   0.000000
    100         12.225659   0.000000
    101         12.337904   0.000000
    102         12.379207   0.000000
    103         12.858373   0.000000
    104         13.147598   0.000000
    105         13.338130   0.000000
    106         13.406407   0.000000
    107         13.441232   0.000000
    108         13.494322   0.000000
    109         13.662438   0.000000
    110         14.318177   0.000000
    111         14.924533   0.000000
    112         14.993247   0.000000
    113         15.096151   0.000000
    114         15.096289   0.000000
    115         15.646624   0.000000
    116         16.241184   0.000000
    117         16.463252   0.000000
    118         16.589496   0.000000
    119         16.873906   0.000000
    120         17.074647   0.000000
    121         17.679990   0.000000
    122         17.704551   0.000000
    123         17.849482   0.000000
    124         17.986199   0.000000
    125         18.005253   0.000000
    126         18.306465   0.000000
    127         18.536436   0.000000
    128         18.597418   0.000000
 
  0.0000000E+00  0.1052632E+00  0.0000000E+00  0.5555556E-02
      1        -48.941069   1.000000
      2        -48.940677   1.000000
      3        -48.936978   1.000000
      4        -48.936649   1.000000
      5        -48.646785   1.000000
      6        -48.643446   1.000000
      7        -48.601701   1.000000
      8        -48.601058   1.000000
      9        -25.337992   1.000000
     10        -25.332515   1.000000
     11        -25.327383   1.000000
     12        -25.323349   1.000000
     13        -25.226113   1.000000
     14        -25.223837   1.000000
     15        -25.220788   1.000000
     16        -25.218549   1.000000
     17        -25.171290   1.000000
     18        -25.169986   1.000000
     19        -25.164882   1.000000
     20        -25.163616   1.000000
     21        -25.042056   1.000000
     22        -24.992895   1.000000
     23        -24.989464   1.000000
     24        -24.974393   1.000000
     25        -24.837133   1.000000
     26        -24.833160   1.000000
     27        -24.831319   1.000000
     28        -24.827431   1.000000
     29        -24.762295   1.000000
     30        -24.761182   1.000000
     31        -24.755780   1.000000
     32        -24.754711   1.000000
     33         -7.423730   1.000000
     34         -7.323329   1.000000
     35         -7.295025   1.000000
     36         -7.244069   1.000000
     37         -7.244031   1.000000
     38         -1.784416   1.000000
     39          0.142214   1.000000
     40          1.240193   1.000000
     41          2.420474   1.000000
     42          2.503423   1.000000
     43          2.713564   1.000000
     44          2.834884   1.000000
     45          3.232833   1.000000
     46          3.883268   1.000000
     47          4.640078   1.000000
     48          4.731650   1.000000
     49          5.102390   1.000000
     50          5.157437   1.000000
     51          5.169575   1.000000
     52          5.753926   1.000000
     53          5.811857   1.000000
     54          6.124112   1.000000
     55          6.354755   1.000000
     56          6.390636   1.000000
     57          6.413784   1.000000
     58          6.519899   1.000000
     59          6.716566   1.000000
     60          6.746139   1.000000
     61          6.765889   1.000000
     62          7.147340   1.000000
     63          7.285208   1.000000
     64          7.385085   1.000000
     65          7.466660   1.000000
     66          7.688907   1.000129
     67          7.875399   1.031390
     68          7.886507   1.021234
     69          7.970919   0.602326
     70          8.512331  -0.000000
     71          8.576088  -0.000000
     72          8.794608  -0.000000
     73          9.092221  -0.000000
     74          9.165620  -0.000000
     75          9.208503  -0.000000
     76          9.326692  -0.000000
     77          9.495722  -0.000000
     78          9.523797  -0.000000
     79          9.534114  -0.000000
     80          9.582155  -0.000000
     81          9.595367  -0.000000
     82          9.647429  -0.000000
     83          9.667241  -0.000000
     84          9.732360  -0.000000
     85          9.900372  -0.000000
     86         10.033347   0.000000
     87         10.046524   0.000000
     88         10.623203   0.000000
     89         10.673253   0.000000
     90         10.758505   0.000000
     91         10.887236   0.000000
     92         10.971924   0.000000
     93         11.341868   0.000000
     94         11.401252   0.000000
     95         11.525682   0.000000
     96         11.696407   0.000000
     97         11.954718   0.000000
     98         12.051906   0.000000
     99         12.185363   0.000000
    100         12.281683   0.000000
    101         12.348442   0.000000
    102         12.398432   0.000000
    103         12.861496   0.000000
    104         13.140998   0.000000
    105         13.328333   0.000000
    106         13.435623   0.000000
    107         13.445043   0.000000
    108         13.542451   0.000000
    109         13.688375   0.000000
    110         14.090020   0.000000
    111         14.917735   0.000000
    112         15.020887   0.000000
    113         15.027430   0.000000
    114         15.210596   0.000000
    115         15.707795   0.000000
    116         16.174631   0.000000
    117         16.485622   0.000000
    118         16.675765   0.000000
    119         16.833297   0.000000
    120         17.136001   0.000000
    121         17.454993   0.000000
    122         17.766368   0.000000
    123         17.870799   0.000000
    124         17.911278   0.000000
    125         18.047430   0.000000
    126         18.158652   0.000000
    127         18.365380   0.000000
    128         18.464407   0.000000
 
  0.0000000E+00  0.1315789E+00  0.0000000E+00  0.5555556E-02
      1        -48.940955   1.000000
      2        -48.940563   1.000000
      3        -48.936992   1.000000
      4        -48.936663   1.000000
      5        -48.646834   1.000000
      6        -48.643494   1.000000
      7        -48.601759   1.000000
      8        -48.601114   1.000000
      9        -25.337920   1.000000
     10        -25.332608   1.000000
     11        -25.327333   1.000000
     12        -25.323425   1.000000
     13        -25.225793   1.000000
     14        -25.223530   1.000000
     15        -25.217590   1.000000
     16        -25.215384   1.000000
     17        -25.171575   1.000000
     18        -25.170261   1.000000
     19        -25.161699   1.000000
     20        -25.160438   1.000000
     21        -25.041981   1.000000
     22        -24.992839   1.000000
     23        -24.989492   1.000000
     24        -24.974421   1.000000
     25        -24.840244   1.000000
     26        -24.836213   1.000000
     27        -24.831280   1.000000
     28        -24.827387   1.000000
     29        -24.765921   1.000000
     30        -24.764778   1.000000
     31        -24.755860   1.000000
     32        -24.754796   1.000000
     33         -7.423767   1.000000
     34         -7.323278   1.000000
     35         -7.294973   1.000000
     36         -7.244089   1.000000
     37         -7.244031   1.000000
     38         -1.760608   1.000000
     39          0.159820   1.000000
     40          1.132730   1.000000
     41          2.443999   1.000000
     42          2.554583   1.000000
     43          2.709084   1.000000
     44          2.744280   1.000000
     45          3.252143   1.000000
     46          4.006101   1.000000
     47          4.662924   1.000000
     48          4.713766   1.000000
     49          5.091067   1.000000
     50          5.100103   1.000000
     51          5.204365   1.000000
     52          5.691485   1.000000
     53          5.765654   1.000000
     54          6.047174   1.000000
     55          6.345988   1.000000
     56          6.396083   1.000000
     57          6.418143   1.000000
     58          6.515033   1.000000
     59          6.708200   1.000000
     60          6.767961   1.000000
     61          6.811704   1.000000
     62          7.242157   1.000000
     63          7.293003   1.000000
     64          7.473579   1.000000
     65          7.535379   1.000000
     66          7.678967   1.000074
     67          7.848708   1.033604
     68          7.899585   0.998524
     69          7.994427   0.404909
     70          8.514570  -0.000000
     71          8.668039  -0.000000
     72          8.790114  -0.000000
     73          9.027230  -0.000000
     74          9.164067  -0.000000
     75          9.181166  -0.000000
     76          9.298138  -0.000000
     77          9.476537  -0.000000
     78          9.541851  -0.000000
     79          9.547763  -0.000000
     80          9.576563  -0.000000
     81          9.614277  -0.000000
     82          9.614324  -0.000000
     83          9.679024  -0.000000
     84          9.737476  -0.000000
     85          9.867797  -0.000000
     86         10.029929   0.000000
     87         10.074168   0.000000
     88         10.608635   0.000000
     89         10.651138   0.000000
     90         10.779401   0.000000
     91         10.828486   0.000000
     92         10.870552   0.000000
     93         11.325431   0.000000
     94         11.421175   0.000000
     95         11.476787   0.000000
     96         11.685564   0.000000
     97         12.023106   0.000000
     98         12.050693   0.000000
     99         12.223529   0.000000
    100         12.348053   0.000000
    101         12.349256   0.000000
    102         12.425761   0.000000
    103         12.865598   0.000000
    104         13.141275   0.000000
    105         13.317236   0.000000
    106         13.462815   0.000000
    107         13.472611   0.000000
    108         13.595850   0.000000
    109         13.720336   0.000000
    110         13.870226   0.000000
    111         14.908934   0.000000
    112         14.910130   0.000000
    113         15.055782   0.000000
    114         15.346408   0.000000
    115         15.785193   0.000000
    116         16.123028   0.000000
    117         16.501771   0.000000
    118         16.748616   0.000000
    119         16.776766   0.000000
    120         17.187278   0.000000
    121         17.201725   0.000000
    122         17.781846   0.000000
    123         17.844081   0.000000
    124         17.892432   0.000000
    125         18.006945   0.000000
    126         18.173250   0.000000
    127         18.176800   0.000000
    128         18.354161   0.000000
 
  0.0000000E+00  0.1578947E+00  0.0000000E+00  0.5555556E-02
      1        -48.940819   1.000000
      2        -48.940430   1.000000
      3        -48.937014   1.000000
      4        -48.936684   1.000000
      5        -48.646892   1.000000
      6        -48.643551   1.000000
      7        -48.601828   1.000000
      8        -48.601183   1.000000
      9        -25.337827   1.000000
     10        -25.332721   1.000000
     11        -25.327277   1.000000
     12        -25.323511   1.000000
     13        -25.225420   1.000000
     14        -25.223170   1.000000
     15        -25.213803   1.000000
     16        -25.211640   1.000000
     17        -25.171910   1.000000
     18        -25.170582   1.000000
     19        -25.157929   1.000000
     20        -25.156673   1.000000
     21        -25.041884   1.000000
     22        -24.992766   1.000000
     23        -24.989525   1.000000
     24        -24.974451   1.000000
     25        -24.843933   1.000000