       N       E                     dE             d eps       ncg     rms          rms(c)
DAV:   1    -0.982813604387E+02   -0.98281E+02   -0.27688E-07 57024   0.294E-03
DAV:   2    -0.982813604445E+02   -0.58317E-08   -0.62457E-08 36672   0.774E-04
   1 F= -.98281360E+02 E0= -.98282137E+02  d E =0.233066E-02
