 vasp.6.5.0 16Dec24 (build Apr 17 2025 17:55:45) complex                        
  
 executed on             LinuxIFC date 2025.06.04  15:34:55
 running   64 mpi-ranks, on    1 nodes
 distrk:  each k-point on   64 cores,    1 groups
 distr:  one band on NCORE=   1 cores,   64 groups


--------------------------------------------------------------------------------------------------------


 INCAR:
   ISTART = 1
   ICHARG = 11
   PREC = N
   LREAL = .FALSE.
   LORBIT = 11
   ENCUT = 520
   ALGO = N
   NELM = 500
   EDIFF = 1E-05
   IBRION = -1
   ISIF = 3
   NSW = 0
   EDIFFG = -0.01
   ISMEAR = 1
   SIGMA = 0.1

 POTCAR:    PAW_PBE Ti_sv 26Sep2005               
 POTCAR:    PAW_PBE Al 04Jan2001                  
 POTCAR:    PAW_PBE Ga_d 06Jul2010                
 -----------------------------------------------------------------------------
|                                                                             |
|           W    W    AA    RRRRR   N    N  II  N    N   GGGG   !!!           |
|           W    W   A  A   R    R  NN   N  II  NN   N  G    G  !!!           |
|           W    W  A    A  R    R  N N  N  II  N N  N  G       !!!           |
|           W WW W  AAAAAA  RRRRR   N  N N  II  N  N N  G  GGG   !            |
|           WW  WW  A    A  R   R   N   NN  II  N   NN  G    G                |
|           W    W  A    A  R    R  N    N  II  N    N   GGGG   !!!           |
|                                                                             |
|     For optimal performance we recommend to set                             |
|       NCORE = 2 up to number-of-cores-per-socket                            |
|     NCORE specifies how many cores store one orbital (NPAR=cpu/NCORE).      |
|     This setting can greatly improve the performance of VASP for DFT.       |
|     The default, NCORE=1 might be grossly inefficient on modern             |
|     multi-core architectures or massively parallel machines. Do your        |
|     own testing! More info at https://www.vasp.at/wiki/index.php/NCORE      |
|     Unfortunately you need to use the default for GW and RPA                |
|     calculations (for HF NCORE is supported but not extensively tested      |
|     yet).                                                                   |
|                                                                             |
 -----------------------------------------------------------------------------

 POTCAR:    PAW_PBE Ti_sv 26Sep2005               
   SHA256 =  4d747badb5a5ea28d858fbac70885b3f8929d6fd9e5b0dbe1ecb9878dc164da1 Ti_sv/POTCAR          
   COPYR  = (c) Copyright 26Sep2005 Georg Kresse                                                    
   COPYR  = This file is part of the software VASP. Any use, copying, and all other rights are regul
   COPYR  = If you do not have a valid VASP license, you may not use, copy or distribute this file. 
   VRHFIN =Ti: 3p4s3d                                                                               
   LEXCH  = PE                                                                                      
   EATOM  =  1588.0892 eV,  116.7213 Ry                                                             
                                                                                                    
   TITEL  = PAW_PBE Ti_sv 26Sep2005                                                                 
   LULTRA =        F    use ultrasoft PP ?                                                          
   IUNSCR =        1    unscreen: 0-lin 1-nonlin 2-no                                               
   RPACOR =    2.000    partial core radius                                                         
   POMASS =   47.880; ZVAL   =   12.000    mass and valenz                                          
   RCORE  =    2.300    outmost cutoff radius                                                       
   RWIGS  =    2.300; RWIGS  =    1.217    wigner-seitz radius (au A)                               
   ENMAX  =  274.610; ENMIN  =  205.957 eV                                                          
   ICORE  =        3    local potential                                                             
   LCOR   =        T    correct aug charges                                                         
   LPAW   =        T    paw PP                                                                      
   EAUG   =  482.848                                                                                
   RMAX   =    2.348    core radius for proj-oper                                                   
   RAUG   =    1.300    factor for augmentation sphere                                              
   RDEP   =    2.381    radius for radial grids                                                     
   RDEPT  =    1.930    core radius for aug-charge                                                  
                                                                                                    
   Atomic configuration                                                                             
    8 entries                                                                                       
     n  l   j            E        occ.                                                              
     1  0  0.50     -4865.3608   2.0000                                                             
     2  0  0.50      -533.1368   2.0000                                                             
     2  1  1.50      -440.5031   6.0000                                                             
     3  0  0.50       -59.3186   2.0000                                                             
     4  0  0.50        -3.7291   1.0000                                                             
     3  1  1.50       -35.7012   6.0000                                                             
     3  2  2.50        -1.9157   3.0000                                                             
     4  3  2.50        -1.3606   0.0000                                                             
   Description                                                                                      
     l       E           TYP  RCUT    TYP  RCUT                                                     
     0    -59.3185931     23  1.800                                                                 
     0     -3.7290822     23  2.300                                                                 
     1    -35.7012045     23  2.300                                                                 
     1     -1.3605826     23  2.300                                                                 
     2     -1.9156920     23  2.300                                                                 
     2     -0.0236318     23  2.300                                                                 
     3     -1.3605826     23  2.300                                                                 
  local pseudopotential read in
  partial core-charges read in
  partial kinetic energy density read in
  atomic valenz-charges read in
  non local Contribution for L=           0  read in
    real space projection operators read in
  non local Contribution for L=           0  read in
    real space projection operators read in
  non local Contribution for L=           1  read in
    real space projection operators read in
  non local Contribution for L=           1  read in
    real space projection operators read in
  non local Contribution for L=           2  read in
    real space projection operators read in
  non local Contribution for L=           2  read in
    real space projection operators read in
    PAW grid and wavefunctions read in
 
   number of l-projection  operators is LMAX  =           6
   number of lm-projection operators is LMMAX =          18
 
 POTCAR:    PAW_PBE Al 04Jan2001                  
   SHA256 =  17880443556af62b473fe41b62a467bd001ad55d2cabe504a3f22e34d4e9db96 Al/POTCAR             
   COPYR  = (c) Copyright 04Jan2001 Georg Kresse                                                    
   COPYR  = This file is part of the software VASP. Any use, copying, and all other rights are regul
   COPYR  = If you do not have a valid VASP license, you may not use, copy or distribute this file. 
   VRHFIN =Al: s2p1                                                                                 
   LEXCH  = PE                                                                                      
   EATOM  =    53.5387 eV,    3.9350 Ry                                                             
                                                                                                    
   TITEL  = PAW_PBE Al 04Jan2001                                                                    
   LULTRA =        F    use ultrasoft PP ?                                                          
   IUNSCR =        1    unscreen: 0-lin 1-nonlin 2-no                                               
   RPACOR =    1.500    partial core radius                                                         
   POMASS =   26.981; ZVAL   =    3.000    mass and valenz                                          
   RCORE  =    1.900    outmost cutoff radius                                                       
   RWIGS  =    2.650; RWIGS  =    1.402    wigner-seitz radius (au A)                               
   ENMAX  =  240.300; ENMIN  =  180.225 eV                                                          
   ICORE  =        2    local potential                                                             
   LCOR   =        T    correct aug charges                                                         
   LPAW   =        T    paw PP                                                                      
   EAUG   =  291.052                                                                                
   DEXC   =    0.000                                                                                
   RMAX   =    1.939    core radius for proj-oper                                                   
   RAUG   =    1.300    factor for augmentation sphere                                              
   RDEP   =    1.966    radius for radial grids                                                     
   RDEPT  =    1.856    core radius for aug-charge                                                  
                                                                                                    
   Atomic configuration                                                                             
    6 entries                                                                                       
     n  l   j            E        occ.                                                              
     1  0  0.50     -1511.1048   2.0000                                                             
     2  0  0.50      -108.1629   2.0000                                                             
     2  1  1.50       -69.6402   6.0000                                                             
     3  0  0.50        -7.7528   2.0000                                                             
     3  1  1.50        -2.7121   1.0000                                                             
     3  2  2.50        -2.7212   0.0000                                                             
   Description                                                                                      
     l       E           TYP  RCUT    TYP  RCUT                                                     
     0     -7.7528455     23  1.900                                                                 
     0     -3.3096929     23  1.900                                                                 
     1     -2.7120682     23  1.900                                                                 
     1     13.6058260     23  1.900                                                                 
     2     -2.7211652      7  1.900                                                                 
  local pseudopotential read in
  partial core-charges read in
  partial kinetic energy density read in
  atomic valenz-charges read in
  non local Contribution for L=           0  read in
    real space projection operators read in
  non local Contribution for L=           0  read in
    real space projection operators read in
  non local Contribution for L=           1  read in
    real space projection operators read in
  non local Contribution for L=           1  read in
    real space projection operators read in
    PAW grid and wavefunctions read in
 
   number of l-projection  operators is LMAX  =           4
   number of lm-projection operators is LMMAX =           8
 
 POTCAR:    PAW_PBE Ga_d 06Jul2010                
   SHA256 =  a60ddf36e14f00ea098d9e3914b3745f1b7105e68786148f49ae384e44b4226c Ga_d/POTCAR           
   COPYR  = (c) Copyright 06Jul2010 Georg Kresse                                                    
   COPYR  = This file is part of the software VASP. Any use, copying, and all other rights are regul
   COPYR  = If you do not have a valid VASP license, you may not use, copy or distribute this file. 
   VRHFIN =Ga: s2p1                                                                                 
   LEXCH  = PE                                                                                      
   EATOM  =  2148.8298 eV,  157.9345 Ry                                                             
                                                                                                    
   TITEL  = PAW_PBE Ga_d 06Jul2010                                                                  
   LULTRA =        F    use ultrasoft PP ?                                                          
   IUNSCR =        1    unscreen: 0-lin 1-nonlin 2-no                                               
   RPACOR =    1.700    partial core radius                                                         
   POMASS =   69.723; ZVAL   =   13.000    mass and valenz                                          
   RCORE  =    2.300    outmost cutoff radius                                                       
   RWIGS  =    2.300; RWIGS  =    1.217    wigner-seitz radius (au A)                               
   ENMAX  =  282.691; ENMIN  =  212.018 eV                                                          
   ICORE  =        3    local potential                                                             
   LCOR   =        T    correct aug charges                                                         
   LPAW   =        T    paw PP                                                                      
   EAUG   =  490.690                                                                                
   DEXC   =    0.000                                                                                
   RMAX   =    2.341    core radius for proj-oper                                                   
   RAUG   =    1.300    factor for augmentation sphere                                              
   RDEP   =    2.413    radius for radial grids                                                     
   RDEPT  =    1.856    core radius for aug-charge                                                  
                                                                                                    
   Atomic configuration                                                                             
    9 entries                                                                                       
     n  l   j            E        occ.                                                              
     1  0  0.50    -10228.7831   2.0000                                                             
     2  0  0.50     -1262.1604   2.0000                                                             
     2  1  1.50     -1098.6333   6.0000                                                             
     3  0  0.50      -148.1110   2.0000                                                             
     3  1  1.50       -98.8436   6.0000                                                             
     3  2  2.50       -19.1549  10.0000                                                             
     4  0  0.50        -8.9483   2.0000                                                             
     4  1  0.50        -2.5791   1.0000                                                             
     4  3  2.50        -2.7416   0.0000                                                             
   Description                                                                                      
     l       E           TYP  RCUT    TYP  RCUT                                                     
     2    -19.1549037     23  2.300                                                                 
     2     -5.4423304     23  2.300                                                                 
     0     -8.9483111     23  2.300                                                                 
     0     68.0291300     23  2.300                                                                 
     1     -2.5790802     23  2.100                                                                 
     1     81.6349560     23  2.300                                                                 
     3      6.8029130     23  2.300                                                                 
  local pseudopotential read in
  partial core-charges read in
  partial kinetic energy density read in
  atomic valenz-charges read in
  non local Contribution for L=           2  read in
    real space projection operators read in
  non local Contribution for L=           2  read in
    real space projection operators read in
  non local Contribution for L=           0  read in
    real space projection operators read in
  non local Contribution for L=           0  read in
    real space projection operators read in
  non local Contribution for L=           1  read in
    real space projection operators read in
  non local Contribution for L=           1  read in
    real space projection operators read in
    PAW grid and wavefunctions read in
 
   number of l-projection  operators is LMAX  =           6
   number of lm-projection operators is LMMAX =          18
 
 -----------------------------------------------------------------------------
|                                                                             |
|               ----> ADVICE to this user running VASP <----                  |
|                                                                             |
|     You have a (more or less) 'large supercell' and for larger cells it     |
|     might be more efficient to use real-space projection operators.         |
|     Therefore, try LREAL= Auto in the INCAR file.                           |
|     Mind: For very accurate calculation, you might also keep the            |
|     reciprocal projection scheme (i.e. LREAL=.FALSE.).                      |
|                                                                             |
 -----------------------------------------------------------------------------

  PAW_PBE Ti_sv 26Sep2005               :
 energy of atom  1       EATOM=-1588.0892
 kinetic energy error for atom=    0.0042 (will be added to EATOM!!)
  PAW_PBE Al 04Jan2001                  :
 energy of atom  2       EATOM=  -53.5387
 kinetic energy error for atom=    0.0002 (will be added to EATOM!!)
  PAW_PBE Ga_d 06Jul2010                :
 energy of atom  3       EATOM=-2148.8298
 kinetic energy error for atom=    0.0026 (will be added to EATOM!!)
 
 
 POSCAR: Ti1 Al1
  positions in direct lattice
  velocities in cartesian coordinates


 exchange-correlation table for PE
   RHO(1)=    0.500       N(1)  =     2000
   RHO(2)=  100.500       N(2)  =     4000
 


--------------------------------------------------------------------------------------------------------


 ion  position               nearest neighbor table
   1  0.000  0.000  0.019-   9 2.78  11 2.78  13 2.78  15 2.78  10 2.85  14 2.85  12 2.85  16 2.85

   2  0.000  0.000  0.481-   9 2.78  11 2.78  13 2.78  15 2.78  10 2.85  14 2.85  12 2.85  16 2.85

   3  0.000  0.500  0.996-  10 2.92  12 2.92  14 2.92  16 2.92  13 2.96  11 2.96  15 2.96   9 2.96

   4  0.000  0.500  0.504-  10 2.92  12 2.92  14 2.92  16 2.92  13 2.96  11 2.96  15 2.96   9 2.96

   5  0.500  0.000  0.996-  10 2.92  12 2.92  14 2.92  16 2.92  13 2.96  11 2.96  15 2.96   9 2.96

   6  0.500  0.000  0.504-  10 2.92  12 2.92  14 2.92  16 2.92  13 2.96  11 2.96  15 2.96   9 2.96

   7  0.500  0.500  0.046-  17 2.46  11 2.72  13 2.72  15 2.72   9 2.72
   8  0.500  0.500  0.454-  17 2.46  11 2.72  13 2.72  15 2.72   9 2.72
   9  0.243  0.243  0.250-   7 2.72   8 2.72   1 2.78   2 2.78  11 2.84  13 2.84   3 2.96   4 2.96
                             5 2.96   6 2.96  13 3.01  11 3.01
  10  0.214  0.214  0.750-  17 2.37  14 2.51  12 2.51   2 2.85   1 2.85   6 2.92   3 2.92   4 2.92
                             5 2.92  12 3.35  14 3.35
  11  0.243  0.757  0.250-   7 2.72   8 2.72   1 2.78   2 2.78   9 2.84  15 2.84   3 2.96   4 2.96
                             5 2.96   6 2.96  15 3.01   9 3.01
  12  0.214  0.786  0.750-  17 2.37  16 2.51  10 2.51   2 2.85   1 2.85   6 2.92   3 2.92   4 2.92
                             5 2.92  16 3.35  10 3.35
  13  0.757  0.243  0.250-   7 2.72   8 2.72   1 2.78   2 2.78   9 2.84  15 2.84   3 2.96   4 2.96
                             5 2.96   6 2.96  15 3.01   9 3.01
  14  0.786  0.214  0.750-  17 2.37  16 2.51  10 2.51   2 2.85   1 2.85   6 2.92   3 2.92   4 2.92
                             5 2.92  16 3.35  10 3.35
  15  0.757  0.757  0.250-   7 2.72   8 2.72   1 2.78   2 2.78  11 2.84  13 2.84   3 2.96   4 2.96
                             5 2.96   6 2.96  13 3.01  11 3.01
  16  0.786  0.786  0.750-  17 2.37  14 2.51  12 2.51   2 2.85   1 2.85   6 2.92   3 2.92   4 2.92
                             5 2.92  14 3.35  12 3.35
  17  0.500  0.500  0.750-  10 2.37  12 2.37  14 2.37  16 2.37   7 2.46   8 2.46
 
  LATTYP: Found a simple tetragonal cell.
 ALAT       =     5.8584555020
 C/A-ratio  =     1.4168024267
  
  Lattice vectors:
  
 A1 = (   5.8584555020,   0.0000000000,   0.0000000000)
 A2 = (   0.0000000000,   5.8584555020,   0.0000000000)
 A3 = (   0.0000000000,   0.0000000000,   8.3002739718)


Analysis of symmetry for initial positions (statically):
=====================================================================
 Subroutine PRICEL returns:
 Original cell was already a primitive cell.
 

 Routine SETGRP: Setting up the symmetry group for a 
 simple tetragonal supercell.


 Subroutine GETGRP returns: Found 16 space group operations
 (whereof  8 operations were pure point group operations)
 out of a pool of 16 trial point group operations.


The static configuration has the point symmetry C_4v.
 The point group associated with its full space group is D_4h.


Analysis of symmetry for dynamics (positions and initial velocities):
=====================================================================
 Subroutine PRICEL returns:
 Original cell was already a primitive cell.
 

 Routine SETGRP: Setting up the symmetry group for a 
 simple tetragonal supercell.


 Subroutine GETGRP returns: Found 16 space group operations
 (whereof  8 operations were pure point group operations)
 out of a pool of 16 trial point group operations.


The dynamic configuration has the point symmetry C_4v.
 The point group associated with its full space group is D_4h.


 Subroutine INISYM returns: Found 16 space group operations
 (whereof  8 operations are pure point group operations),
 and found     1 'primitive' translations


----------------------------------------------------------------------------------------

                                     Primitive cell                                     

  volume of cell :     284.8779

  direct lattice vectors                    reciprocal lattice vectors
     5.858455502  0.000000000  0.000000000     0.170693453  0.000000000  0.000000000
     0.000000000  5.858455502  0.000000000     0.000000000  0.170693453  0.000000000
     0.000000000  0.000000000  8.300273972     0.000000000  0.000000000  0.120477951

  length of vectors
     5.858455502  5.858455502  8.300273972     0.170693453  0.170693453  0.120477951

  position of ions in fractional coordinates (direct lattice)
     0.000000000  0.000000000  0.018673676
     0.000000000  0.000000000  0.481326324
     0.000000000  0.500000000  0.995507135
     0.000000000  0.500000000  0.504492865
     0.500000000  0.000000000  0.995507135
     0.500000000  0.000000000  0.504492865
     0.500000000  0.500000000  0.046382817
     0.500000000  0.500000000  0.453617183
     0.242685310  0.242685310  0.250000000
     0.213916829  0.213916829  0.750000000
     0.242685310  0.757314690  0.250000000
     0.213916829  0.786083171  0.750000000
     0.757314690  0.242685310  0.250000000
     0.786083171  0.213916829  0.750000000
     0.757314690  0.757314690  0.250000000
     0.786083171  0.786083171  0.750000000
     0.500000000  0.500000000  0.750000000

  ion indices of the primitive-cell ions
   primitive index   ion index
                 1           1
                 2           2
                 3           3
                 4           4
                 5           5
                 6           6
                 7           7
                 8           8
                 9           9
                10          10
                11          11
                12          12
                13          13
                14          14
                15          15
                16          16
                17          17

----------------------------------------------------------------------------------------

 
 
 KPOINTS: K-Path Generated by VASPKIT.            

Interpolating k-points between supplied coordinates.

 Line segments in fractional coordinates (reciprocal lattice):
    0.000000  0.000000  0.000000  ...  0.000000  0.500000  0.000000
    0.000000  0.500000  0.000000  ...  0.500000  0.500000  0.000000
    0.500000  0.500000  0.000000  ...  0.000000  0.000000  0.000000
    0.000000  0.000000  0.000000  ...  0.000000  0.000000  0.500000
    0.000000  0.000000  0.500000  ...  0.000000  0.500000  0.500000
    0.000000  0.500000  0.500000  ...  0.500000  0.500000  0.500000
    0.500000  0.500000  0.500000  ...  0.000000  0.000000  0.500000
    0.000000  0.500000  0.000000  ...  0.000000  0.500000  0.500000
    0.500000  0.500000  0.000000  ...  0.500000  0.500000  0.500000

 Generated    20 points on each line segment, for a total of    180 k-points:

 Following reciprocal coordinates:
            Coordinates               Weight
  0.000000  0.000000  0.000000      0.005556
  0.000000  0.026316  0.000000      0.005556
  0.000000  0.052632  0.000000      0.005556
  0.000000  0.078947  0.000000      0.005556
  0.000000  0.105263  0.000000      0.005556
  0.000000  0.131579  0.000000      0.005556
  0.000000  0.157895  0.000000      0.005556
  0.000000  0.184211  0.000000      0.005556
  0.000000  0.210526  0.000000      0.005556
  0.000000  0.236842  0.000000      0.005556
  0.000000  0.263158  0.000000      0.005556
  0.000000  0.289474  0.000000      0.005556
  0.000000  0.315789  0.000000      0.005556
  0.000000  0.342105  0.000000      0.005556
  0.000000  0.368421  0.000000      0.005556
  0.000000  0.394737  0.000000      0.005556
  0.000000  0.421053  0.000000      0.005556
  0.000000  0.447368  0.000000      0.005556
  0.000000  0.473684  0.000000      0.005556
  0.000000  0.500000  0.000000      0.005556
  0.000000  0.500000  0.000000      0.005556
  0.026316  0.500000  0.000000      0.005556
  0.052632  0.500000  0.000000      0.005556
  0.078947  0.500000  0.000000      0.005556
  0.105263  0.500000  0.000000      0.005556
  0.131579  0.500000  0.000000      0.005556
  0.157895  0.500000  0.000000      0.005556
  0.184211  0.500000  0.000000      0.005556
  0.210526  0.500000  0.000000      0.005556
  0.236842  0.500000  0.000000      0.005556
  0.263158  0.500000  0.000000      0.005556
  0.289474  0.500000  0.000000      0.005556
  0.315789  0.500000  0.000000      0.005556
  0.342105  0.500000  0.000000      0.005556
  0.368421  0.500000  0.000000      0.005556
  0.394737  0.500000  0.000000      0.005556
  0.421053  0.500000  0.000000      0.005556
  0.447368  0.500000  0.000000      0.005556
  0.473684  0.500000  0.000000      0.005556
  0.500000  0.500000  0.000000      0.005556
  0.500000  0.500000  0.000000      0.005556
  0.473684  0.473684  0.000000      0.005556
  0.447368  0.447368  0.000000      0.005556
  0.421053  0.421053  0.000000      0.005556
  0.394737  0.394737  0.000000      0.005556
  0.368421  0.368421  0.000000      0.005556
  0.342105  0.342105  0.000000      0.005556
  0.315789  0.315789  0.000000      0.005556
  0.289474  0.289474  0.000000      0.005556
  0.263158  0.263158  0.000000      0.005556
  0.236842  0.236842  0.000000      0.005556
  0.210526  0.210526  0.000000      0.005556
  0.184211  0.184211  0.000000      0.005556
  0.157895  0.157895  0.000000      0.005556
  0.131579  0.131579  0.000000      0.005556
  0.105263  0.105263  0.000000      0.005556
  0.078947  0.078947  0.000000      0.005556
  0.052632  0.052632  0.000000      0.005556
  0.026316  0.026316  0.000000      0.005556
  0.000000  0.000000  0.000000      0.005556
  0.000000  0.000000  0.000000      0.005556
  0.000000  0.000000  0.026316      0.005556
  0.000000  0.000000  0.052632      0.005556
  0.000000  0.000000  0.078947      0.005556
  0.000000  0.000000  0.105263      0.005556
  0.000000  0.000000  0.131579      0.005556
  0.000000  0.000000  0.157895      0.005556
  0.000000  0.000000  0.184211      0.005556
  0.000000  0.000000  0.210526      0.005556
  0.000000  0.000000  0.236842      0.005556
  0.000000  0.000000  0.263158      0.005556
  0.000000  0.000000  0.289474      0.005556
  0.000000  0.000000  0.315789      0.005556
  0.000000  0.000000  0.342105      0.005556
  0.000000  0.000000  0.368421      0.005556
  0.000000  0.000000  0.394737      0.005556
  0.000000  0.000000  0.421053      0.005556
  0.000000  0.000000  0.447368      0.005556
  0.000000  0.000000  0.473684      0.005556
  0.000000  0.000000  0.500000      0.005556
  0.000000  0.000000  0.500000      0.005556
  0.000000  0.026316  0.500000      0.005556
  0.000000  0.052632  0.500000      0.005556
  0.000000  0.078947  0.500000      0.005556
  0.000000  0.105263  0.500000      0.005556
  0.000000  0.131579  0.500000      0.005556
  0.000000  0.157895  0.500000      0.005556
  0.000000  0.184211  0.500000      0.005556
  0.000000  0.210526  0.500000      0.005556
  0.000000  0.236842  0.500000      0.005556
  0.000000  0.263158  0.500000      0.005556
  0.000000  0.289474  0.500000      0.005556
  0.000000  0.315789  0.500000      0.005556
  0.000000  0.342105  0.500000      0.005556
  0.000000  0.368421  0.500000      0.005556
  0.000000  0.394737  0.500000      0.005556
  0.000000  0.421053  0.500000      0.005556
  0.000000  0.447368  0.500000      0.005556
  0.000000  0.473684  0.500000      0.005556
  0.000000  0.500000  0.500000      0.005556
  0.000000  0.500000  0.500000      0.005556
  0.026316  0.500000  0.500000      0.005556
  0.052632  0.500000  0.500000      0.005556
  0.078947  0.500000  0.500000      0.005556
  0.105263  0.500000  0.500000      0.005556
  0.131579  0.500000  0.500000      0.005556
  0.157895  0.500000  0.500000      0.005556
  0.184211  0.500000  0.500000      0.005556
  0.210526  0.500000  0.500000      0.005556
  0.236842  0.500000  0.500000      0.005556
  0.263158  0.500000  0.500000      0.005556
  0.289474  0.500000  0.500000      0.005556
  0.315789  0.500000  0.500000      0.005556
  0.342105  0.500000  0.500000      0.005556
  0.368421  0.500000  0.500000      0.005556
  0.394737  0.500000  0.500000      0.005556
  0.421053  0.500000  0.500000      0.005556
  0.447368  0.500000  0.500000      0.005556
  0.473684  0.500000  0.500000      0.005556
  0.500000  0.500000  0.500000      0.005556
  0.500000  0.500000  0.500000      0.005556
  0.473684  0.473684  0.500000      0.005556
  0.447368  0.447368  0.500000      0.005556
  0.421053  0.421053  0.500000      0.005556
  0.394737  0.394737  0.500000      0.005556
  0.368421  0.368421  0.500000      0.005556
  0.342105  0.342105  0.500000      0.005556
  0.315789  0.315789  0.500000      0.005556
  0.289474  0.289474  0.500000      0.005556
  0.263158  0.263158  0.500000      0.005556
  0.236842  0.236842  0.500000      0.005556
  0.210526  0.210526  0.500000      0.005556
  0.184211  0.184211  0.500000      0.005556
  0.157895  0.157895  0.500000      0.005556
  0.131579  0.131579  0.500000      0.005556
  0.105263  0.105263  0.500000      0.005556
  0.078947  0.078947  0.500000      0.005556
  0.052632  0.052632  0.500000      0.005556
  0.026316  0.026316  0.500000      0.005556
  0.000000  0.000000  0.500000      0.005556
  0.000000  0.500000  0.000000      0.005556
  0.000000  0.500000  0.026316      0.005556
  0.000000  0.500000  0.052632      0.005556
  0.000000  0.500000  0.078947      0.005556
  0.000000  0.500000  0.105263      0.005556
  0.000000  0.500000  0.131579      0.005556
  0.000000  0.500000  0.157895      0.005556
  0.000000  0.500000  0.184211      0.005556
  0.000000  0.500000  0.210526      0.005556
  0.000000  0.500000  0.236842      0.005556
  0.000000  0.500000  0.263158      0.005556
  0.000000  0.500000  0.289474      0.005556
  0.000000  0.500000  0.315789      0.005556
  0.000000  0.500000  0.342105      0.005556
  0.000000  0.500000  0.368421      0.005556
  0.000000  0.500000  0.394737      0.005556
  0.000000  0.500000  0.421053      0.005556
  0.000000  0.500000  0.447368      0.005556
  0.000000  0.500000  0.473684      0.005556
  0.000000  0.500000  0.500000      0.005556
  0.500000  0.500000  0.000000      0.005556
  0.500000  0.500000  0.026316      0.005556
  0.500000  0.500000  0.052632      0.005556
  0.500000  0.500000  0.078947      0.005556
  0.500000  0.500000  0.105263      0.005556
  0.500000  0.500000  0.131579      0.005556
  0.500000  0.500000  0.157895      0.005556
  0.500000  0.500000  0.184211      0.005556
  0.500000  0.500000  0.210526      0.005556
  0.500000  0.500000  0.236842      0.005556
  0.500000  0.500000  0.263158      0.005556
  0.500000  0.500000  0.289474      0.005556
  0.500000  0.500000  0.315789      0.005556
  0.500000  0.500000  0.342105      0.005556
  0.500000  0.500000  0.368421      0.005556
  0.500000  0.500000  0.394737      0.005556
  0.500000  0.500000  0.421053      0.005556
  0.500000  0.500000  0.447368      0.005556
  0.500000  0.500000  0.473684      0.005556
  0.500000  0.500000  0.500000      0.005556

 Following cartesian coordinates:
            Coordinates               Weight
  0.000000  0.000000  0.000000      0.005556
  0.000000  0.004492  0.000000      0.005556
  0.000000  0.008984  0.000000      0.005556
  0.000000  0.013476  0.000000      0.005556
  0.000000  0.017968  0.000000      0.005556
  0.000000  0.022460  0.000000      0.005556
  0.000000  0.026952  0.000000      0.005556
  0.000000  0.031444  0.000000      0.005556
  0.000000  0.035935  0.000000      0.005556
  0.000000  0.040427  0.000000      0.005556
  0.000000  0.044919  0.000000      0.005556
  0.000000  0.049411  0.000000      0.005556
  0.000000  0.053903  0.000000      0.005556
  0.000000  0.058395  0.000000      0.005556
  0.000000  0.062887  0.000000      0.005556
  0.000000  0.067379  0.000000      0.005556
  0.000000  0.071871  0.000000      0.005556
  0.000000  0.076363  0.000000      0.005556
  0.000000  0.080855  0.000000      0.005556
  0.000000  0.085347  0.000000      0.005556
  0.000000  0.085347  0.000000      0.005556
  0.004492  0.085347  0.000000      0.005556
  0.008984  0.085347  0.000000      0.005556
  0.013476  0.085347  0.000000      0.005556
  0.017968  0.085347  0.000000      0.005556
  0.022460  0.085347  0.000000      0.005556
  0.026952  0.085347  0.000000      0.005556
  0.031444  0.085347  0.000000      0.005556
  0.035935  0.085347  0.000000      0.005556
  0.040427  0.085347  0.000000      0.005556
  0.044919  0.085347  0.000000      0.005556
  0.049411  0.085347  0.000000      0.005556
  0.053903  0.085347  0.000000      0.005556
  0.058395  0.085347  0.000000      0.005556
  0.062887  0.085347  0.000000      0.005556
  0.067379  0.085347  0.000000      0.005556
  0.071871  0.085347  0.000000      0.005556
  0.076363  0.085347  0.000000      0.005556
  0.080855  0.085347  0.000000      0.005556
  0.085347  0.085347  0.000000      0.005556
  0.085347  0.085347  0.000000      0.005556
  0.080855  0.080855  0.000000      0.005556
  0.076363  0.076363  0.000000      0.005556
  0.071871  0.071871  0.000000      0.005556
  0.067379  0.067379  0.000000      0.005556
  0.062887  0.062887  0.000000      0.005556
  0.058395  0.058395  0.000000      0.005556
  0.053903  0.053903  0.000000      0.005556
  0.049411  0.049411  0.000000      0.005556
  0.044919  0.044919  0.000000      0.005556
  0.040427  0.040427  0.000000      0.005556
  0.035935  0.035935  0.000000      0.005556
  0.031444  0.031444  0.000000      0.005556
  0.026952  0.026952  0.000000      0.005556
  0.022460  0.022460  0.000000      0.005556
  0.017968  0.017968  0.000000      0.005556
  0.013476  0.013476  0.000000      0.005556
  0.008984  0.008984  0.000000      0.005556
  0.004492  0.004492  0.000000      0.005556
  0.000000  0.000000  0.000000      0.005556
  0.000000  0.000000  0.000000      0.005556
  0.000000  0.000000  0.003170      0.005556
  0.000000  0.000000  0.006341      0.005556
  0.000000  0.000000  0.009511      0.005556
  0.000000  0.000000  0.012682      0.005556
  0.000000  0.000000  0.015852      0.005556
  0.000000  0.000000  0.019023      0.005556
  0.000000  0.000000  0.022193      0.005556
  0.000000  0.000000  0.025364      0.005556
  0.000000  0.000000  0.028534      0.005556
  0.000000  0.000000  0.031705      0.005556
  0.000000  0.000000  0.034875      0.005556
  0.000000  0.000000  0.038046      0.005556
  0.000000  0.000000  0.041216      0.005556
  0.000000  0.000000  0.044387      0.005556
  0.000000  0.000000  0.047557      0.005556
  0.000000  0.000000  0.050728      0.005556
  0.000000  0.000000  0.053898      0.005556
  0.000000  0.000000  0.057069      0.005556
  0.000000  0.000000  0.060239      0.005556
  0.000000  0.000000  0.060239      0.005556
  0.000000  0.004492  0.060239      0.005556
  0.000000  0.008984  0.060239      0.005556
  0.000000  0.013476  0.060239      0.005556
  0.000000  0.017968  0.060239      0.005556
  0.000000  0.022460  0.060239      0.005556
  0.000000  0.026952  0.060239      0.005556
  0.000000  0.031444  0.060239      0.005556
  0.000000  0.035935  0.060239      0.005556
  0.000000  0.040427  0.060239      0.005556
  0.000000  0.044919  0.060239      0.005556
  0.000000  0.049411  0.060239      0.005556
  0.000000  0.053903  0.060239      0.005556
  0.000000  0.058395  0.060239      0.005556
  0.000000  0.062887  0.060239      0.005556
  0.000000  0.067379  0.060239      0.005556
  0.000000  0.071871  0.060239      0.005556
  0.000000  0.076363  0.060239      0.005556
  0.000000  0.080855  0.060239      0.005556
  0.000000  0.085347  0.060239      0.005556
  0.000000  0.085347  0.060239      0.005556
  0.004492  0.085347  0.060239      0.005556
  0.008984  0.085347  0.060239      0.005556
  0.013476  0.085347  0.060239      0.005556
  0.017968  0.085347  0.060239      0.005556
  0.022460  0.085347  0.060239      0.005556
  0.026952  0.085347  0.060239      0.005556
  0.031444  0.085347  0.060239      0.005556
  0.035935  0.085347  0.060239      0.005556
  0.040427  0.085347  0.060239      0.005556
  0.044919  0.085347  0.060239      0.005556
  0.049411  0.085347  0.060239      0.005556
  0.053903  0.085347  0.060239      0.005556
  0.058395  0.085347  0.060239      0.005556
  0.062887  0.085347  0.060239      0.005556
  0.067379  0.085347  0.060239      0.005556
  0.071871  0.085347  0.060239      0.005556
  0.076363  0.085347  0.060239      0.005556
  0.080855  0.085347  0.060239      0.005556
  0.085347  0.085347  0.060239      0.005556
  0.085347  0.085347  0.060239      0.005556
  0.080855  0.080855  0.060239      0.005556
  0.076363  0.076363  0.060239      0.005556
  0.071871  0.071871  0.060239      0.005556
  0.067379  0.067379  0.060239      0.005556
  0.062887  0.062887  0.060239      0.005556
  0.058395  0.058395  0.060239      0.005556
  0.053903  0.053903  0.060239      0.005556
  0.049411  0.049411  0.060239      0.005556
  0.044919  0.044919  0.060239      0.005556
  0.040427  0.040427  0.060239      0.005556
  0.035935  0.035935  0.060239      0.005556
  0.031444  0.031444  0.060239      0.005556
  0.026952  0.026952  0.060239      0.005556
  0.022460  0.022460  0.060239      0.005556
  0.017968  0.017968  0.060239      0.005556
  0.013476  0.013476  0.060239      0.005556
  0.008984  0.008984  0.060239      0.005556
  0.004492  0.004492  0.060239      0.005556
  0.000000  0.000000  0.060239      0.005556
  0.000000  0.085347  0.000000      0.005556
  0.000000  0.085347  0.003170      0.005556
  0.000000  0.085347  0.006341      0.005556
  0.000000  0.085347  0.009511      0.005556
  0.000000  0.085347  0.012682      0.005556
  0.000000  0.085347  0.015852      0.005556
  0.000000  0.085347  0.019023      0.005556
  0.000000  0.085347  0.022193      0.005556
  0.000000  0.085347  0.025364      0.005556
  0.000000  0.085347  0.028534      0.005556
  0.000000  0.085347  0.031705      0.005556
  0.000000  0.085347  0.034875      0.005556
  0.000000  0.085347  0.038046      0.005556
  0.000000  0.085347  0.041216      0.005556
  0.000000  0.085347  0.044387      0.005556
  0.000000  0.085347  0.047557      0.005556
  0.000000  0.085347  0.050728      0.005556
  0.000000  0.085347  0.053898      0.005556
  0.000000  0.085347  0.057069      0.005556
  0.000000  0.085347  0.060239      0.005556
  0.085347  0.085347  0.000000      0.005556
  0.085347  0.085347  0.003170      0.005556
  0.085347  0.085347  0.006341      0.005556
  0.085347  0.085347  0.009511      0.005556
  0.085347  0.085347  0.012682      0.005556
  0.085347  0.085347  0.015852      0.005556
  0.085347  0.085347  0.019023      0.005556
  0.085347  0.085347  0.022193      0.005556
  0.085347  0.085347  0.025364      0.005556
  0.085347  0.085347  0.028534      0.005556
  0.085347  0.085347  0.031705      0.005556
  0.085347  0.085347  0.034875      0.005556
  0.085347  0.085347  0.038046      0.005556
  0.085347  0.085347  0.041216      0.005556
  0.085347  0.085347  0.044387      0.005556
  0.085347  0.085347  0.047557      0.005556
  0.085347  0.085347  0.050728      0.005556
  0.085347  0.085347  0.053898      0.005556
  0.085347  0.085347  0.057069      0.005556
  0.085347  0.085347  0.060239      0.005556
 


--------------------------------------------------------------------------------------------------------




 Dimension of arrays:
   k-points           NKPTS =    180   k-points in BZ     NKDIM =    180   number of bands    NBANDS=    128
   number of dos      NEDOS =    301   number of ions     NIONS =     17
   non local maximal  LDIM  =      6   non local SUM 2l+1 LMDIM =     18
   total plane-waves  NPLWV =  62208
   max r-space proj   IRMAX =      1   max aug-charges    IRDMAX=   8697
   dimension x,y,z NGX =    36 NGY =   36 NGZ =   48
   dimension x,y,z NGXF=    72 NGYF=   72 NGZF=   96
   support grid    NGXF=    72 NGYF=   72 NGZF=   96
   ions per type =               8   8   1
   NGX,Y,Z   is equivalent  to a cutoff of  10.22, 10.22,  9.61 a.u.
   NGXF,Y,Z  is equivalent  to a cutoff of  20.43, 20.43, 19.23 a.u.

 SYSTEM =  unknown system                          
 POSCAR =  Ti1 Al1                                 

 Startparameter for this run:
   NWRITE =      2    write-flag & timer
   PREC   = n         normal or accurate (medium, high low for compatibility)
   ISTART =      1    job   : 0-new  1-cont  2-samecut
   ICHARG =     11    charge: 1-file 2-atom 10-const
   ISPIN  =      1    spin polarized calculation?
   LNONCOLLINEAR =      F non collinear calculations
   LSORBIT =      F    spin-orbit coupling
   INIWAV =      1    electr: 0-lowe 1-rand  2-diag
   LASPH  =      F    aspherical Exc in radial PAW
 Electronic Relaxation 1
   ENCUT  =  520.0 eV  38.22 Ry    6.18 a.u.  10.89 10.89 15.43*2*pi/ulx,y,z
   ENINI  =  520.0     initial cutoff
   ENAUG  =  490.7 eV  augmentation charge cutoff
   NELM   =    500;   NELMIN=  2; NELMDL=  0     # of ELM steps 
   EDIFF  = 0.1E-04   stopping-criterion for ELM
   LREAL  =      F    real-space projection
   NLSPLINE    = F    spline interpolate recip. space projectors
   LCOMPAT=      F    compatible to vasp.4.4
   GGA_COMPAT  = T    GGA compatible to vasp.4.4-vasp.4.6
   LMAXPAW     = -100 max onsite density
   LMAXMIX     =    2 max onsite mixed and CHGCAR
   VOSKOWN=      0    Vosko Wilk Nusair interpolation
   ROPT   =    0.00000   0.00000   0.00000
 Ionic relaxation
   EDIFFG = -.1E-01   stopping-criterion for IOM
   NSW    =      0    number of steps for IOM
   NBLOCK =      1;   KBLOCK =      1    inner block; outer block 
   IBRION =     -1    ionic relax: 0-MD 1-quasi-New 2-CG
   NFREE  =      0    steps in history (QN), initial steepest desc. (CG)
   ISIF   =      3    stress and relaxation
   IWAVPR =     10    prediction:  0-non 1-charg 2-wave 3-comb
   ISYM   =      2    0-nonsym 1-usesym 2-fastsym
   LCORR  =      T    Harris-Foulkes like correction to forces

   POTIM  = 0.5000    time-step for ionic-motion
   TEIN   =    0.0    initial temperature
   TEBEG  =    0.0;   TEEND  =   0.0 temperature during run
   SMASS  =  -3.00    Nose mass-parameter (am)
   estimated Nose-frequenzy (Omega)   =  0.10E-29 period in steps = 0.13E+47 mass=  -0.784E-27a.u.
   SCALEE = 1.0000    scale energy and forces
   NPACO  =    256;   APACO  = 10.0  distance and # of slots for P.C.
   PSTRESS=    0.0 pullay stress

  Mass of Ions in am
   POMASS =  47.88 26.98 69.72
  Ionic Valenz
   ZVAL   =  12.00  3.00 13.00
  Atomic Wigner-Seitz radii
   RWIGS  =  -1.00 -1.00 -1.00
  virtual crystal weights 
   VCA    =   1.00  1.00  1.00
   NELECT =     133.0000    total number of electrons
   NUPDOWN=      -1.0000    fix difference up-down

 DOS related values:
   EMIN   =  10.00;   EMAX   =-10.00  energy-range for DOS
   EFERMI =   0.00;   METHOD = LEGACY      
   ISMEAR =     1;   SIGMA  =   0.10  broadening in eV -4-tet -1-fermi 0-gaus
   EFERMI_NEDOS =   21; number of points for ismear=-14 and -15

 Electronic relaxation 2 (details)
   IALGO  =     38    algorithm
   LDIAG  =      T    sub-space diagonalisation (order eigenvalues)
   LSUBROT=      F    optimize rotation matrix (better conditioning)
   TURBO    =      0    0=normal 1=particle mesh
   IRESTART =      0    0=no restart 2=restart with 2 vectors
   NREBOOT  =      0    no. of reboots
   NMIN     =      0    reboot dimension
   EREF     =   0.00    reference energy to select bands
   IMIX   =      4    mixing-type and parameters
     AMIX     =   0.40;   BMIX     =  1.00
     AMIX_MAG =   1.60;   BMIX_MAG =  1.00
     AMIN     =   0.10
     WC   =   100.;   INIMIX=   1;  MIXPRE=   1;  MAXMIX= -45

 Intra band minimization:
   WEIMIN = 0.0000     energy-eigenvalue tresh-hold
   EBREAK =  0.20E-07  absolut break condition
   DEPER  =   0.30     relativ break condition  

   TIME   =   0.40     timestep for ELM

  volume/ion in A,a.u.               =      16.76       113.09
  Fermi-wavevector in a.u.,A,eV,Ry     =   1.270006  2.399964 21.945048  1.612916
  Thomas-Fermi vector in A             =   2.403017
 
 Write flags
   LWAVE        =      T    write WAVECAR
   LDOWNSAMPLE  =      F    k-point downsampling of WAVECAR
   LCHARG       =      T    write CHGCAR
   LVTOT        =      F    write LOCPOT, total local potential
   LVHAR        =      F    write LOCPOT, Hartree potential only
   WRT_POTENTIAL= false  ! write potential to hdf5 file
   LELF         =      F    write electronic localiz. function (ELF)
   LORBIT       =     11    0 simple, 1 ext, 2 COOP (PROOUT), +10 PAW based schemes


 Python interface
   PLUGINS active      =      F    recompile with -DPLUGINS to activate
 
 Dipole corrections
   LMONO      =      F    monopole corrections only (constant potential shift)
   LDIPOL     =      F    correct potential (dipole corrections)
   IDIPOL     =      0    1-x, 2-y, 3-z, 4-all directions 
   EPSILON    =  1.0000000 bulk dielectric constant
   LVACPOTAV  =      F  vacuum potentials using an averaging scheme for the charge density
   VACPOTFLAT =  0.1000000 required flatness to determine vacuum potential
 
Coulomb truncation method
  LTRUNCATE          =      F  Coulomb kernel truncation to be used
  IDIMENSIONALITY    =      3  Dimensionality of cutoff (0 molecules / 2 surfaces)
  ISURFACE           =     -1  Direction of surface normal
  LCOARSEN           =      F  Coarsen the charge grid before padding, preferred

 
 Exchange correlation treatment:
   GGA     = PE    functional components
   XC_C    = 1    coefficients multiplying the functional components
   LIBXC   =     F    Libxc                    
   VOSKOWN =     0    Vosko Wilk Nusair interpolation
   LHFCALC =     F    Hartree Fock is set to
   LHFONE  =     F    Hartree Fock one center treatment
   AEXX    =    0.0000 exact exchange contribution

 Parameters of functionals:
   PE:
     No parameter
 
 Van der Waals corrections
   IVDW    =     0    specifies the selected vdW correction

 Linear response parameters
   LEPSILON=     F    determine dielectric tensor
   LRPA    =     F    only Hartree local field effects (RPA)
   LNABLA  =     F    use nabla operator in PAW spheres
   LVEL    =     F    velocity operator in full k-point grid
   CSHIFT  =0.1000    complex shift for real part using Kramers Kronig
   OMEGAMAX=  -1.0    maximum frequency
   DEG_THRESHOLD= 0.2000000E-02 threshold for treating states as degnerate
   RTIME   =   -0.100 relaxation time in fs
  (WPLASMAI=    0.000 imaginary part of plasma frequency in eV, 0.658/RTIME)
   DFIELD  = 0.0000000 0.0000000 0.0000000 field for delta impulse in time
 
  Optional k-point grid parameters
   LKPOINTS_OPT  =     F    use optional k-point grid
   KPOINTS_OPT_MODE=     1    mode for optional k-point grid
 
 Orbital magnetization related:
   ORBITALMAG=     F  switch on orbital magnetization
   LCHIMAG   =     F  perturbation theory with respect to B field
   DQ        =  0.001000  dq finite difference perturbation B field
   LLRAUG    =     F  two centre corrections for induced B field
   LBONE     =     F  B-component reconstruction in AE one-centre
   LVGVCALC  =     T  calculate vGv susceptibility
   LVGVAPPL  =     F  apply vGv susceptibility instead of pGv for G=0

 Random number generation:
   RANDOM_GENERATOR = DEFAULT
   PCG_SEED         = not used


--------------------------------------------------------------------------------------------------------


 Static calculation
 charge density and potential remain constant during run
 non-spin polarized calculation
 Variant of blocked Davidson
 Davidson routine will perform the subspace rotation
 perform sub-space diagonalisation
    after iterative eigenvector-optimisation
 no mixing
 using additional bands           61
 reciprocal scheme for non local part
 use partial core corrections
 calculate Harris-corrections to forces 
   (improved forces if not selfconsistent)
 use gradient corrections 
 WARNING: stress and forces are not correct
  (second derivative of E(xc) not defined)
 use of overlap-Matrix (Vanderbilt PP)
 Methfessel and Paxton  Order N= 1 SIGMA  =   0.10


--------------------------------------------------------------------------------------------------------


  energy-cutoff  :      520.00
  volume of cell :      284.88
      direct lattice vectors                 reciprocal lattice vectors
     5.858455502  0.000000000  0.000000000     0.170693453  0.000000000  0.000000000
     0.000000000  5.858455502  0.000000000     0.000000000  0.170693453  0.000000000
     0.000000000  0.000000000  8.300273972     0.000000000  0.000000000  0.120477951

  length of vectors
     5.858455502  5.858455502  8.300273972     0.170693453  0.170693453  0.120477951


 
 old parameters found on file WAVECAR:
  energy-cutoff  :      520.00
  volume of cell :      284.88
      direct lattice vectors                 reciprocal lattice vectors
     5.858455502  0.000000000  0.000000000     0.170693453  0.000000000  0.000000000
     0.000000000  5.858455502  0.000000000     0.000000000  0.170693453  0.000000000
     0.000000000  0.000000000  8.300273972     0.000000000  0.000000000  0.120477951

  length of vectors

 
 k-points in units of 2pi/SCALE and weight: K-Path Generated by VASPKIT.            
   0.00000000  0.00000000  0.00000000       0.006
   0.00000000  0.00449193  0.00000000       0.006
   0.00000000  0.00898387  0.00000000       0.006
   0.00000000  0.01347580  0.00000000       0.006
   0.00000000  0.01796773  0.00000000       0.006
   0.00000000  0.02245966  0.00000000       0.006
   0.00000000  0.02695160  0.00000000       0.006
   0.00000000  0.03144353  0.00000000       0.006
   0.00000000  0.03593546  0.00000000       0.006
   0.00000000  0.04042740  0.00000000       0.006
   0.00000000  0.04491933  0.00000000       0.006
   0.00000000  0.04941126  0.00000000       0.006
   0.00000000  0.05390320  0.00000000       0.006
   0.00000000  0.05839513  0.00000000       0.006
   0.00000000  0.06288706  0.00000000       0.006
   0.00000000  0.06737899  0.00000000       0.006
   0.00000000  0.07187093  0.00000000       0.006
   0.00000000  0.07636286  0.00000000       0.006
   0.00000000  0.08085479  0.00000000       0.006
   0.00000000  0.08534673  0.00000000       0.006
   0.00000000  0.08534673  0.00000000       0.006
   0.00449193  0.08534673  0.00000000       0.006
   0.00898387  0.08534673  0.00000000       0.006
   0.01347580  0.08534673  0.00000000       0.006
   0.01796773  0.08534673  0.00000000       0.006
   0.02245966  0.08534673  0.00000000       0.006
   0.02695160  0.08534673  0.00000000       0.006
   0.03144353  0.08534673  0.00000000       0.006
   0.03593546  0.08534673  0.00000000       0.006
   0.04042740  0.08534673  0.00000000       0.006
   0.04491933  0.08534673  0.00000000       0.006
   0.04941126  0.08534673  0.00000000       0.006
   0.05390320  0.08534673  0.00000000       0.006
   0.05839513  0.08534673  0.00000000       0.006
   0.06288706  0.08534673  0.00000000       0.006
   0.06737899  0.08534673  0.00000000       0.006
   0.07187093  0.08534673  0.00000000       0.006
   0.07636286  0.08534673  0.00000000       0.006
   0.08085479  0.08534673  0.00000000       0.006
   0.08534673  0.08534673  0.00000000       0.006
   0.08534673  0.08534673  0.00000000       0.006
   0.08085479  0.08085479  0.00000000       0.006
   0.07636286  0.07636286  0.00000000       0.006
   0.07187093  0.07187093  0.00000000       0.006
   0.06737899  0.06737899  0.00000000       0.006
   0.06288706  0.06288706  0.00000000       0.006
   0.05839513  0.05839513  0.00000000       0.006
   0.05390320  0.05390320  0.00000000       0.006
   0.04941126  0.04941126  0.00000000       0.006
   0.04491933  0.04491933  0.00000000       0.006
   0.04042740  0.04042740  0.00000000       0.006
   0.03593546  0.03593546  0.00000000       0.006
   0.03144353  0.03144353  0.00000000       0.006
   0.02695160  0.02695160  0.00000000       0.006
   0.02245966  0.02245966  0.00000000       0.006
   0.01796773  0.01796773  0.00000000       0.006
   0.01347580  0.01347580  0.00000000       0.006
   0.00898387  0.00898387  0.00000000       0.006
   0.00449193  0.00449193  0.00000000       0.006
   0.00000000  0.00000000  0.00000000       0.006
   0.00000000  0.00000000  0.00000000       0.006
   0.00000000  0.00000000  0.00317047       0.006
   0.00000000  0.00000000  0.00634094       0.006
   0.00000000  0.00000000  0.00951142       0.006
   0.00000000  0.00000000  0.01268189       0.006
   0.00000000  0.00000000  0.01585236       0.006
   0.00000000  0.00000000  0.01902283       0.006
   0.00000000  0.00000000  0.02219331       0.006
   0.00000000  0.00000000  0.02536378       0.006
   0.00000000  0.00000000  0.02853425       0.006
   0.00000000  0.00000000  0.03170472       0.006
   0.00000000  0.00000000  0.03487520       0.006
   0.00000000  0.00000000  0.03804567       0.006
   0.00000000  0.00000000  0.04121614       0.006
   0.00000000  0.00000000  0.04438661       0.006
   0.00000000  0.00000000  0.04755709       0.006
   0.00000000  0.00000000  0.05072756       0.006
   0.00000000  0.00000000  0.05389803       0.006
   0.00000000  0.00000000  0.05706850       0.006
   0.00000000  0.00000000  0.06023898       0.006
   0.00000000  0.00000000  0.06023898       0.006
   0.00000000  0.00449193  0.06023898       0.006
   0.00000000  0.00898387  0.06023898       0.006
   0.00000000  0.01347580  0.06023898       0.006
   0.00000000  0.01796773  0.06023898       0.006
   0.00000000  0.02245966  0.06023898       0.006
   0.00000000  0.02695160  0.06023898       0.006
   0.00000000  0.03144353  0.06023898       0.006
   0.00000000  0.03593546  0.06023898       0.006
   0.00000000  0.04042740  0.06023898       0.006
   0.00000000  0.04491933  0.06023898       0.006
   0.00000000  0.04941126  0.06023898       0.006
   0.00000000  0.05390320  0.06023898       0.006
   0.00000000  0.05839513  0.06023898       0.006
   0.00000000  0.06288706  0.06023898       0.006
   0.00000000  0.06737899  0.06023898       0.006
   0.00000000  0.07187093  0.06023898       0.006
   0.00000000  0.07636286  0.06023898       0.006
   0.00000000  0.08085479  0.06023898       0.006
   0.00000000  0.08534673  0.06023898       0.006
   0.00000000  0.08534673  0.06023898       0.006
   0.00449193  0.08534673  0.06023898       0.006
   0.00898387  0.08534673  0.06023898       0.006
   0.01347580  0.08534673  0.06023898       0.006
   0.01796773  0.08534673  0.06023898       0.006
   0.02245966  0.08534673  0.06023898       0.006
   0.02695160  0.08534673  0.06023898       0.006
   0.03144353  0.08534673  0.06023898       0.006
   0.03593546  0.08534673  0.06023898       0.006
   0.04042740  0.08534673  0.06023898       0.006
   0.04491933  0.08534673  0.06023898       0.006
   0.04941126  0.08534673  0.06023898       0.006
   0.05390320  0.08534673  0.06023898       0.006
   0.05839513  0.08534673  0.06023898       0.006
   0.06288706  0.08534673  0.06023898       0.006
   0.06737899  0.08534673  0.06023898       0.006
   0.07187093  0.08534673  0.06023898       0.006
   0.07636286  0.08534673  0.06023898       0.006
   0.08085479  0.08534673  0.06023898       0.006
   0.08534673  0.08534673  0.06023898       0.006
   0.08534673  0.08534673  0.06023898       0.006
   0.08085479  0.08085479  0.06023898       0.006
   0.07636286  0.07636286  0.06023898       0.006
   0.07187093  0.07187093  0.06023898       0.006
   0.06737899  0.06737899  0.06023898       0.006
   0.06288706  0.06288706  0.06023898       0.006
   0.05839513  0.05839513  0.06023898       0.006
   0.05390320  0.05390320  0.06023898       0.006
   0.04941126  0.04941126  0.06023898       0.006
   0.04491933  0.04491933  0.06023898       0.006
   0.04042740  0.04042740  0.06023898       0.006
   0.03593546  0.03593546  0.06023898       0.006
   0.03144353  0.03144353  0.06023898       0.006
   0.02695160  0.02695160  0.06023898       0.006
   0.02245966  0.02245966  0.06023898       0.006
   0.01796773  0.01796773  0.06023898       0.006
   0.01347580  0.01347580  0.06023898       0.006
   0.00898387  0.00898387  0.06023898       0.006
   0.00449193  0.00449193  0.06023898       0.006
   0.00000000  0.00000000  0.06023898       0.006
   0.00000000  0.08534673  0.00000000       0.006
   0.00000000  0.08534673  0.00317047       0.006
   0.00000000  0.08534673  0.00634094       0.006
   0.00000000  0.08534673  0.00951142       0.006
   0.00000000  0.08534673  0.01268189       0.006
   0.00000000  0.08534673  0.01585236       0.006
   0.00000000  0.08534673  0.01902283       0.006
   0.00000000  0.08534673  0.02219331       0.006
   0.00000000  0.08534673  0.02536378       0.006
   0.00000000  0.08534673  0.02853425       0.006
   0.00000000  0.08534673  0.03170472       0.006
   0.00000000  0.08534673  0.03487520       0.006
   0.00000000  0.08534673  0.03804567       0.006
   0.00000000  0.08534673  0.04121614       0.006
   0.00000000  0.08534673  0.04438661       0.006
   0.00000000  0.08534673  0.04755709       0.006
   0.00000000  0.08534673  0.05072756       0.006
   0.00000000  0.08534673  0.05389803       0.006
   0.00000000  0.08534673  0.05706850       0.006
   0.00000000  0.08534673  0.06023898       0.006
   0.08534673  0.08534673  0.00000000       0.006
   0.08534673  0.08534673  0.00317047       0.006
   0.08534673  0.08534673  0.00634094       0.006
   0.08534673  0.08534673  0.00951142       0.006
   0.08534673  0.08534673  0.01268189       0.006
   0.08534673  0.08534673  0.01585236       0.006
   0.08534673  0.08534673  0.01902283       0.006
   0.08534673  0.08534673  0.02219331       0.006
   0.08534673  0.08534673  0.02536378       0.006
   0.08534673  0.08534673  0.02853425       0.006
   0.08534673  0.08534673  0.03170472       0.006
   0.08534673  0.08534673  0.03487520       0.006
   0.08534673  0.08534673  0.03804567       0.006
   0.08534673  0.08534673  0.04121614       0.006
   0.08534673  0.08534673  0.04438661       0.006
   0.08534673  0.08534673  0.04755709       0.006
   0.08534673  0.08534673  0.05072756       0.006
   0.08534673  0.08534673  0.05389803       0.006
   0.08534673  0.08534673  0.05706850       0.006
   0.08534673  0.08534673  0.06023898       0.006
 
 k-points in reciprocal lattice and weights: K-Path Generated by VASPKIT.            
   0.00000000  0.00000000  0.00000000       0.006
   0.00000000  0.02631579  0.00000000       0.006
   0.00000000  0.05263158  0.00000000       0.006
   0.00000000  0.07894737  0.00000000       0.006
   0.00000000  0.10526316  0.00000000       0.006
   0.00000000  0.13157895  0.00000000       0.006
   0.00000000  0.15789474  0.00000000       0.006
   0.00000000  0.18421053  0.00000000       0.006
   0.00000000  0.21052632  0.00000000       0.006
   0.00000000  0.23684211  0.00000000       0.006
   0.00000000  0.26315789  0.00000000       0.006
   0.00000000  0.28947368  0.00000000       0.006
   0.00000000  0.31578947  0.00000000       0.006
   0.00000000  0.34210526  0.00000000       0.006
   0.00000000  0.36842105  0.00000000       0.006
   0.00000000  0.39473684  0.00000000       0.006
   0.00000000  0.42105263  0.00000000       0.006
   0.00000000  0.44736842  0.00000000       0.006
   0.00000000  0.47368421  0.00000000       0.006
   0.00000000  0.50000000  0.00000000       0.006
   0.00000000  0.50000000  0.00000000       0.006
   0.02631579  0.50000000  0.00000000       0.006
   0.05263158  0.50000000  0.00000000       0.006
   0.07894737  0.50000000  0.00000000       0.006
   0.10526316  0.50000000  0.00000000       0.006
   0.13157895  0.50000000  0.00000000       0.006
   0.15789474  0.50000000  0.00000000       0.006
   0.18421053  0.50000000  0.00000000       0.006
   0.21052632  0.50000000  0.00000000       0.006
   0.23684211  0.50000000  0.00000000       0.006
   0.26315789  0.50000000  0.00000000       0.006
   0.28947368  0.50000000  0.00000000       0.006
   0.31578947  0.50000000  0.00000000       0.006
   0.34210526  0.50000000  0.00000000       0.006
   0.36842105  0.50000000  0.00000000       0.006
   0.39473684  0.50000000  0.00000000       0.006
   0.42105263  0.50000000  0.00000000       0.006
   0.44736842  0.50000000  0.00000000       0.006
   0.47368421  0.50000000  0.00000000       0.006
   0.50000000  0.50000000  0.00000000       0.006
   0.50000000  0.50000000  0.00000000       0.006
   0.47368421  0.47368421  0.00000000       0.006
   0.44736842  0.44736842  0.00000000       0.006
   0.42105263  0.42105263  0.00000000       0.006
   0.39473684  0.39473684  0.00000000       0.006
   0.36842105  0.36842105  0.00000000       0.006
   0.34210526  0.34210526  0.00000000       0.006
   0.31578947  0.31578947  0.00000000       0.006
   0.28947368  0.28947368  0.00000000       0.006
   0.26315789  0.26315789  0.00000000       0.006
   0.23684211  0.23684211  0.00000000       0.006
   0.21052632  0.21052632  0.00000000       0.006
   0.18421053  0.18421053  0.00000000       0.006
   0.15789474  0.15789474  0.00000000       0.006
   0.13157895  0.13157895  0.00000000       0.006
   0.10526316  0.10526316  0.00000000       0.006
   0.07894737  0.07894737  0.00000000       0.006
   0.05263158  0.05263158  0.00000000       0.006
   0.02631579  0.02631579  0.00000000       0.006
   0.00000000  0.00000000  0.00000000       0.006
   0.00000000  0.00000000  0.00000000       0.006
   0.00000000  0.00000000  0.02631579       0.006
   0.00000000  0.00000000  0.05263158       0.006
   0.00000000  0.00000000  0.07894737       0.006
   0.00000000  0.00000000  0.10526316       0.006
   0.00000000  0.00000000  0.13157895       0.006
   0.00000000  0.00000000  0.15789474       0.006
   0.00000000  0.00000000  0.18421053       0.006
   0.00000000  0.00000000  0.21052632       0.006
   0.00000000  0.00000000  0.23684211       0.006
   0.00000000  0.00000000  0.26315789       0.006
   0.00000000  0.00000000  0.28947368       0.006
   0.00000000  0.00000000  0.31578947       0.006
   0.00000000  0.00000000  0.34210526       0.006
   0.00000000  0.00000000  0.36842105       0.006
   0.00000000  0.00000000  0.39473684       0.006
   0.00000000  0.00000000  0.42105263       0.006
   0.00000000  0.00000000  0.44736842       0.006
   0.00000000  0.00000000  0.47368421       0.006
   0.00000000  0.00000000  0.50000000       0.006
   0.00000000  0.00000000  0.50000000       0.006
   0.00000000  0.02631579  0.50000000       0.006
   0.00000000  0.05263158  0.50000000       0.006
   0.00000000  0.07894737  0.50000000       0.006
   0.00000000  0.10526316  0.50000000       0.006
   0.00000000  0.13157895  0.50000000       0.006
   0.00000000  0.15789474  0.50000000       0.006
   0.00000000  0.18421053  0.50000000       0.006
   0.00000000  0.21052632  0.50000000       0.006
   0.00000000  0.23684211  0.50000000       0.006
   0.00000000  0.26315789  0.50000000       0.006
   0.00000000  0.28947368  0.50000000       0.006
   0.00000000  0.31578947  0.50000000       0.006
   0.00000000  0.34210526  0.50000000       0.006
   0.00000000  0.36842105  0.50000000       0.006
   0.00000000  0.39473684  0.50000000       0.006
   0.00000000  0.42105263  0.50000000       0.006
   0.00000000  0.44736842  0.50000000       0.006
   0.00000000  0.47368421  0.50000000       0.006
   0.00000000  0.50000000  0.50000000       0.006
   0.00000000  0.50000000  0.50000000       0.006
   0.02631579  0.50000000  0.50000000       0.006
   0.05263158  0.50000000  0.50000000       0.006
   0.07894737  0.50000000  0.50000000       0.006
   0.10526316  0.50000000  0.50000000       0.006
   0.13157895  0.50000000  0.50000000       0.006
   0.15789474  0.50000000  0.50000000       0.006
   0.18421053  0.50000000  0.50000000       0.006
   0.21052632  0.50000000  0.50000000       0.006
   0.23684211  0.50000000  0.50000000       0.006
   0.26315789  0.50000000  0.50000000       0.006
   0.28947368  0.50000000  0.50000000       0.006
   0.31578947  0.50000000  0.50000000       0.006
   0.34210526  0.50000000  0.50000000       0.006
   0.36842105  0.50000000  0.50000000       0.006
   0.39473684  0.50000000  0.50000000       0.006
   0.42105263  0.50000000  0.50000000       0.006
   0.44736842  0.50000000  0.50000000       0.006
   0.47368421  0.50000000  0.50000000       0.006
   0.50000000  0.50000000  0.50000000       0.006
   0.50000000  0.50000000  0.50000000       0.006
   0.47368421  0.47368421  0.50000000       0.006
   0.44736842  0.44736842  0.50000000       0.006
   0.42105263  0.42105263  0.50000000       0.006
   0.39473684  0.39473684  0.50000000       0.006
   0.36842105  0.36842105  0.50000000       0.006
   0.34210526  0.34210526  0.50000000       0.006
   0.31578947  0.31578947  0.50000000       0.006
   0.28947368  0.28947368  0.50000000       0.006
   0.26315789  0.26315789  0.50000000       0.006
   0.23684211  0.23684211  0.50000000       0.006
   0.21052632  0.21052632  0.50000000       0.006
   0.18421053  0.18421053  0.50000000       0.006
   0.15789474  0.15789474  0.50000000       0.006
   0.13157895  0.13157895  0.50000000       0.006
   0.10526316  0.10526316  0.50000000       0.006
   0.07894737  0.07894737  0.50000000       0.006
   0.05263158  0.05263158  0.50000000       0.006
   0.02631579  0.02631579  0.50000000       0.006
   0.00000000  0.00000000  0.50000000       0.006
   0.00000000  0.50000000  0.00000000       0.006
   0.00000000  0.50000000  0.02631579       0.006
   0.00000000  0.50000000  0.05263158       0.006
   0.00000000  0.50000000  0.07894737       0.006
   0.00000000  0.50000000  0.10526316       0.006
   0.00000000  0.50000000  0.13157895       0.006
   0.00000000  0.50000000  0.15789474       0.006
   0.00000000  0.50000000  0.18421053       0.006
   0.00000000  0.50000000  0.21052632       0.006
   0.00000000  0.50000000  0.23684211       0.006
   0.00000000  0.50000000  0.26315789       0.006
   0.00000000  0.50000000  0.28947368       0.006
   0.00000000  0.50000000  0.31578947       0.006
   0.00000000  0.50000000  0.34210526       0.006
   0.00000000  0.50000000  0.36842105       0.006
   0.00000000  0.50000000  0.39473684       0.006
   0.00000000  0.50000000  0.42105263       0.006
   0.00000000  0.50000000  0.44736842       0.006
   0.00000000  0.50000000  0.47368421       0.006
   0.00000000  0.50000000  0.50000000       0.006
   0.50000000  0.50000000  0.00000000       0.006
   0.50000000  0.50000000  0.02631579       0.006
   0.50000000  0.50000000  0.05263158       0.006
   0.50000000  0.50000000  0.07894737       0.006
   0.50000000  0.50000000  0.10526316       0.006
   0.50000000  0.50000000  0.13157895       0.006
   0.50000000  0.50000000  0.15789474       0.006
   0.50000000  0.50000000  0.18421053       0.006
   0.50000000  0.50000000  0.21052632       0.006
   0.50000000  0.50000000  0.23684211       0.006
   0.50000000  0.50000000  0.26315789       0.006
   0.50000000  0.50000000  0.28947368       0.006
   0.50000000  0.50000000  0.31578947       0.006
   0.50000000  0.50000000  0.34210526       0.006
   0.50000000  0.50000000  0.36842105       0.006
   0.50000000  0.50000000  0.39473684       0.006
   0.50000000  0.50000000  0.42105263       0.006
   0.50000000  0.50000000  0.44736842       0.006
   0.50000000  0.50000000  0.47368421       0.006
   0.50000000  0.50000000  0.50000000       0.006
 
 position of ions in fractional coordinates (direct lattice) 
   0.00000000  0.00000000  0.01867368
   0.00000000  0.00000000  0.48132632
   0.00000000  0.50000000  0.99550713
   0.00000000  0.50000000  0.50449287
   0.50000000  0.00000000  0.99550713
   0.50000000  0.00000000  0.50449287
   0.50000000  0.50000000  0.04638282
   0.50000000  0.50000000  0.45361718
   0.24268531  0.24268531  0.25000000
   0.21391683  0.21391683  0.75000000
   0.24268531  0.75731469  0.25000000
   0.21391683  0.78608317  0.75000000
   0.75731469  0.24268531  0.25000000
   0.78608317  0.21391683  0.75000000
   0.75731469  0.75731469  0.25000000
   0.78608317  0.78608317  0.75000000
   0.50000000  0.50000000  0.75000000
 
 position of ions in cartesian coordinates  (Angst):
   0.00000000  0.00000000  0.15499662
   0.00000000  0.00000000  3.99514036
   0.00000000  2.92922775  8.26298196
   0.00000000  2.92922775  4.18742900
   2.92922775  0.00000000  8.26298196
   2.92922775  0.00000000  4.18742900
   2.92922775  2.92922775  0.38499009
   2.92922775  2.92922775  3.76514690
   1.42176109  1.42176109  2.07506849
   1.25322222  1.25322222  6.22520548
   1.42176109  4.43669441  2.07506849
   1.25322222  4.60523328  6.22520548
   4.43669441  1.42176109  2.07506849
   4.60523328  1.25322222  6.22520548
   4.43669441  4.43669441  2.07506849
   4.60523328  4.60523328  6.22520548
   2.92922775  2.92922775  6.22520548
 


--------------------------------------------------------------------------------------------------------


 k-point     1 :   0.0000 0.0000 0.0000  plane waves:    7699
 k-point     2 :   0.0000 0.0263 0.0000  plane waves:    7699
 k-point     3 :   0.0000 0.0526 0.0000  plane waves:    7681
 k-point     4 :   0.0000 0.0789 0.0000  plane waves:    7661
 k-point     5 :   0.0000 0.1053 0.0000  plane waves:    7643
 k-point     6 :   0.0000 0.1316 0.0000  plane waves:    7636
 k-point     7 :   0.0000 0.1579 0.0000  plane waves:    7650
 k-point     8 :   0.0000 0.1842 0.0000  plane waves:    7670
 k-point     9 :   0.0000 0.2105 0.0000  plane waves:    7664
 k-point    10 :   0.0000 0.2368 0.0000  plane waves:    7676
 k-point    11 :   0.0000 0.2632 0.0000  plane waves:    7656
 k-point    12 :   0.0000 0.2895 0.0000  plane waves:    7668
 k-point    13 :   0.0000 0.3158 0.0000  plane waves:    7664
 k-point    14 :   0.0000 0.3421 0.0000  plane waves:    7652
 k-point    15 :   0.0000 0.3684 0.0000  plane waves:    7668
 k-point    16 :   0.0000 0.3947 0.0000  plane waves:    7666
 k-point    17 :   0.0000 0.4211 0.0000  plane waves:    7660
 k-point    18 :   0.0000 0.4474 0.0000  plane waves:    7674
 k-point    19 :   0.0000 0.4737 0.0000  plane waves:    7652
 k-point    20 :   0.0000 0.5000 0.0000  plane waves:    7642
 k-point    21 :   0.0000 0.5000 0.0000  plane waves:    7642
 k-point    22 :   0.0263 0.5000 0.0000  plane waves:    7654
 k-point    23 :   0.0526 0.5000 0.0000  plane waves:    7670
 k-point    24 :   0.0789 0.5000 0.0000  plane waves:    7670
 k-point    25 :   0.1053 0.5000 0.0000  plane waves:    7676
 k-point    26 :   0.1316 0.5000 0.0000  plane waves:    7686
 k-point    27 :   0.1579 0.5000 0.0000  plane waves:    7690
 k-point    28 :   0.1842 0.5000 0.0000  plane waves:    7682
 k-point    29 :   0.2105 0.5000 0.0000  plane waves:    7684
 k-point    30 :   0.2368 0.5000 0.0000  plane waves:    7682
 k-point    31 :   0.2632 0.5000 0.0000  plane waves:    7684
 k-point    32 :   0.2895 0.5000 0.0000  plane waves:    7688
 k-point    33 :   0.3158 0.5000 0.0000  plane waves:    7686
 k-point    34 :   0.3421 0.5000 0.0000  plane waves:    7704
 k-point    35 :   0.3684 0.5000 0.0000  plane waves:    7712
 k-point    36 :   0.3947 0.5000 0.0000  plane waves:    7704
 k-point    37 :   0.4211 0.5000 0.0000  plane waves:    7708
 k-point    38 :   0.4474 0.5000 0.0000  plane waves:    7720
 k-point    39 :   0.4737 0.5000 0.0000  plane waves:    7720
 k-point    40 :   0.5000 0.5000 0.0000  plane waves:    7736
 k-point    41 :   0.5000 0.5000 0.0000  plane waves:    7736
 k-point    42 :   0.4737 0.4737 0.0000  plane waves:    7716
 k-point    43 :   0.4474 0.4474 0.0000  plane waves:    7708
 k-point    44 :   0.4211 0.4211 0.0000  plane waves:    7690
 k-point    45 :   0.3947 0.3947 0.0000  plane waves:    7696
 k-point    46 :   0.3684 0.3684 0.0000  plane waves:    7684
 k-point    47 :   0.3421 0.3421 0.0000  plane waves:    7692
 k-point    48 :   0.3158 0.3158 0.0000  plane waves:    7680
 k-point    49 :   0.2895 0.2895 0.0000  plane waves:    7677
 k-point    50 :   0.2632 0.2632 0.0000  plane waves:    7687
 k-point    51 :   0.2368 0.2368 0.0000  plane waves:    7683
 k-point    52 :   0.2105 0.2105 0.0000  plane waves:    7675
 k-point    53 :   0.1842 0.1842 0.0000  plane waves:    7647
 k-point    54 :   0.1579 0.1579 0.0000  plane waves:    7673
 k-point    55 :   0.1316 0.1316 0.0000  plane waves:    7655
 k-point    56 :   0.1053 0.1053 0.0000  plane waves:    7653
 k-point    57 :   0.0789 0.0789 0.0000  plane waves:    7661
 k-point    58 :   0.0526 0.0526 0.0000  plane waves:    7667
 k-point    59 :   0.0263 0.0263 0.0000  plane waves:    7691
 k-point    60 :   0.0000 0.0000 0.0000  plane waves:    7699
 k-point    61 :   0.0000 0.0000 0.0000  plane waves:    7699
 k-point    62 :   0.0000 0.0000 0.0263  plane waves:    7699
 k-point    63 :   0.0000 0.0000 0.0526  plane waves:    7683
 k-point    64 :   0.0000 0.0000 0.0789  plane waves:    7675
 k-point    65 :   0.0000 0.0000 0.1053  plane waves:    7663
 k-point    66 :   0.0000 0.0000 0.1316  plane waves:    7655
 k-point    67 :   0.0000 0.0000 0.1579  plane waves:    7655
 k-point    68 :   0.0000 0.0000 0.1842  plane waves:    7659
 k-point    69 :   0.0000 0.0000 0.2105  plane waves:    7671
 k-point    70 :   0.0000 0.0000 0.2368  plane waves:    7659
 k-point    71 :   0.0000 0.0000 0.2632  plane waves:    7679
 k-point    72 :   0.0000 0.0000 0.2895  plane waves:    7691
 k-point    73 :   0.0000 0.0000 0.3158  plane waves:    7683
 k-point    74 :   0.0000 0.0000 0.3421  plane waves:    7687
 k-point    75 :   0.0000 0.0000 0.3684  plane waves:    7687
 k-point    76 :   0.0000 0.0000 0.3947  plane waves:    7663
 k-point    77 :   0.0000 0.0000 0.4211  plane waves:    7663
 k-point    78 :   0.0000 0.0000 0.4474  plane waves:    7690
 k-point    79 :   0.0000 0.0000 0.4737  plane waves:    7682
 k-point    80 :   0.0000 0.0000 0.5000  plane waves:    7662
 k-point    81 :   0.0000 0.0000 0.5000  plane waves:    7662
 k-point    82 :   0.0000 0.0263 0.5000  plane waves:    7692
 k-point    83 :   0.0000 0.0526 0.5000  plane waves:    7684
 k-point    84 :   0.0000 0.0789 0.5000  plane waves:    7680
 k-point    85 :   0.0000 0.1053 0.5000  plane waves:    7674
 k-point    86 :   0.0000 0.1316 0.5000  plane waves:    7678
 k-point    87 :   0.0000 0.1579 0.5000  plane waves:    7670
 k-point    88 :   0.0000 0.1842 0.5000  plane waves:    7670
 k-point    89 :   0.0000 0.2105 0.5000  plane waves:    7670
 k-point    90 :   0.0000 0.2368 0.5000  plane waves:    7654
 k-point    91 :   0.0000 0.2632 0.5000  plane waves:    7660
 k-point    92 :   0.0000 0.2895 0.5000  plane waves:    7654
 k-point    93 :   0.0000 0.3158 0.5000  plane waves:    7650
 k-point    94 :   0.0000 0.3421 0.5000  plane waves:    7646
 k-point    95 :   0.0000 0.3684 0.5000  plane waves:    7642
 k-point    96 :   0.0000 0.3947 0.5000  plane waves:    7642
 k-point    97 :   0.0000 0.4211 0.5000  plane waves:    7642
 k-point    98 :   0.0000 0.4474 0.5000  plane waves:    7646
 k-point    99 :   0.0000 0.4737 0.5000  plane waves:    7638
 k-point   100 :   0.0000 0.5000 0.5000  plane waves:    7656
 k-point   101 :   0.0000 0.5000 0.5000  plane waves:    7656
 k-point   102 :   0.0263 0.5000 0.5000  plane waves:    7648
 k-point   103 :   0.0526 0.5000 0.5000  plane waves:    7656
 k-point   104 :   0.0789 0.5000 0.5000  plane waves:    7640
 k-point   105 :   0.1053 0.5000 0.5000  plane waves:    7648
 k-point   106 :   0.1316 0.5000 0.5000  plane waves:    7656
 k-point   107 :   0.1579 0.5000 0.5000  plane waves:    7672
 k-point   108 :   0.1842 0.5000 0.5000  plane waves:    7680
 k-point   109 :   0.2105 0.5000 0.5000  plane waves:    7676
 k-point   110 :   0.2368 0.5000 0.5000  plane waves:    7676
 k-point   111 :   0.2632 0.5000 0.5000  plane waves:    7672
 k-point   112 :   0.2895 0.5000 0.5000  plane waves:    7684
 k-point   113 :   0.3158 0.5000 0.5000  plane waves:    7676
[...]
     99      12.3244      0.00000
    100      12.3965      0.00000
    101      12.4819      0.00000
    102      12.4819      0.00000
    103      12.5361      0.00000
    104      12.5653      0.00000
    105      12.5653      0.00000
    106      13.2800      0.00000
    107      13.2800      0.00000
    108      13.2997      0.00000
    109      13.6168      0.00000
    110      15.3057      0.00000
    111      15.3793      0.00000
    112      15.4172      0.00000
    113      15.8694      0.00000
    114      15.8694      0.00000
    115      16.1058      0.00000
    116      16.2195      0.00000
    117      16.2195      0.00000
    118      16.7488      0.00000
    119      17.1000      0.00000
    120      17.1455      0.00000
    121      17.1455      0.00000
    122      17.2012      0.00000
    123      17.2012      0.00000
    124      17.2046      0.00000
    125      17.3109      0.00000
    126      17.3418      0.00000
    127      17.4596      0.00000
    128      17.4597      0.00000

 k-point   180 :       0.5000    0.5000    0.5000
  band No.  band energies     occupation 
      1     -48.9372      2.00000
      2     -48.9372      2.00000
      3     -48.9371      2.00000
      4     -48.9371      2.00000
      5     -48.6485      2.00000
      6     -48.6452      2.00000
      7     -48.6036      2.00000
      8     -48.6031      2.00000
      9     -25.3312      2.00000
     10     -25.3312      2.00000
     11     -25.3293      2.00000
     12     -25.3293      2.00000
     13     -25.1680      2.00000
     14     -25.1671      2.00000
     15     -25.1520      2.00000
     16     -25.1518      2.00000
     17     -25.1101      2.00000
     18     -25.1096      2.00000
     19     -25.0989      2.00000
     20     -25.0987      2.00000
     21     -25.0319      2.00000
     22     -24.9920      2.00000
     23     -24.9868      2.00000
     24     -24.9766      2.00000
     25     -24.8960      2.00000
     26     -24.8960      2.00000
     27     -24.8909      2.00000
     28     -24.8909      2.00000
     29     -24.8322      2.00000
     30     -24.8322      2.00000
     31     -24.8312      2.00000
     32     -24.8312      2.00000
     33      -7.4253      2.00000
     34      -7.3212      2.00000
     35      -7.2932      2.00000
     36      -7.2444      2.00000
     37      -7.2444      2.00000
     38      -0.7300      2.00000
     39       0.5261      2.00000
     40       1.1538      2.00000
     41       1.1538      2.00000
     42       1.5708      2.00000
     43       1.8099      2.00000
     44       1.8099      2.00000
     45       1.9364      2.00000
     46       5.3366      2.00000
     47       5.5791      2.00000
     48       5.6505      2.00000
     49       5.6574      2.00000
     50       5.6574      2.00000
     51       5.6893      2.00000
     52       6.1457      2.00000
     53       6.1457      2.00000
     54       6.4373      2.00000
     55       6.4373      2.00000
     56       6.9641      2.00000
     57       7.0981      2.00000
     58       7.1042      2.00000
     59       7.2406      2.00000
     60       7.2517      2.00000
     61       7.3461      2.00000
     62       7.3461      2.00000
     63       7.6467      2.00002
     64       7.6467      2.00002
     65       7.6543      2.00003
     66       7.8625      2.07081
     67       7.9040      1.97546
     68       8.0878     -0.05863
     69       8.0878     -0.05863
     70       8.2610     -0.00061
     71       8.2610     -0.00061
     72       8.3899     -0.00000
     73       8.4008     -0.00000
     74       8.7339     -0.00000
     75       9.0124     -0.00000
     76       9.0124     -0.00000
     77       9.2296     -0.00000
     78       9.3122     -0.00000
     79       9.3122     -0.00000
     80       9.3290     -0.00000
     81       9.3574     -0.00000
     82       9.3574     -0.00000
     83       9.4374     -0.00000
     84       9.4594     -0.00000
     85       9.5443     -0.00000
     86       9.9407     -0.00000
     87      10.0694      0.00000
     88      10.0694      0.00000
     89      10.4578      0.00000
     90      10.8354      0.00000
     91      10.9173      0.00000
     92      10.9173      0.00000
     93      11.0242      0.00000
     94      11.0242      0.00000
     95      11.0722      0.00000
     96      11.4252      0.00000
     97      11.5314      0.00000
     98      11.9964      0.00000
     99      12.3443      0.00000
    100      12.3969      0.00000
    101      12.5148      0.00000
    102      12.5193      0.00000
    103      12.5193      0.00000
    104      12.5253      0.00000
    105      12.5253      0.00000
    106      13.2801      0.00000
    107      13.2801      0.00000
    108      13.3009      0.00000
    109      13.6171      0.00000
    110      15.3232      0.00000
    111      15.3790      0.00000
    112      15.4341      0.00000
    113      15.9197      0.00000
    114      15.9197      0.00000
    115      16.1061      0.00000
    116      16.1730      0.00000
    117      16.1730      0.00000
    118      16.7670      0.00000
    119      17.0937      0.00000
    120      17.1707      0.00000
    121      17.1707      0.00000
    122      17.1863      0.00000
    123      17.2522      0.00000
    124      17.2522      0.00000
    125      17.3283      0.00000
    126      17.3290      0.00000
    127      17.3832      0.00000
    128      17.3832      0.00000


--------------------------------------------------------------------------------------------------------


 soft charge-density along one line, spin component           1
         0         1         2         3         4         5         6         7         8         9
 total charge-density along one line
 
 pseudopotential strength for first ion, spin component:           1
 -3.662 -19.713  -0.000  -0.009  -0.000   0.000   0.009   0.000
-19.713   7.717  -0.000  -0.004  -0.000  -0.000  -0.001  -0.000
 -0.000  -0.000 -22.589  -0.000  -0.000   7.195   0.000   0.000
 -0.009  -0.004  -0.000 -22.668  -0.000   0.000   7.248   0.000
 -0.000  -0.000  -0.000  -0.000 -22.589   0.000   0.000   7.195
  0.000  -0.000   7.195   0.000   0.000   6.557  -0.000  -0.000
  0.009  -0.001   0.000   7.248   0.000  -0.000   6.538  -0.000
  0.000  -0.000   0.000   0.000   7.195  -0.000  -0.000   6.557
 -0.000  -0.000  -0.000   0.000  -0.000   0.000  -0.000   0.000
 -0.000  -0.000  -0.009  -0.000   0.000   0.006   0.000  -0.000
 -0.032  -0.009   0.000  -0.006   0.000  -0.000   0.004  -0.000
 -0.000  -0.000   0.000  -0.000  -0.009  -0.000   0.000   0.006
  0.000   0.000   0.000   0.000  -0.000  -0.000  -0.000   0.000
 -0.000  -0.000  -0.000   0.000  -0.000   0.000  -0.000   0.000
 -0.000  -0.000  -0.011  -0.000   0.000   0.007   0.000  -0.000
 -0.040  -0.011   0.000  -0.008   0.000  -0.000   0.005  -0.000
 -0.000  -0.000   0.000  -0.000  -0.011  -0.000   0.000   0.007
  0.000   0.000   0.000   0.000  -0.000  -0.000  -0.000   0.000
 total augmentation occupancy for first ion, spin component:           1
  2.000   0.000   0.000   0.000   0.000   0.000   0.000   0.000   0.000   0.000   0.000   0.000   0.000   0.000   0.000   0.000
  0.000   1.000   0.000   0.000   0.000   0.000   0.000   0.000   0.000   0.000   0.000   0.000   0.000   0.000   0.000   0.000
  0.000   0.000   2.000   0.000   0.000   0.000   0.000   0.000   0.000   0.000   0.000   0.000   0.000   0.000   0.000   0.000
  0.000   0.000   0.000   2.000   0.000   0.000   0.000   0.000   0.000   0.000   0.000   0.000   0.000   0.000   0.000   0.000
  0.000   0.000   0.000   0.000   2.000   0.000   0.000   0.000   0.000   0.000   0.000   0.000   0.000   0.000   0.000   0.000
  0.000   0.000   0.000   0.000   0.000   0.000   0.000   0.000   0.000   0.000   0.000   0.000   0.000   0.000   0.000   0.000
  0.000   0.000   0.000   0.000   0.000   0.000   0.000   0.000   0.000   0.000   0.000   0.000   0.000   0.000   0.000   0.000
  0.000   0.000   0.000   0.000   0.000   0.000   0.000   0.000   0.000   0.000   0.000   0.000   0.000   0.000   0.000   0.000
  0.000   0.000   0.000   0.000   0.000   0.000   0.000   0.000   0.600   0.000   0.000   0.000   0.000   0.000   0.000   0.000
  0.000   0.000   0.000   0.000   0.000   0.000   0.000   0.000   0.000   0.600   0.000   0.000   0.000   0.000   0.000   0.000
  0.000   0.000   0.000   0.000   0.000   0.000   0.000   0.000   0.000   0.000   0.600   0.000   0.000   0.000   0.000   0.000
  0.000   0.000   0.000   0.000   0.000   0.000   0.000   0.000   0.000   0.000   0.000   0.600   0.000   0.000   0.000   0.000
  0.000   0.000   0.000   0.000   0.000   0.000   0.000   0.000   0.000   0.000   0.000   0.000   0.600   0.000   0.000   0.000
  0.000   0.000   0.000   0.000   0.000   0.000   0.000   0.000   0.000   0.000   0.000   0.000   0.000   0.000   0.000   0.000
  0.000   0.000   0.000   0.000   0.000   0.000   0.000   0.000   0.000   0.000   0.000   0.000   0.000   0.000   0.000   0.000
  0.000   0.000   0.000   0.000   0.000   0.000   0.000   0.000   0.000   0.000   0.000   0.000   0.000   0.000   0.000   0.000
  0.000   0.000   0.000   0.000   0.000   0.000   0.000   0.000   0.000   0.000   0.000   0.000   0.000   0.000   0.000   0.000
  0.000   0.000   0.000   0.000   0.000   0.000   0.000   0.000   0.000   0.000   0.000   0.000   0.000   0.000   0.000   0.000


------------------------ aborting loop because EDIFF is reached ----------------------------------------





 total charge

# of ion       s       p       d       tot
------------------------------------------
    1        2.193   6.116   1.949  10.259
    2        2.193   6.116   1.949  10.259
    3        2.187   6.084   1.878  10.149
    4        2.187   6.084   1.878  10.149
    5        2.187   6.084   1.878  10.149
    6        2.187   6.084   1.878  10.149
    7        2.201   6.111   1.956  10.269
    8        2.201   6.111   1.956  10.269
    9        0.409   0.410   0.000   0.819
   10        0.410   0.429   0.000   0.839
   11        0.409   0.410   0.000   0.819
   12        0.410   0.429   0.000   0.839
   13        0.409   0.410   0.000   0.819
   14        0.410   0.429   0.000   0.839
   15        0.409   0.410   0.000   0.819
   16        0.410   0.429   0.000   0.839
   17        1.004   1.122   9.976  12.102
--------------------------------------------------
tot         21.819  53.269  25.300 100.389
 
    CHARGE:  cpu time      0.2384: real time      0.2385
    FORLOC:  cpu time      0.0005: real time      0.0005
    FORNL :  cpu time      4.2443: real time      4.2444
    STRESS:  cpu time     13.8699: real time     13.8703
    FORCOR:  cpu time      0.0090: real time      0.0090
    FORHAR:  cpu time      0.0023: real time      0.0023
    OFIELD:  cpu time      0.0000: real time      0.0000

  FORCE on cell =-STRESS in cart. coord.  units (eV):
  Direction    XX          YY          ZZ          XY          YZ          ZX
  --------------------------------------------------------------------------------------
  Alpha Z   353.75657   353.75657   353.75657
  Ewald   -3102.58969 -3102.58969 -3618.38885     0.00000    -0.00000    -0.00000
  Hartree  1696.65442  1696.65442  1169.44302    -0.00000    -0.00000    -0.00000
  E(xc)    -654.59565  -654.59565  -655.08828     0.00000    -0.00000    -0.00000
  Local    -400.55427  -400.55427   647.87719    -0.00000     0.00000     0.00000
  n-local  -107.54943   -87.12975   -70.88426    -0.90728     0.00000     0.00000
  augment   615.39232   615.39232   604.64692     0.00000     0.00000     0.00000
  Kinetic  1599.65740  1584.33290  1560.06432     0.32436    -0.00000    -0.00000
  Fock        0.00000     0.00000     0.00000     0.00000     0.00000     0.00000
  -------------------------------------------------------------------------------------
  Total       2.71925     2.71925    -8.57337     0.00000     0.00000     0.00000
  in kB      15.29331    15.29331   -48.21734     0.00000     0.00000     0.00000
  external pressure =       -5.88 kB  Pullay stress =        0.00 kB


 VOLUME and BASIS-vectors are now :
 -----------------------------------------------------------------------------
  energy-cutoff  :      520.00
  volume of cell :      284.88
      direct lattice vectors                 reciprocal lattice vectors
     5.858455502  0.000000000  0.000000000     0.170693453  0.000000000  0.000000000
     0.000000000  5.858455502  0.000000000     0.000000000  0.170693453  0.000000000
     0.000000000  0.000000000  8.300273972     0.000000000  0.000000000  0.120477951

  length of vectors
     5.858455502  5.858455502  8.300273972     0.170693453  0.170693453  0.120477951


 FORCES acting on ions
    electron-ion (+dipol)            ewald-force                    non-local-force                 convergence-correction
 -----------------------------------------------------------------------------------------------
   -.306E-13 0.343E-12 -.467E+02   0.293E-13 -.697E-14 0.445E+02   -.662E-23 -.662E-23 0.781E+00   -.128E-11 -.158E-11 0.123E+01
   -.147E-13 -.319E-12 0.467E+02   0.115E-13 -.533E-14 -.445E+02   0.662E-23 0.993E-23 -.781E+00   0.864E-12 -.689E-12 -.123E+01
   -.363E-13 0.968E-12 -.466E+02   0.672E-14 0.902E-14 0.454E+02   0.000E+00 0.000E+00 -.105E+01   -.123E-11 0.656E-11 0.206E+01
   -.359E-13 0.287E-12 0.466E+02   0.628E-14 0.127E-13 -.454E+02   0.000E+00 0.000E+00 0.105E+01   0.273E-12 0.504E-11 -.206E+01
   0.670E-12 0.382E-12 -.466E+02   -.160E-13 -.805E-14 0.454E+02   -.331E-23 0.000E+00 -.105E+01   0.645E-11 -.545E-11 0.206E+01
   0.686E-12 -.465E-12 0.466E+02   -.230E-14 0.172E-15 -.454E+02   0.331E-23 0.000E+00 0.105E+01   0.135E-11 0.287E-11 -.206E+01
   0.684E-12 0.227E-11 -.220E+03   -.182E-13 0.668E-14 0.220E+03   -.496E-23 0.000E+00 -.625E+00   0.139E-11 0.241E-11 0.114E+01
   0.770E-12 0.300E-11 0.220E+03   0.525E-15 -.537E-14 -.220E+03   0.496E-23 0.000E+00 0.625E+00   0.145E-11 -.809E-12 -.114E+01
   0.929E+01 0.929E+01 -.287E-07   -.937E+01 -.937E+01 -.255E-14   -.411E-01 -.411E-01 0.496E-23   0.952E-01 0.952E-01 -.317E-12
   0.306E+02 0.306E+02 0.162E-06   -.327E+02 -.327E+02 -.790E-14   0.197E+01 0.197E+01 -.248E-23   0.590E-01 0.590E-01 0.179E-12
   0.929E+01 -.929E+01 0.777E-13   -.937E+01 0.937E+01 0.263E-13   -.411E-01 0.411E-01 0.248E-23   0.952E-01 -.952E-01 -.644E-12
   0.306E+02 -.306E+02 0.389E-13   -.327E+02 0.327E+02 0.103E-13   0.197E+01 -.197E+01 -.331E-23   0.590E-01 -.590E-01 0.474E-12
   -.929E+01 0.929E+01 -.148E-11   0.937E+01 -.937E+01 -.269E-14   0.411E-01 -.411E-01 0.000E+00   -.952E-01 0.952E-01 -.590E-12
   -.306E+02 0.306E+02 0.928E-14   0.327E+02 -.327E+02 0.309E-14   -.197E+01 0.197E+01 0.000E+00   -.590E-01 0.590E-01 0.346E-12
   -.929E+01 -.929E+01 0.287E-07   0.937E+01 0.937E+01 -.350E-14   0.411E-01 0.411E-01 0.000E+00   -.952E-01 -.952E-01 -.900E-12
   -.306E+02 -.306E+02 -.162E-06   0.327E+02 0.327E+02 0.212E-13   -.197E+01 -.197E+01 0.000E+00   -.590E-01 -.590E-01 0.633E-12
   0.114E-11 0.374E-11 0.267E-11   0.388E-13 0.970E-14 0.775E-14   0.000E+00 0.165E-23 -.331E-23   0.958E-12 0.109E-10 0.941E-12
 -----------------------------------------------------------------------------------------------
   0.430E-11 0.111E-10 0.158E-10   -.251E-13 0.259E-14 -.487E-14   0.222E-15 0.165E-23 0.222E-15   0.101E-10 0.187E-10 -.297E-11
 
 
 POSITION                                       TOTAL-FORCE (eV/Angst)
 -----------------------------------------------------------------------------------
      0.00000      0.00000      0.15500        -0.000000     -0.000000     -0.109728
      0.00000      0.00000      3.99514        -0.000000     -0.000000      0.109728
      0.00000      2.92923      8.26298        -0.000000     -0.000000     -0.121119
      0.00000      2.92923      4.18743        -0.000000     -0.000000      0.121119
      2.92923      0.00000      8.26298        -0.000000     -0.000000     -0.121119
      2.92923      0.00000      4.18743        -0.000000     -0.000000      0.121119
      2.92923      2.92923      0.38499        -0.000000     -0.000000     -0.053420
      2.92923      2.92923      3.76515        -0.000000     -0.000000      0.053420
      1.42176      1.42176      2.07507        -0.030246     -0.030246      0.000000
      1.25322      1.25322      6.22521        -0.033504     -0.033504      0.000000
      1.42176      4.43669      2.07507        -0.030246      0.030246      0.000000
      1.25322      4.60523      6.22521        -0.033504      0.033504     -0.000000
      4.43669      1.42176      2.07507         0.030246     -0.030246      0.000000
      4.60523      1.25322      6.22521         0.033504     -0.033504     -0.000000
      4.43669      4.43669      2.07507         0.030246      0.030246      0.000000
      4.60523      4.60523      6.22521         0.033504      0.033504      0.000000
      2.92923      2.92923      6.22521        -0.000000     -0.000000      0.000000
 -----------------------------------------------------------------------------------
    total drift:                                0.000000      0.000000      0.000000


--------------------------------------------------------------------------------------------------------



  FREE ENERGIE OF THE ION-ELECTRON SYSTEM (eV)
  ---------------------------------------------------
  free  energy   TOTEN  =       -98.28136044 eV

  energy  without entropy=      -98.28369110  energy(sigma->0) =      -98.28213733
 


--------------------------------------------------------------------------------------------------------


    POTLOK:  cpu time      0.0115: real time      0.0115


--------------------------------------------------------------------------------------------------------


 writing wavefunctions
     LOOP+:  cpu time     89.5234: real time     89.7497
    4ORBIT:  cpu time      0.0000: real time      0.0000



 total charge

# of ion       s       p       d       tot
------------------------------------------
    1        2.193   6.116   1.949  10.259
    2        2.193   6.116   1.949  10.259
    3        2.187   6.084   1.878  10.149
    4        2.187   6.084   1.878  10.149
    5        2.187   6.084   1.878  10.149
    6        2.187   6.084   1.878  10.149
    7        2.201   6.111   1.956  10.269
    8        2.201   6.111   1.956  10.269
    9        0.409   0.410   0.000   0.819
   10        0.410   0.429   0.000   0.839
   11        0.409   0.410   0.000   0.819
   12        0.410   0.429   0.000   0.839
   13        0.409   0.410   0.000   0.819
   14        0.410   0.429   0.000   0.839
   15        0.409   0.410   0.000   0.819
   16        0.410   0.429   0.000   0.839
   17        1.004   1.122   9.976  12.102
--------------------------------------------------
tot         21.819  53.269  25.300 100.389
 

 total amount of memory used by VASP MPI-rank0   684719. kBytes
=======================================================================

   base                                    :      30000. kBytes
   nonl-proj                               :     604279. kBytes
   fftplans                                :        689. kBytes
   grid                                    :       3407. kBytes
   one-center                              :        264. kBytes
   wavefun                                 :      46080. kBytes
 
  
  
 General timing and accounting informations for this job:
 ========================================================
  
                  Total CPU time used (sec):      104.260
                            User time (sec):       96.015
                          System time (sec):        8.245
                         Elapsed time (sec):      104.747
  
                   Maximum memory used (kb):      823296.
                   Average memory used (kb):          N/A
  
                          Minor page faults:       176652
                          Major page faults:           11
                 Voluntary context switches:        24974
