unknown system                          
           1
     5.858456    0.000000    0.000000
     0.000000    5.858456    0.000000
     0.000000    0.000000    8.300274
   Ti   Al   Ga
     8     8     1
Direct configuration=     1
   0.00000000  0.00000000  0.01867368
   0.00000000  0.00000000  0.48132632
   0.00000000  0.50000000  0.99550713
   0.00000000  0.50000000  0.50449287
   0.50000000  0.00000000  0.99550713
   0.50000000  0.00000000  0.50449287
   0.50000000  0.50000000  0.04638282
   0.50000000  0.50000000  0.45361718
   0.24268531  0.24268531  0.25000000
   0.21391683  0.21391683  0.75000000
   0.24268531  0.75731469  0.25000000
   0.21391683  0.78608317  0.75000000
   0.75731469  0.24268531  0.25000000
   0.78608317  0.21391683  0.75000000
   0.75731469  0.75731469  0.25000000
   0.78608317  0.78608317  0.75000000
   0.50000000  0.50000000  0.75000000
