  34  34   0   0
  0.4871006E+02  0.1015953E-08  0.5858456E-09  0.2803268E-08  0.5000000E-15
  1.000000000000000E-004
  CAR 
 unknown system                          
      6.59145954    -60.00392029  301      0.57181184      1.00000000
    -60.004  0.0000E+00  0.0000E+00
    -59.782  0.0000E+00  0.0000E+00
    -59.560  0.0000E+00  0.0000E+00
    -59.338  0.0000E+00  0.0000E+00
    -59.116  0.0000E+00  0.0000E+00
    -58.894  0.0000E+00  0.0000E+00
    -58.672  0.0000E+00  0.0000E+00
    -58.450  0.0000E+00  0.0000E+00
    -58.228  0.0000E+00  0.0000E+00
    -58.006  0.0000E+00  0.0000E+00
    -57.784 -0.1033E-26 -0.2292E-27
    -57.562 -0.1951E-13 -0.4331E-14
    -57.340 -0.1682E-04 -0.3735E-05
    -57.118 -0.4732E+00 -0.1050E+00
    -56.896  0.2306E+02  0.5015E+01
    -56.674  0.1414E+02  0.8153E+01
    -56.452  0.2073E+02  0.1275E+02
    -56.230  0.3346E+02  0.2018E+02
    -56.008  0.4389E+02  0.2992E+02
    -55.786  0.9438E+01  0.3202E+02
    -55.564 -0.8231E-01  0.3200E+02
    -55.342 -0.1396E-06  0.3200E+02
    -55.120  0.0000E+00  0.3200E+02
    -54.898  0.0000E+00  0.3200E+02
    -54.676  0.0000E+00  0.3200E+02
    -54.454  0.0000E+00  0.3200E+02
    -54.232  0.0000E+00  0.3200E+02
    -54.010  0.0000E+00  0.3200E+02
    -53.788  0.0000E+00  0.3200E+02
    -53.566  0.0000E+00  0.3200E+02
    -53.344  0.0000E+00  0.3200E+02
    -53.122  0.0000E+00  0.3200E+02
    -52.900  0.0000E+00  0.3200E+02
    -52.678  0.0000E+00  0.3200E+02
    -52.456  0.0000E+00  0.3200E+02
    -52.234  0.0000E+00  0.3200E+02
    -52.012  0.0000E+00  0.3200E+02
    -51.790  0.0000E+00  0.3200E+02
    -51.569  0.0000E+00  0.3200E+02
    -51.347  0.0000E+00  0.3200E+02
    -51.125  0.0000E+00  0.3200E+02
    -50.903  0.0000E+00  0.3200E+02
    -50.681  0.0000E+00  0.3200E+02
    -50.459  0.0000E+00  0.3200E+02
    -50.237  0.0000E+00  0.3200E+02
    -50.015  0.0000E+00  0.3200E+02
    -49.793  0.0000E+00  0.3200E+02
    -49.571  0.0000E+00  0.3200E+02
    -49.349  0.0000E+00  0.3200E+02
    -49.127  0.0000E+00  0.3200E+02
    -48.905  0.0000E+00  0.3200E+02
    -48.683  0.0000E+00  0.3200E+02
    -48.461  0.0000E+00  0.3200E+02
    -48.239  0.0000E+00  0.3200E+02
    -48.017  0.0000E+00  0.3200E+02
    -47.795  0.0000E+00  0.3200E+02
    -47.573  0.0000E+00  0.3200E+02
    -47.351  0.0000E+00  0.3200E+02
    -47.129  0.0000E+00  0.3200E+02
    -46.907  0.0000E+00  0.3200E+02
    -46.685  0.0000E+00  0.3200E+02
    -46.463  0.0000E+00  0.3200E+02
    -46.241  0.0000E+00  0.3200E+02
    -46.019  0.0000E+00  0.3200E+02
    -45.797  0.0000E+00  0.3200E+02
    -45.575  0.0000E+00  0.3200E+02
    -45.353  0.0000E+00  0.3200E+02
    -45.131  0.0000E+00  0.3200E+02
    -44.909  0.0000E+00  0.3200E+02
    -44.687  0.0000E+00  0.3200E+02
    -44.465  0.0000E+00  0.3200E+02
    -44.243  0.0000E+00  0.3200E+02
    -44.021  0.0000E+00  0.3200E+02
    -43.799  0.0000E+00  0.3200E+02
    -43.577  0.0000E+00  0.3200E+02
    -43.355  0.0000E+00  0.3200E+02
    -43.133  0.0000E+00  0.3200E+02
    -42.911  0.0000E+00  0.3200E+02
    -42.689  0.0000E+00  0.3200E+02
    -42.467  0.0000E+00  0.3200E+02
    -42.245  0.0000E+00  0.3200E+02
    -42.023  0.0000E+00  0.3200E+02
    -41.801  0.0000E+00  0.3200E+02
    -41.579  0.0000E+00  0.3200E+02
    -41.357  0.0000E+00  0.3200E+02
    -41.135  0.0000E+00  0.3200E+02
    -40.913  0.0000E+00  0.3200E+02
    -40.691  0.0000E+00  0.3200E+02
    -40.469  0.0000E+00  0.3200E+02
    -40.247  0.0000E+00  0.3200E+02
    -40.025  0.0000E+00  0.3200E+02
    -39.803  0.0000E+00  0.3200E+02
    -39.581  0.0000E+00  0.3200E+02
    -39.359  0.0000E+00  0.3200E+02
    -39.137  0.0000E+00  0.3200E+02
    -38.915  0.0000E+00  0.3200E+02
    -38.693  0.0000E+00  0.3200E+02
    -38.471  0.0000E+00  0.3200E+02
    -38.249  0.0000E+00  0.3200E+02
    -38.027  0.0000E+00  0.3200E+02
    -37.805  0.0000E+00  0.3200E+02
    -37.583  0.0000E+00  0.3200E+02
    -37.361  0.0000E+00  0.3200E+02
    -37.140  0.0000E+00  0.3200E+02
    -36.918  0.0000E+00  0.3200E+02
    -36.696  0.0000E+00  0.3200E+02
    -36.474  0.0000E+00  0.3200E+02
    -36.252  0.0000E+00  0.3200E+02
    -36.030  0.0000E+00  0.3200E+02
    -35.808  0.0000E+00  0.3200E+02
    -35.586  0.0000E+00  0.3200E+02
    -35.364  0.0000E+00  0.3200E+02
    -35.142  0.0000E+00  0.3200E+02
    -34.920  0.0000E+00  0.3200E+02
    -34.698  0.0000E+00  0.3200E+02
    -34.476  0.0000E+00  0.3200E+02
    -34.254 -0.1828E-33  0.3200E+02
    -34.032 -0.2251E-18  0.3200E+02
    -33.810 -0.1301E-07  0.3200E+02
    -33.588 -0.3099E-01  0.3199E+02
    -33.366  0.4962E+01  0.3309E+02
    -33.144  0.6197E+02  0.4685E+02
    -32.922  0.5532E+02  0.5913E+02
    -32.700  0.7607E+02  0.7602E+02
    -32.478  0.9241E+02  0.9653E+02
    -32.256  0.1144E+03  0.1219E+03
    -32.034  0.2779E+02  0.1281E+03
    -31.812 -0.4897E+00  0.1280E+03
    -31.590 -0.4740E-04  0.1280E+03
    -31.368 -0.1931E-12  0.1280E+03
    -31.146  0.0000E+00  0.1280E+03
    -30.924  0.0000E+00  0.1280E+03
    -30.702  0.0000E+00  0.1280E+03
    -30.480  0.0000E+00  0.1280E+03
    -30.258  0.0000E+00  0.1280E+03
    -30.036  0.0000E+00  0.1280E+03
    -29.814  0.0000E+00  0.1280E+03
    -29.592  0.0000E+00  0.1280E+03
    -29.370  0.0000E+00  0.1280E+03
    -29.148  0.0000E+00  0.1280E+03
    -28.926  0.0000E+00  0.1280E+03
    -28.704  0.0000E+00  0.1280E+03
    -28.482  0.0000E+00  0.1280E+03
    -28.260  0.0000E+00  0.1280E+03
    -28.038  0.0000E+00  0.1280E+03
    -27.816  0.0000E+00  0.1280E+03
    -27.594  0.0000E+00  0.1280E+03
    -27.372  0.0000E+00  0.1280E+03
    -27.150  0.0000E+00  0.1280E+03
    -26.928  0.0000E+00  0.1280E+03
    -26.706  0.0000E+00  0.1280E+03
    -26.484  0.0000E+00  0.1280E+03
    -26.262  0.0000E+00  0.1280E+03
    -26.040  0.0000E+00  0.1280E+03
    -25.818  0.0000E+00  0.1280E+03
    -25.596  0.0000E+00  0.1280E+03
    -25.374  0.0000E+00  0.1280E+03
    -25.152  0.0000E+00  0.1280E+03
    -24.930  0.0000E+00  0.1280E+03
    -24.708  0.0000E+00  0.1280E+03
    -24.486  0.0000E+00  0.1280E+03
    -24.264  0.0000E+00  0.1280E+03
    -24.042  0.0000E+00  0.1280E+03
    -23.820  0.0000E+00  0.1280E+03
    -23.598  0.0000E+00  0.1280E+03
    -23.376  0.0000E+00  0.1280E+03
    -23.154  0.0000E+00  0.1280E+03
    -22.932  0.0000E+00  0.1280E+03
    -22.711  0.0000E+00  0.1280E+03
    -22.489  0.0000E+00  0.1280E+03
    -22.267  0.0000E+00  0.1280E+03
    -22.045  0.0000E+00  0.1280E+03
    -21.823  0.0000E+00  0.1280E+03
    -21.601  0.0000E+00  0.1280E+03
    -21.379  0.0000E+00  0.1280E+03
    -21.157  0.0000E+00  0.1280E+03
    -20.935  0.0000E+00  0.1280E+03
    -20.713  0.0000E+00  0.1280E+03
    -20.491  0.0000E+00  0.1280E+03
    -20.269  0.0000E+00  0.1280E+03
    -20.047  0.0000E+00  0.1280E+03
    -19.825  0.0000E+00  0.1280E+03
    -19.603  0.0000E+00  0.1280E+03
    -19.381  0.0000E+00  0.1280E+03
    -19.159  0.0000E+00  0.1280E+03
    -18.937  0.0000E+00  0.1280E+03
    -18.715  0.0000E+00  0.1280E+03
    -18.493  0.0000E+00  0.1280E+03
    -18.271  0.0000E+00  0.1280E+03
    -18.049  0.0000E+00  0.1280E+03
    -17.827  0.0000E+00  0.1280E+03
    -17.605  0.0000E+00  0.1280E+03
    -17.383  0.0000E+00  0.1280E+03
    -17.161  0.0000E+00  0.1280E+03
    -16.939  0.0000E+00  0.1280E+03
    -16.717  0.0000E+00  0.1280E+03
    -16.495  0.0000E+00  0.1280E+03
    -16.273  0.0000E+00  0.1280E+03
    -16.051  0.0000E+00  0.1280E+03
    -15.829  0.0000E+00  0.1280E+03
    -15.607  0.0000E+00  0.1280E+03
    -15.385 -0.2950E-27  0.1280E+03
    -15.163 -0.8050E-14  0.1280E+03
    -14.941 -0.9218E-05  0.1280E+03
    -14.719 -0.2742E+00  0.1279E+03
    -14.497  0.1414E+02  0.1311E+03
    -14.275  0.3091E+02  0.1379E+03
    -14.053  0.3885E+02  0.1466E+03
    -13.831  0.6510E+01  0.1480E+03
    -13.609 -0.4518E-01  0.1480E+03
    -13.387 -0.4090E-07  0.1480E+03
    -13.165  0.0000E+00  0.1480E+03
    -12.943  0.0000E+00  0.1480E+03
    -12.721  0.0000E+00  0.1480E+03
    -12.499  0.0000E+00  0.1480E+03
    -12.277  0.0000E+00  0.1480E+03
    -12.055  0.0000E+00  0.1480E+03
    -11.833  0.0000E+00  0.1480E+03
    -11.611  0.0000E+00  0.1480E+03
    -11.389  0.0000E+00  0.1480E+03
    -11.167  0.0000E+00  0.1480E+03
    -10.945  0.0000E+00  0.1480E+03
    -10.723  0.0000E+00  0.1480E+03
    -10.501  0.0000E+00  0.1480E+03
    -10.279  0.0000E+00  0.1480E+03
    -10.057  0.0000E+00  0.1480E+03
     -9.835  0.0000E+00  0.1480E+03
     -9.613  0.0000E+00  0.1480E+03
     -9.391 -0.3692E-32  0.1480E+03
     -9.169 -0.9621E-18  0.1480E+03
     -8.947 -0.1098E-07  0.1480E+03
     -8.725 -0.4568E-02  0.1480E+03
     -8.503  0.4265E+00  0.1481E+03
     -8.282  0.4018E+01  0.1490E+03
     -8.060  0.2267E+01  0.1495E+03
     -7.838  0.1645E+01  0.1499E+03
     -7.616  0.3278E+01  0.1506E+03
     -7.394  0.2068E+01  0.1510E+03
     -7.172  0.3245E+01  0.1518E+03
     -6.950  0.3423E+01  0.1525E+03
     -6.728  0.5077E+01  0.1536E+03
     -6.506  0.8100E+01  0.1554E+03
     -6.284  0.4229E+01  0.1564E+03
     -6.062  0.5393E+01  0.1576E+03
     -5.840  0.7922E+01  0.1593E+03
     -5.618  0.4550E+01  0.1604E+03
     -5.396  0.1031E+02  0.1626E+03
     -5.174  0.4747E+01  0.1637E+03
     -4.952  0.1030E+02  0.1660E+03
     -4.730  0.8678E+01  0.1679E+03
     -4.508  0.8704E+01  0.1698E+03
     -4.286  0.8973E+01  0.1718E+03
     -4.064  0.8802E+01  0.1738E+03
     -3.842  0.8687E+01  0.1757E+03
     -3.620  0.6677E+01  0.1772E+03
     -3.398  0.7228E+01  0.1788E+03
     -3.176  0.1145E+02  0.1813E+03
     -2.954  0.8051E+01  0.1831E+03
     -2.732  0.9838E+01  0.1853E+03
     -2.510  0.1293E+02  0.1882E+03
     -2.288  0.1058E+02  0.1905E+03
     -2.066  0.1321E+02  0.1935E+03
     -1.844  0.1856E+02  0.1976E+03
     -1.622  0.1673E+02  0.2013E+03
     -1.400  0.2041E+02  0.2058E+03
     -1.178  0.2111E+02  0.2105E+03
     -0.956  0.2340E+02  0.2157E+03
     -0.734  0.2587E+02  0.2214E+03
     -0.512  0.2524E+02  0.2271E+03
     -0.290  0.2645E+02  0.2329E+03
     -0.068  0.3430E+02  0.2405E+03
      0.154  0.3234E+02  0.2477E+03
      0.376  0.4289E+02  0.2572E+03
      0.598  0.4518E+02  0.2673E+03
      0.820  0.4399E+02  0.2770E+03
      1.042  0.5254E+02  0.2887E+03
      1.264  0.6129E+02  0.3023E+03
      1.486  0.5355E+02  0.3142E+03
      1.708  0.4863E+02  0.3250E+03
      1.930  0.4361E+02  0.3347E+03
      2.152  0.4461E+02  0.3446E+03
      2.374  0.4778E+02  0.3552E+03
      2.596  0.3250E+02  0.3624E+03
      2.818  0.3130E+02  0.3693E+03
      3.040  0.2373E+02  0.3746E+03
      3.262  0.2130E+02  0.3793E+03
      3.484  0.1948E+02  0.3837E+03
      3.706  0.1569E+01  0.3840E+03
      3.928 -0.2837E-01  0.3840E+03
      4.150 -0.9119E-06  0.3840E+03
      4.372  0.0000E+00  0.3840E+03
      4.594  0.0000E+00  0.3840E+03
      4.816  0.0000E+00  0.3840E+03
      5.038  0.0000E+00  0.3840E+03
      5.260  0.0000E+00  0.3840E+03
      5.482  0.0000E+00  0.3840E+03
      5.704  0.0000E+00  0.3840E+03
      5.926  0.0000E+00  0.3840E+03
      6.147  0.0000E+00  0.3840E+03
      6.369  0.0000E+00  0.3840E+03
      6.591  0.0000E+00  0.3840E+03
