   34   34    1    1
  0.4871006E+02  0.1015953E-08  0.5858456E-09  0.2803268E-08  0.5000000E-15
  1.000000000000000E-004
  CAR 
 unknown system                          
    266      8    192
 
  0.1276756E-14  0.1276756E-14  0.1276756E-14  0.5555556E-01
      1        -56.976858   1.000000
      2        -56.935289   1.000000
      3        -56.917019   1.000000
      4        -56.825658   1.000000
      5        -56.611050   1.000000
      6        -56.581296   1.000000
      7        -56.430781   1.000000
      8        -56.380437   1.000000
      9        -56.368790   1.000000
     10        -56.329789   1.000000
     11        -56.168813   1.000000
     12        -56.136826   1.000000
     13        -56.080403   1.000000
     14        -56.071878   1.000000
     15        -56.025128   1.000000
     16        -55.989910   1.000000
     17        -33.354563   1.000000
     18        -33.335184   1.000000
     19        -33.265096   1.000000
     20        -33.244374   1.000000
     21        -33.222149   1.000000
     22        -33.165959   1.000000
     23        -33.159337   1.000000
     24        -33.146969   1.000000
     25        -33.123636   1.000000
     26        -33.094288   1.000000
     27        -33.090507   1.000000
     28        -32.987111   1.000000
     29        -32.978957   1.000000
     30        -32.948085   1.000000
     31        -32.865943   1.000000
     32        -32.805074   1.000000
     33        -32.801691   1.000000
     34        -32.783654   1.000000
     35        -32.761563   1.000000
     36        -32.757396   1.000000
     37        -32.728297   1.000000
     38        -32.702612   1.000000
     39        -32.701806   1.000000
     40        -32.679985   1.000000
     41        -32.668369   1.000000
     42        -32.653613   1.000000
     43        -32.639820   1.000000
     44        -32.578227   1.000000
     45        -32.574069   1.000000
     46        -32.569308   1.000000
     47        -32.521229   1.000000
     48        -32.513235   1.000000
     49        -32.502129   1.000000
     50        -32.447233   1.000000
     51        -32.419089   1.000000
     52        -32.412835   1.000000
     53        -32.404089   1.000000
     54        -32.382222   1.000000
     55        -32.380849   1.000000
     56        -32.353357   1.000000
     57        -32.324365   1.000000
     58        -32.311615   1.000000
     59        -32.290731   1.000000
     60        -32.265599   1.000000
     61        -32.261559   1.000000
     62        -32.201455   1.000000
     63        -32.179598   1.000000
     64        -32.141011   1.000000
     65        -14.570222   1.000000
     66        -14.472645   1.000000
     67        -14.455372   1.000000
     68        -14.445088   1.000000
     69        -14.358498   1.000000
     70        -14.194029   1.000000
     71        -14.148623   1.000000
     72        -14.108858   1.000000
     73        -14.101204   1.000000
     74        -14.049771   1.000000
     75         -8.526103   1.000000
     76         -7.611885   1.000000
     77         -6.995392   1.000000
     78         -6.512309   1.000000
     79         -6.427597   1.000000
     80         -6.012754   1.000000
     81         -5.447763   1.000000
     82         -4.995831   1.000000
     83         -4.654799   1.000000
     84         -4.339817   1.000000
     85         -4.016696   1.000000
     86         -3.766264   1.000000
     87         -3.765118   1.000000
     88         -3.714195   1.000000
     89         -3.370480   1.000000
     90         -3.312752   1.000000
     91         -3.208006   1.000000
     92         -2.918596   1.000000
     93         -2.839920   1.000000
     94         -2.677460   1.000000
     95         -2.499369   1.000000
     96         -2.414008   1.000000
     97         -2.405716   1.000000
     98         -2.187281   1.000000
     99         -2.008979   1.000000
    100         -1.954751   1.000000
    101         -1.822498   1.000000
    102         -1.800998   1.000000
    103         -1.757864   1.000000
    104         -1.595872   1.000000
    105         -1.465667   1.000000
    106         -1.314207   1.000000
    107         -1.273530   1.000000
    108         -1.141024   1.000000
    109         -1.070493   1.000000
    110         -0.990699   1.000000
    111         -0.918605   1.000000
    112         -0.821567   1.000000
    113         -0.682729   1.000000
    114         -0.666999   1.000000
    115         -0.570938   1.000000
    116         -0.527519   1.000000
    117         -0.413492   1.000000
    118         -0.302429   1.000000
    119         -0.281408   1.000000
    120         -0.172667   1.000000
    121         -0.135553   1.000000
    122         -0.073250   1.000000
    123         -0.031524   1.000000
    124          0.030280   1.000000
    125          0.056802   1.000000
    126          0.142424   1.000000
    127          0.196529   1.000001
    128          0.225204   1.000005
    129          0.286795   1.000211
    130          0.336193   1.002149
    131          0.364837   1.006340
    132          0.498052   0.972318
    133          0.534885   0.790134
    134          0.567028   0.540431
    135          0.568249   0.530127
    136          0.588396   0.361767
    137          0.676194  -0.029098
    138          0.723610  -0.026843
    139          0.794980  -0.003526
    140          0.805623  -0.002314
    141          0.864135  -0.000143
    142          0.901162  -0.000016
    143          0.929515  -0.000003
    144          1.018218  -0.000000
    145          1.067671  -0.000000
    146          1.076981  -0.000000
    147          1.142113  -0.000000
    148          1.189792  -0.000000
    149          1.204561  -0.000000
    150          1.233295  -0.000000
    151          1.262247  -0.000000
    152          1.284496  -0.000000
    153          1.347454  -0.000000
    154          1.400779  -0.000000
    155          1.492891  -0.000000
    156          1.510675  -0.000000
    157          1.528888  -0.000000
    158          1.608117  -0.000000
    159          1.641333  -0.000000
    160          1.686011  -0.000000
    161          1.786011  -0.000000
    162          1.838934  -0.000000
    163          1.868228  -0.000000
    164          1.990111  -0.000000
    165          2.047811  -0.000000
    166          2.117232  -0.000000
    167          2.122004  -0.000000
    168          2.162940  -0.000000
    169          2.185238  -0.000000
    170          2.207517  -0.000000
    171          2.248444  -0.000000
    172          2.272718  -0.000000
    173          2.300868  -0.000000
    174          2.314362  -0.000000
    175          2.345648  -0.000000
    176          2.379422  -0.000000
    177          2.400791  -0.000000
    178          2.408225  -0.000000
    179          2.498836  -0.000000
    180          2.551975  -0.000000
    181          2.626851   0.000000
    182          2.653406   0.000000
    183          2.783905   0.000000
    184          2.786131   0.000000
    185          2.816076   0.000000
    186          2.935342   0.000000
    187          2.938903   0.000000
    188          3.028604   0.000000
    189          3.138384   0.000000
    190          3.266225   0.000000
    191          3.296912   0.000000
    192          3.383606   0.000000
 
  0.3333333E+00  0.1276756E-14  0.8368306E-14  0.1111111E+00
      1        -56.976857   1.000000
      2        -56.935288   1.000000
      3        -56.917019   1.000000
      4        -56.825657   1.000000
      5        -56.611050   1.000000
      6        -56.581295   1.000000
      7        -56.430781   1.000000
      8        -56.380436   1.000000
      9        -56.368789   1.000000
     10        -56.329788   1.000000
     11        -56.168812   1.000000
     12        -56.136825   1.000000
     13        -56.080402   1.000000
     14        -56.071878   1.000000
     15        -56.025128   1.000000
     16        -55.989910   1.000000
     17        -33.354562   1.000000
     18        -33.335182   1.000000
     19        -33.265095   1.000000
     20        -33.244374   1.000000
     21        -33.222147   1.000000
     22        -33.165958   1.000000
     23        -33.159336   1.000000
     24        -33.146966   1.000000
     25        -33.123637   1.000000
     26        -33.094290   1.000000
     27        -33.090509   1.000000
     28        -32.987114   1.000000
     29        -32.978953   1.000000
     30        -32.948086   1.000000
     31        -32.865936   1.000000
     32        -32.805083   1.000000
     33        -32.801691   1.000000
     34        -32.783654   1.000000
     35        -32.761575   1.000000
     36        -32.757394   1.000000
     37        -32.728252   1.000000
     38        -32.702659   1.000000
     39        -32.701806   1.000000
     40        -32.679950   1.000000
     41        -32.668370   1.000000
     42        -32.653601   1.000000
     43        -32.639847   1.000000
     44        -32.578238   1.000000
     45        -32.574051   1.000000
     46        -32.569313   1.000000
     47        -32.521798   1.000000
     48        -32.511828   1.000000
     49        -32.503025   1.000000
     50        -32.447158   1.000000
     51        -32.419089   1.000000
     52        -32.412839   1.000000
     53        -32.404093   1.000000
     54        -32.382226   1.000000
     55        -32.380847   1.000000
     56        -32.353356   1.000000
     57        -32.324375   1.000000
     58        -32.311614   1.000000
     59        -32.290722   1.000000
     60        -32.265598   1.000000
     61        -32.261560   1.000000
     62        -32.201454   1.000000
     63        -32.179598   1.000000
     64        -32.141010   1.000000
     65        -14.570225   1.000000
     66        -14.472646   1.000000
     67        -14.455371   1.000000
     68        -14.445088   1.000000
     69        -14.358498   1.000000
     70        -14.194033   1.000000
     71        -14.148624   1.000000
     72        -14.108858   1.000000
     73        -14.101204   1.000000
     74        -14.049770   1.000000
     75         -8.453704   1.000000
     76         -7.746763   1.000000
     77         -7.041387   1.000000
     78         -6.727660   1.000000
     79         -6.138922   1.000000
     80         -5.825870   1.000000
     81         -5.527164   1.000000
     82         -4.973440   1.000000
     83         -4.648819   1.000000
     84         -4.337599   1.000000
     85         -4.063283   1.000000
     86         -3.819783   1.000000
     87         -3.682806   1.000000
     88         -3.533078   1.000000
     89         -3.330441   1.000000
     90         -3.262707   1.000000
     91         -3.147236   1.000000
     92         -2.995552   1.000000
     93         -2.905834   1.000000
     94         -2.767310   1.000000
     95         -2.658011   1.000000
     96         -2.543985   1.000000
     97         -2.474488   1.000000
     98         -2.289718   1.000000
     99         -2.188359   1.000000
    100         -2.057187   1.000000
    101         -2.013398   1.000000
    102         -1.888397   1.000000
    103         -1.739794   1.000000
    104         -1.468274   1.000000
    105         -1.369971   1.000000
    106         -1.339732   1.000000
    107         -1.195635   1.000000
    108         -1.123294   1.000000
    109         -1.026168   1.000000
    110         -0.913784   1.000000
    111         -0.900457   1.000000
    112         -0.743447   1.000000
    113         -0.663654   1.000000
    114         -0.500817   1.000000
    115         -0.481703   1.000000
    116         -0.380640   1.000000
    117         -0.347919   1.000000
    118         -0.220452   1.000000
    119         -0.199042   1.000000
    120         -0.180299   1.000000
    121         -0.090872   1.000000
    122         -0.053485   1.000000
    123         -0.029530   1.000000
    124          0.001654   1.000000
    125          0.103228   1.000000
    126          0.142137   1.000000
    127          0.191001   1.000001
    128          0.212720   1.000002
    129          0.237028   1.000012
    130          0.325852   1.001384
    131          0.377254   1.009493
    132          0.406737   1.020739
    133          0.432655   1.032076
    134          0.486439   1.002544
    135          0.569423   0.520213
    136          0.580131   0.429865
    137          0.712253  -0.031610
    138          0.759267  -0.011735
    139          0.812734  -0.001720
    140          0.826438  -0.000939
    141          0.920553  -0.000005
    142          0.920933  -0.000005
    143          0.986759  -0.000000
    144          1.025022  -0.000000
    145          1.058716  -0.000000
    146          1.079528  -0.000000
    147          1.130619  -0.000000
    148          1.174628  -0.000000
    149          1.206866  -0.000000
    150          1.242186  -0.000000
    151          1.312120  -0.000000
    152          1.324129  -0.000000
    153          1.328855  -0.000000
    154          1.389752  -0.000000
    155          1.493359  -0.000000
    156          1.564036  -0.000000
    157          1.627890  -0.000000
    158          1.639250  -0.000000
    159          1.710317  -0.000000
    160          1.751889  -0.000000
    161          1.802184  -0.000000
    162          1.861455  -0.000000
    163          1.871647  -0.000000
    164          1.958640  -0.000000
    165          2.011072  -0.000000
    166          2.036087  -0.000000
    167          2.093314  -0.000000
    168          2.097401  -0.000000
    169          2.157619  -0.000000
    170          2.208570  -0.000000
    171          2.224984  -0.000000
    172          2.254233  -0.000000
    173          2.305667  -0.000000
    174          2.325009  -0.000000
    175          2.359450  -0.000000
    176          2.410132  -0.000000
    177          2.448853  -0.000000
    178          2.497721  -0.000000
    179          2.502262  -0.000000
    180          2.530346  -0.000000
    181          2.550166  -0.000000
    182          2.628681   0.000000
    183          2.666971   0.000000
    184          2.692178   0.000000
    185          2.736991   0.000000
    186          2.854064   0.000000
    187          2.891290   0.000000
    188          2.982182   0.000000
    189          3.045658   0.000000
    190          3.145051   0.000000
    191          3.243751   0.000000
    192          3.353239   0.000000
 
  0.1276756E-14  0.1666667E+00  0.1276756E-14  0.1111111E+00
      1        -56.976856   1.000000
      2        -56.935288   1.000000
      3        -56.917018   1.000000
      4        -56.825656   1.000000
      5        -56.610903   1.000000
      6        -56.581147   1.000000
      7        -56.430585   1.000000
      8        -56.380213   1.000000
      9        -56.368580   1.000000
     10        -56.329475   1.000000
     11        -56.168975   1.000000
     12        -56.136991   1.000000
     13        -56.080613   1.000000
     14        -56.072212   1.000000
     15        -56.025372   1.000000
     16        -55.990139   1.000000
     17        -33.354570   1.000000
     18        -33.335181   1.000000
     19        -33.265092   1.000000
     20        -33.244384   1.000000
     21        -33.222146   1.000000
     22        -33.165967   1.000000
     23        -33.159345   1.000000
     24        -33.146965   1.000000
     25        -33.123629   1.000000
     26        -33.094285   1.000000
     27        -33.090504   1.000000
     28        -32.987104   1.000000
     29        -32.979000   1.000000
     30        -32.948200   1.000000
     31        -32.865850   1.000000
     32        -32.804844   1.000000
     33        -32.789883   1.000000
     34        -32.772194   1.000000
     35        -32.761331   1.000000
     36        -32.757654   1.000000
     37        -32.728149   1.000000
     38        -32.702155   1.000000
     39        -32.688894   1.000000
     40        -32.679873   1.000000
     41        -32.668151   1.000000
     42        -32.653373   1.000000
     43        -32.639647   1.000000
     44        -32.560949   1.000000
     45        -32.556080   1.000000
     46        -32.553235   1.000000
     47        -32.521266   1.000000
     48        -32.513340   1.000000
     49        -32.502219   1.000000
     50        -32.447226   1.000000
     51        -32.419150   1.000000
     52        -32.413344   1.000000
     53        -32.404394   1.000000
     54        -32.382221   1.000000
     55        -32.381207   1.000000
     56        -32.365693   1.000000
     57        -32.324563   1.000000
     58        -32.323764   1.000000
     59        -32.290984   1.000000
     60        -32.278931   1.000000
     61        -32.261794   1.000000
     62        -32.220798   1.000000
     63        -32.197458   1.000000
     64        -32.157604   1.000000
     65        -14.570121   1.000000
     66        -14.472647   1.000000
     67        -14.455545   1.000000
     68        -14.445208   1.000000
     69        -14.358300   1.000000
     70        -14.193979   1.000000
     71        -14.148625   1.000000
     72        -14.108966   1.000000
     73        -14.101325   1.000000
     74        -14.049618   1.000000
     75         -8.419893   1.000000
     76         -7.514375   1.000000
     77         -6.895810   1.000000
     78         -6.403798   1.000000
     79         -6.353271   1.000000
     80         -6.023598   1.000000
     81         -5.531468   1.000000
     82         -4.991223   1.000000
     83         -4.940182   1.000000
     84         -4.687801   1.000000
     85         -4.381864   1.000000
     86         -4.163930   1.000000
     87         -3.963377   1.000000
     88         -3.890146   1.000000
     89         -3.608087   1.000000
     90         -3.416411   1.000000
     91         -3.083325   1.000000
     92         -2.909950   1.000000
     93         -2.758206   1.000000
     94         -2.600264   1.000000
     95         -2.386249   1.000000
     96         -2.130895   1.000000
     97         -2.038138   1.000000
     98         -1.952509   1.000000
     99         -1.877458   1.000000
    100         -1.866694   1.000000
    101         -1.716303   1.000000
    102         -1.649723   1.000000
    103         -1.557479   1.000000
    104         -1.507227   1.000000
    105         -1.420080   1.000000
    106         -1.234272   1.000000
    107         -1.197446   1.000000
    108         -1.093854   1.000000
    109         -1.035126   1.000000
    110         -1.006271   1.000000
    111         -0.882352   1.000000
    112         -0.799910   1.000000
    113         -0.761924   1.000000
    114         -0.636913   1.000000
    115         -0.564755   1.000000
    116         -0.477510   1.000000
    117         -0.414892   1.000000
    118         -0.302834   1.000000
    119         -0.169237   1.000000
    120         -0.154299   1.000000
    121         -0.092859   1.000000
    122         -0.043156   1.000000
    123          0.039480   1.000000
    124          0.114045   1.000000
    125          0.176012   1.000000
    126          0.219642   1.000004
    127          0.246607   1.000021
    128          0.285253   1.000194
    129          0.301681   1.000450
    130          0.360764   1.005505
    131          0.381116   1.010672
    132          0.434897   1.032839
    133          0.528833   0.829136
    134          0.551217   0.670256
    135          0.571377   0.503683
    136          0.624002   0.118110
    137          0.718135  -0.029256
    138          0.751341  -0.014613
    139          0.762217  -0.010765
    140          0.821265  -0.001187
    141          0.896456  -0.000022
    142          0.942713  -0.000001
    143          0.986444  -0.000000
    144          1.023178  -0.000000
    145          1.062087  -0.000000
    146          1.095077  -0.000000
    147          1.123610  -0.000000
    148          1.164576  -0.000000
    149          1.185328  -0.000000
    150          1.250955  -0.000000
    151          1.268459  -0.000000
    152          1.307910  -0.000000
    153          1.374788  -0.000000
    154          1.396184  -0.000000
    155          1.410092  -0.000000
    156          1.465992  -0.000000
    157          1.515443  -0.000000
    158          1.543337  -0.000000
    159          1.641691  -0.000000
    160          1.678349  -0.000000
    161          1.697933  -0.000000
    162          1.745958  -0.000000
    163          1.815416  -0.000000
    164          1.858357  -0.000000
    165          1.891734  -0.000000
    166          1.922771  -0.000000
    167          1.996441  -0.000000
    168          2.012638  -0.000000
    169          2.081199  -0.000000
    170          2.113117  -0.000000
    171          2.137141  -0.000000
    172          2.157765  -0.000000
    173          2.216138  -0.000000
    174          2.243539  -0.000000
    175          2.301319  -0.000000
    176          2.351468  -0.000000
    177          2.394208  -0.000000
    178          2.457683  -0.000000
    179          2.521047  -0.000000
    180          2.575025   0.000000
    181          2.632157   0.000000
    182          2.638820   0.000000
    183          2.700399   0.000000
    184          2.722999   0.000000
    185          2.876812   0.000000
    186          2.914727   0.000000
    187          3.003807   0.000000
    188          3.101004   0.000000
    189          3.144312   0.000000
    190          3.291998   0.000000
    191          3.361714   0.000000
    192          3.404663   0.000000
 
  0.3333333E+00  0.1666667E+00  0.8382184E-14  0.2222222E+00
      1        -56.976856   1.000000
      2        -56.935288   1.000000
      3        -56.917018   1.000000
      4        -56.825656   1.000000
      5        -56.610904   1.000000
      6        -56.581147   1.000000
      7        -56.430585   1.000000
      8        -56.380213   1.000000
      9        -56.368581   1.000000
     10        -56.329475   1.000000
     11        -56.168975   1.000000
     12        -56.136992   1.000000
     13        -56.080614   1.000000
     14        -56.072213   1.000000
     15        -56.025372   1.000000
     16        -55.990140   1.000000
     17        -33.354571   1.000000
     18        -33.335180   1.000000
     19        -33.265093   1.000000
     20        -33.244385   1.000000
     21        -33.222146   1.000000
     22        -33.165967   1.000000
     23        -33.159346   1.000000
     24        -33.146964   1.000000
     25        -33.123631   1.000000
     26        -33.094287   1.000000
     27        -33.090506   1.000000
     28        -32.987108   1.000000
     29        -32.978997   1.000000
     30        -32.948203   1.000000
     31        -32.865845   1.000000
     32        -32.804855   1.000000
     33        -32.789884   1.000000
     34        -32.772195   1.000000
     35        -32.761346   1.000000
     36        -32.757652   1.000000
     37        -32.728107   1.000000
     38        -32.702199   1.000000
     39        -32.688895   1.000000
     40        -32.679849   1.000000
     41        -32.668146   1.000000
     42        -32.653364   1.000000
     43        -32.639679   1.000000
     44        -32.560955   1.000000
     45        -32.556067   1.000000
     46        -32.553245   1.000000
     47        -32.521845   1.000000
     48        -32.511927   1.000000
     49        -32.503118   1.000000
     50        -32.447151   1.000000
     51        -32.419152   1.000000
     52        -32.413349   1.000000
     53        -32.404397   1.000000
     54        -32.382220   1.000000
     55        -32.381211   1.000000
     56        -32.365694   1.000000
     57        -32.324575   1.000000
     58        -32.323763   1.000000
     59        -32.290978   1.000000
     60        -32.278932   1.000000
     61        -32.261796   1.000000
     62        -32.220799   1.000000
     63        -32.197459   1.000000
     64        -32.157605   1.000000
     65        -14.570124   1.000000
     66        -14.472648   1.000000
     67        -14.455545   1.000000
     68        -14.445208   1.000000
     69        -14.358299   1.000000
     70        -14.193983   1.000000
     71        -14.148625   1.000000
     72        -14.108966   1.000000
     73        -14.101325   1.000000
     74        -14.049618   1.000000
     75         -8.351973   1.000000
     76         -7.638169   1.000000
     77         -6.939295   1.000000
     78         -6.635368   1.000000
     79         -6.081826   1.000000
     80         -5.857876   1.000000
     81         -5.528110   1.000000
     82         -5.022569   1.000000
     83         -4.908230   1.000000
     84         -4.791151   1.000000
     85         -4.375428   1.000000
     86         -4.186783   1.000000
     87         -3.956206   1.000000
     88         -3.757487   1.000000
     89         -3.415674   1.000000
     90         -3.353277   1.000000
     91         -3.064461   1.000000
     92         -2.931405   1.000000
     93         -2.822942   1.000000
     94         -2.687162   1.000000
     95         -2.620703   1.000000
     96         -2.363624   1.000000
     97         -2.194817   1.000000
     98         -2.120612   1.000000
     99         -1.952622   1.000000
    100         -1.883938   1.000000
    101         -1.814076   1.000000
    102         -1.610602   1.000000
    103         -1.573332   1.000000
    104         -1.442247   1.000000
    105         -1.298096   1.000000
    106         -1.282642   1.000000
    107         -1.141363   1.000000
    108         -1.078444   1.000000
    109         -0.945393   1.000000
    110         -0.924634   1.000000
    111         -0.827206   1.000000
    112         -0.733274   1.000000
    113         -0.670188   1.000000
    114         -0.605029   1.000000
    115         -0.467209   1.000000
    116         -0.410782   1.000000
    117         -0.321589   1.000000
    118         -0.278349   1.000000
    119         -0.174564   1.000000
    120         -0.135006   1.000000
    121         -0.105970   1.000000
    122         -0.001502   1.000000
    123          0.056573   1.000000
    124          0.075947   1.000000
    125          0.123983   1.000000
    126          0.187889   1.000000
    127          0.245726   1.000020
    128          0.274994   1.000111
    129          0.315043   1.000851
    130          0.338946   1.002405
    131          0.406815   1.020775
    132          0.431518   1.031664
    133          0.488831   0.997285
    134          0.536774   0.777298
    135          0.622687   0.125136
    136          0.671312  -0.024601
    137          0.718212  -0.029223
    138          0.777739  -0.006570
    139          0.808836  -0.002027
    140          0.903333  -0.000014
    141          0.931018  -0.000002
    142          0.955113  -0.000000
    143          0.994626  -0.000000
    144          1.019726  -0.000000
    145          1.065807  -0.000000
    146          1.091276  -0.000000
    147          1.132813  -0.000000
    148          1.179872  -0.000000
    149          1.207050  -0.000000
    150          1.232308  -0.000000
    151          1.264593  -0.000000
    152          1.315159  -0.000000
    153          1.360808  -0.000000
    154          1.384778  -0.000000
    155          1.446706  -0.000000
    156          1.487974  -0.000000
    157          1.516866  -0.000000
    158          1.557818  -0.000000
    159          1.625796  -0.000000
    160          1.647818  -0.000000
    161          1.726744  -0.000000
    162          1.799341  -0.000000
    163          1.810510  -0.000000
    164          1.872974  -0.000000
    165          1.915233  -0.000000
    166          1.951388  -0.000000
    167          2.009985  -0.000000
    168          2.025634  -0.000000
    169          2.077674  -0.000000
    170          2.098871  -0.000000
    171          2.138903  -0.000000
    172          2.175665  -0.000000
    173          2.215265  -0.000000
    174          2.248149  -0.000000
    175          2.305196  -0.000000
    176          2.329186  -0.000000
    177          2.368048  -0.000000
    178          2.408062  -0.000000
    179          2.447810  -0.000000
    180          2.537150  -0.000000
    181          2.573034   0.000000
    182          2.626038   0.000000
    183          2.661582   0.000000
    184          2.734000   0.000000
    185          2.794561   0.000000
    186          2.859955   0.000000
    187          2.949925   0.000000
    188          2.978509   0.000000
    189          3.057716   0.000000
    190          3.097053   0.000000
    191          3.254558   0.000000
    192          3.331006   0.000000
 
  0.1276756E-14  0.3333333E+00  0.1276756E-14  0.1111111E+00
      1        -56.976856   1.000000
      2        -56.935287   1.000000
      3        -56.917018   1.000000
      4        -56.825656   1.000000
      5        -56.610611   1.000000
      6        -56.580852   1.000000
      7        -56.430192   1.000000
      8        -56.379767   1.000000
      9        -56.368163   1.000000
     10        -56.328847   1.000000
     11        -56.169302   1.000000
     12        -56.137325   1.000000
     13        -56.081038   1.000000
     14        -56.072885   1.000000
     15        -56.025862   1.000000
     16        -55.990601   1.000000
     17        -33.354587   1.000000
     18        -33.335179   1.000000
     19        -33.265090   1.000000
     20        -33.244408   1.000000
     21        -33.222143   1.000000
     22        -33.165985   1.000000
     23        -33.159366   1.000000
     24        -33.146963   1.000000
     25        -33.123618   1.000000
     26        -33.094281   1.000000
     27        -33.090499   1.000000
     28        -32.987090   1.000000
     29        -32.979048   1.000000