       N       E                     dE             d eps       ncg     rms          rms(c)
DAV:   1     0.235964121391E+04    0.23596E+04   -0.13078E+05  3264   0.126E+03
DAV:   2     0.684456876765E+02   -0.22912E+04   -0.22254E+04  3392   0.372E+02
DAV:   3    -0.185264188783E+03   -0.25371E+03   -0.24902E+03  6016   0.109E+02
DAV:   4    -0.220945708474E+03   -0.35682E+02   -0.35424E+02  4864   0.335E+01
DAV:   5    -0.224396879553E+03   -0.34512E+01   -0.34508E+01  4992   0.928E+00    0.403E+01
DAV:   6    -0.292053730019E+03   -0.67657E+02   -0.80865E+02  5120   0.449E+01    0.927E+01
DAV:   7    -0.205264785274E+03    0.86789E+02   -0.52652E+02  5120   0.544E+01    0.400E+01
DAV:   8    -0.191986981705E+03    0.13278E+02   -0.17161E+02  4608   0.273E+01    0.282E+01
DAV:   9    -0.183488629479E+03    0.84984E+01   -0.62109E+01  4608   0.149E+01    0.165E+01
DAV:  10    -0.182214330253E+03    0.12743E+01   -0.40870E+01  4608   0.855E+00    0.152E+01
DAV:  11    -0.179202523600E+03    0.30118E+01   -0.26354E+01  4544   0.625E+00    0.110E+01
DAV:  12    -0.177986764399E+03    0.12158E+01   -0.10919E+01  4608   0.602E+00    0.850E+00
DAV:  13    -0.177461924396E+03    0.52484E+00   -0.71955E+00  4608   0.528E+00    0.699E+00
DAV:  14    -0.177363977642E+03    0.97947E-01   -0.49138E+00  4608   0.388E+00    0.694E+00
DAV:  15    -0.177495280595E+03   -0.13130E+00   -0.50902E+00  4608   0.310E+00    0.759E+00
DAV:  16    -0.177339465852E+03    0.15581E+00   -0.37440E+00  4608   0.320E+00    0.540E+00
DAV:  17    -0.177130219895E+03    0.20925E+00   -0.15179E+00  4608   0.239E+00    0.333E+00
DAV:  18    -0.177080460017E+03    0.49760E-01   -0.10098E+00  4608   0.140E+00    0.278E+00
DAV:  19    -0.177038855052E+03    0.41605E-01   -0.36642E-01  4608   0.106E+00    0.132E+00
DAV:  20    -0.177042062448E+03   -0.32074E-02   -0.10863E-01  4608   0.697E-01    0.128E+00
DAV:  21    -0.177037871274E+03    0.41912E-02   -0.14644E-01  4608   0.654E-01    0.891E-01
DAV:  22    -0.177034865982E+03    0.30053E-02   -0.34935E-02  4608   0.367E-01    0.457E-01
DAV:  23    -0.177034558796E+03    0.30719E-03   -0.10421E-02  4608   0.293E-01    0.293E-01
DAV:  24    -0.177036864612E+03   -0.23058E-02   -0.10626E-02  4608   0.135E-01    0.264E-01
DAV:  25    -0.177038021846E+03   -0.11572E-02   -0.27523E-03  4608   0.127E-01    0.169E-01
DAV:  26    -0.177039095446E+03   -0.10736E-02   -0.27443E-03  4608   0.112E-01    0.105E-01
DAV:  27    -0.177040375779E+03   -0.12803E-02   -0.10952E-03  4544   0.704E-02    0.985E-02
DAV:  28    -0.177040776585E+03   -0.40081E-03   -0.57869E-04  4608   0.574E-02    0.693E-02
DAV:  29    -0.177041706937E+03   -0.93035E-03   -0.34582E-04  4416   0.369E-02    0.478E-02
DAV:  30    -0.177041989651E+03   -0.28271E-03   -0.19949E-04  4352   0.347E-02    0.457E-02
DAV:  31    -0.177042592832E+03   -0.60318E-03   -0.13977E-04  3968   0.237E-02    0.234E-02
DAV:  32    -0.177042752870E+03   -0.16004E-03   -0.58160E-05  4096   0.200E-02    0.156E-02
DAV:  33    -0.177043055552E+03   -0.30268E-03   -0.30399E-05  3840   0.109E-02    0.683E-03
DAV:  34    -0.177043206318E+03   -0.15077E-03   -0.12688E-05  3712   0.652E-03    0.837E-03
DAV:  35    -0.177043251787E+03   -0.45468E-04   -0.54555E-06  3072   0.590E-03    0.418E-03
DAV:  36    -0.177043334808E+03   -0.83021E-04   -0.75164E-06  3520   0.305E-03    0.153E-03
DAV:  37    -0.177043362223E+03   -0.27416E-04   -0.11535E-06  3072   0.147E-03    0.134E-03
DAV:  38    -0.177043382308E+03   -0.20085E-04   -0.13093E-06  2944   0.110E-03    0.682E-04
DAV:  39    -0.177043392031E+03   -0.97230E-05   -0.50625E-07  2880   0.713E-04
   1 F= -.17704339E+03 E0= -.17703904E+03  d E =-.130678E-01
