 vasp.6.5.0 16Dec24 (build Apr 17 2025 17:55:45) complex                        
  
 executed on             LinuxIFC date 2025.06.10  15:40:50
 running   64 mpi-ranks, on    1 nodes
 distrk:  each k-point on   64 cores,    1 groups
 distr:  one band on NCORE=   1 cores,   64 groups


--------------------------------------------------------------------------------------------------------


 INCAR:
   ISTART = 0
   ICHARG = 2
   PREC = N
   LREAL = .FALSE.
   ENCUT = 520
   ALGO = N
   NELM = 500
   EDIFF = 1E-05
   IBRION = -1
   ISIF = 3
   NSW = 0
   EDIFFG = -0.01
   ISMEAR = 1
   SIGMA = 0.1
   LVHAR = .TRUE.
   LVTOT = .TRUE.

 POTCAR:    PAW_PBE Ti_sv 26Sep2005               
 POTCAR:    PAW_PBE Al 04Jan2001                  
 POTCAR:    PAW_PBE Ga_d 06Jul2010                
 -----------------------------------------------------------------------------
|                                                                             |
|           W    W    AA    RRRRR   N    N  II  N    N   GGGG   !!!           |
|           W    W   A  A   R    R  NN   N  II  NN   N  G    G  !!!           |
|           W    W  A    A  R    R  N N  N  II  N N  N  G       !!!           |
|           W WW W  AAAAAA  RRRRR   N  N N  II  N  N N  G  GGG   !            |
|           WW  WW  A    A  R   R   N   NN  II  N   NN  G    G                |
|           W    W  A    A  R    R  N    N  II  N    N   GGGG   !!!           |
|                                                                             |
|     For optimal performance we recommend to set                             |
|       NCORE = 2 up to number-of-cores-per-socket                            |
|     NCORE specifies how many cores store one orbital (NPAR=cpu/NCORE).      |
|     This setting can greatly improve the performance of VASP for DFT.       |
|     The default, NCORE=1 might be grossly inefficient on modern             |
|     multi-core architectures or massively parallel machines. Do your        |
|     own testing! More info at https://www.vasp.at/wiki/index.php/NCORE      |
|     Unfortunately you need to use the default for GW and RPA                |
|     calculations (for HF NCORE is supported but not extensively tested      |
|     yet).                                                                   |
|                                                                             |
 -----------------------------------------------------------------------------

 POTCAR:    PAW_PBE Ti_sv 26Sep2005               
   SHA256 =  4d747badb5a5ea28d858fbac70885b3f8929d6fd9e5b0dbe1ecb9878dc164da1 Ti_sv/POTCAR          
   COPYR  = (c) Copyright 26Sep2005 Georg Kresse                                                    
   COPYR  = This file is part of the software VASP. Any use, copying, and all other rights are regul
   COPYR  = If you do not have a valid VASP license, you may not use, copy or distribute this file. 
   VRHFIN =Ti: 3p4s3d                                                                               
   LEXCH  = PE                                                                                      
   EATOM  =  1588.0892 eV,  116.7213 Ry                                                             
                                                                                                    
   TITEL  = PAW_PBE Ti_sv 26Sep2005                                                                 
   LULTRA =        F    use ultrasoft PP ?                                                          
   IUNSCR =        1    unscreen: 0-lin 1-nonlin 2-no                                               
   RPACOR =    2.000    partial core radius                                                         
   POMASS =   47.880; ZVAL   =   12.000    mass and valenz                                          
   RCORE  =    2.300    outmost cutoff radius                                                       
   RWIGS  =    2.300; RWIGS  =    1.217    wigner-seitz radius (au A)                               
   ENMAX  =  274.610; ENMIN  =  205.957 eV                                                          
   ICORE  =        3    local potential                                                             
   LCOR   =        T    correct aug charges                                                         
   LPAW   =        T    paw PP                                                                      
   EAUG   =  482.848                                                                                
   RMAX   =    2.348    core radius for proj-oper                                                   
   RAUG   =    1.300    factor for augmentation sphere                                              
   RDEP   =    2.381    radius for radial grids                                                     
   RDEPT  =    1.930    core radius for aug-charge                                                  
                                                                                                    
   Atomic configuration                                                                             
    8 entries                                                                                       
     n  l   j            E        occ.                                                              
     1  0  0.50     -4865.3608   2.0000                                                             
     2  0  0.50      -533.1368   2.0000                                                             
     2  1  1.50      -440.5031   6.0000                                                             
     3  0  0.50       -59.3186   2.0000                                                             
     4  0  0.50        -3.7291   1.0000                                                             
     3  1  1.50       -35.7012   6.0000                                                             
     3  2  2.50        -1.9157   3.0000                                                             
     4  3  2.50        -1.3606   0.0000                                                             
   Description                                                                                      
     l       E           TYP  RCUT    TYP  RCUT                                                     
     0    -59.3185931     23  1.800                                                                 
     0     -3.7290822     23  2.300                                                                 
     1    -35.7012045     23  2.300                                                                 
     1     -1.3605826     23  2.300                                                                 
     2     -1.9156920     23  2.300                                                                 
     2     -0.0236318     23  2.300                                                                 
     3     -1.3605826     23  2.300                                                                 
  local pseudopotential read in
  partial core-charges read in
  partial kinetic energy density read in
  atomic valenz-charges read in
  non local Contribution for L=           0  read in
    real space projection operators read in
  non local Contribution for L=           0  read in
    real space projection operators read in
  non local Contribution for L=           1  read in
    real space projection operators read in
  non local Contribution for L=           1  read in
    real space projection operators read in
  non local Contribution for L=           2  read in
    real space projection operators read in
  non local Contribution for L=           2  read in
    real space projection operators read in
    PAW grid and wavefunctions read in
 
   number of l-projection  operators is LMAX  =           6
   number of lm-projection operators is LMMAX =          18
 
 POTCAR:    PAW_PBE Al 04Jan2001                  
   SHA256 =  17880443556af62b473fe41b62a467bd001ad55d2cabe504a3f22e34d4e9db96 Al/POTCAR             
   COPYR  = (c) Copyright 04Jan2001 Georg Kresse                                                    
   COPYR  = This file is part of the software VASP. Any use, copying, and all other rights are regul
   COPYR  = If you do not have a valid VASP license, you may not use, copy or distribute this file. 
   VRHFIN =Al: s2p1                                                                                 
   LEXCH  = PE                                                                                      
   EATOM  =    53.5387 eV,    3.9350 Ry                                                             
                                                                                                    
   TITEL  = PAW_PBE Al 04Jan2001                                                                    
   LULTRA =        F    use ultrasoft PP ?                                                          
   IUNSCR =        1    unscreen: 0-lin 1-nonlin 2-no                                               
   RPACOR =    1.500    partial core radius                                                         
   POMASS =   26.981; ZVAL   =    3.000    mass and valenz                                          
   RCORE  =    1.900    outmost cutoff radius                                                       
   RWIGS  =    2.650; RWIGS  =    1.402    wigner-seitz radius (au A)                               
   ENMAX  =  240.300; ENMIN  =  180.225 eV                                                          
   ICORE  =        2    local potential                                                             
   LCOR   =        T    correct aug charges                                                         
   LPAW   =        T    paw PP                                                                      
   EAUG   =  291.052                                                                                
   DEXC   =    0.000                                                                                
   RMAX   =    1.939    core radius for proj-oper                                                   
   RAUG   =    1.300    factor for augmentation sphere                                              
   RDEP   =    1.966    radius for radial grids                                                     
   RDEPT  =    1.856    core radius for aug-charge                                                  
                                                                                                    
   Atomic configuration                                                                             
    6 entries                                                                                       
     n  l   j            E        occ.                                                              
     1  0  0.50     -1511.1048   2.0000                                                             
     2  0  0.50      -108.1629   2.0000                                                             
     2  1  1.50       -69.6402   6.0000                                                             
     3  0  0.50        -7.7528   2.0000                                                             
     3  1  1.50        -2.7121   1.0000                                                             
     3  2  2.50        -2.7212   0.0000                                                             
   Description                                                                                      
     l       E           TYP  RCUT    TYP  RCUT                                                     
     0     -7.7528455     23  1.900                                                                 
     0     -3.3096929     23  1.900                                                                 
     1     -2.7120682     23  1.900                                                                 
     1     13.6058260     23  1.900                                                                 
     2     -2.7211652      7  1.900                                                                 
  local pseudopotential read in
  partial core-charges read in
  partial kinetic energy density read in
  atomic valenz-charges read in
  non local Contribution for L=           0  read in
    real space projection operators read in
  non local Contribution for L=           0  read in
    real space projection operators read in
  non local Contribution for L=           1  read in
    real space projection operators read in
  non local Contribution for L=           1  read in
    real space projection operators read in
    PAW grid and wavefunctions read in
 
   number of l-projection  operators is LMAX  =           4
   number of lm-projection operators is LMMAX =           8
 
 POTCAR:    PAW_PBE Ga_d 06Jul2010                
   SHA256 =  a60ddf36e14f00ea098d9e3914b3745f1b7105e68786148f49ae384e44b4226c Ga_d/POTCAR           
   COPYR  = (c) Copyright 06Jul2010 Georg Kresse                                                    
   COPYR  = This file is part of the software VASP. Any use, copying, and all other rights are regul
   COPYR  = If you do not have a valid VASP license, you may not use, copy or distribute this file. 
   VRHFIN =Ga: s2p1                                                                                 
   LEXCH  = PE                                                                                      
   EATOM  =  2148.8298 eV,  157.9345 Ry                                                             
                                                                                                    
   TITEL  = PAW_PBE Ga_d 06Jul2010                                                                  
   LULTRA =        F    use ultrasoft PP ?                                                          
   IUNSCR =        1    unscreen: 0-lin 1-nonlin 2-no                                               
   RPACOR =    1.700    partial core radius                                                         
   POMASS =   69.723; ZVAL   =   13.000    mass and valenz                                          
   RCORE  =    2.300    outmost cutoff radius                                                       
   RWIGS  =    2.300; RWIGS  =    1.217    wigner-seitz radius (au A)                               
   ENMAX  =  282.691; ENMIN  =  212.018 eV                                                          
   ICORE  =        3    local potential                                                             
   LCOR   =        T    correct aug charges                                                         
   LPAW   =        T    paw PP                                                                      
   EAUG   =  490.690                                                                                
   DEXC   =    0.000                                                                                
   RMAX   =    2.341    core radius for proj-oper                                                   
   RAUG   =    1.300    factor for augmentation sphere                                              
   RDEP   =    2.413    radius for radial grids                                                     
   RDEPT  =    1.856    core radius for aug-charge                                                  
                                                                                                    
   Atomic configuration                                                                             
    9 entries                                                                                       
     n  l   j            E        occ.                                                              
     1  0  0.50    -10228.7831   2.0000                                                             
     2  0  0.50     -1262.1604   2.0000                                                             
     2  1  1.50     -1098.6333   6.0000                                                             
     3  0  0.50      -148.1110   2.0000                                                             
     3  1  1.50       -98.8436   6.0000                                                             
     3  2  2.50       -19.1549  10.0000                                                             
     4  0  0.50        -8.9483   2.0000                                                             
     4  1  0.50        -2.5791   1.0000                                                             
     4  3  2.50        -2.7416   0.0000                                                             
   Description                                                                                      
     l       E           TYP  RCUT    TYP  RCUT                                                     
     2    -19.1549037     23  2.300                                                                 
     2     -5.4423304     23  2.300                                                                 
     0     -8.9483111     23  2.300                                                                 
     0     68.0291300     23  2.300                                                                 
     1     -2.5790802     23  2.100                                                                 
     1     81.6349560     23  2.300                                                                 
     3      6.8029130     23  2.300                                                                 
  local pseudopotential read in
  partial core-charges read in
  partial kinetic energy density read in
  atomic valenz-charges read in
  non local Contribution for L=           2  read in
    real space projection operators read in
  non local Contribution for L=           2  read in
    real space projection operators read in
  non local Contribution for L=           0  read in
    real space projection operators read in
  non local Contribution for L=           0  read in
    real space projection operators read in
  non local Contribution for L=           1  read in
    real space projection operators read in
  non local Contribution for L=           1  read in
    real space projection operators read in
    PAW grid and wavefunctions read in
 
   number of l-projection  operators is LMAX  =           6
   number of lm-projection operators is LMMAX =          18
 
 -----------------------------------------------------------------------------
|                                                                             |
|               ----> ADVICE to this user running VASP <----                  |
|                                                                             |
|     You have a (more or less) 'large supercell' and for larger cells it     |
|     might be more efficient to use real-space projection operators.         |
|     Therefore, try LREAL= Auto in the INCAR file.                           |
|     Mind: For very accurate calculation, you might also keep the            |
|     reciprocal projection scheme (i.e. LREAL=.FALSE.).                      |
|                                                                             |
 -----------------------------------------------------------------------------

  PAW_PBE Ti_sv 26Sep2005               :
 energy of atom  1       EATOM=-1588.0892
 kinetic energy error for atom=    0.0042 (will be added to EATOM!!)
  PAW_PBE Al 04Jan2001                  :
 energy of atom  2       EATOM=  -53.5387
 kinetic energy error for atom=    0.0002 (will be added to EATOM!!)
  PAW_PBE Ga_d 06Jul2010                :
 energy of atom  3       EATOM=-2148.8298
 kinetic energy error for atom=    0.0026 (will be added to EATOM!!)
 
 
 POSCAR: Generated by VASPKIT code
  positions in direct lattice
  No initial velocities read in


 exchange-correlation table for PE
   RHO(1)=    0.500       N(1)  =     2000
   RHO(2)=  100.500       N(2)  =     4000
 


--------------------------------------------------------------------------------------------------------


 ion  position               nearest neighbor table
   1  0.991  0.000  0.331-  17 2.69  21 2.69  26 2.79  30 2.79
   2  0.491  0.000  0.503-  18 2.69  22 2.69  28 2.69  32 2.69  29 2.79  25 2.79  19 2.79  23 2.79

   3  0.759  0.000  0.411-  26 2.69  30 2.69  19 2.69  23 2.69  21 2.79  17 2.79  28 2.79  32 2.79

   4  0.259  0.000  0.583-  25 2.69  29 2.69  20 2.69  24 2.69  22 2.79  18 2.79  27 2.79  31 2.79

   5  0.002  0.500  0.671-  27 2.80  31 2.80  20 2.89  24 2.89
   6  0.502  0.500  0.499-  28 2.80  32 2.80  18 2.84  22 2.84  19 2.89  23 2.89  29 2.95  25 2.95

   7  0.748  0.500  0.415-  23 2.80  19 2.80  26 2.84  30 2.84  28 2.89  32 2.89  21 2.95  17 2.95

   8  0.248  0.500  0.587-  20 2.80  24 2.80  25 2.84  29 2.84  27 2.89  31 2.89  22 2.95  18 2.95

   9  0.252  0.000  0.413-  25 2.85  29 2.85  17 2.96  21 2.96  28 2.96  32 2.96
  10  0.752  0.000  0.585-  19 2.84  23 2.84  22 2.96  18 2.96  27 2.96  31 2.96
  11  0.998  0.000  0.501-  27 2.84  31 2.84  17 2.85  21 2.85  29 2.96  25 2.96  19 2.96  23 2.96

  12  0.498  0.000  0.329-  28 2.84  32 2.84  30 2.96  26 2.96
  13  0.227  0.500  0.422-  34 2.20  29 2.67  25 2.67  21 2.77  17 2.77
  14  0.727  0.500  0.594-  33 2.20  22 2.77  18 2.77
  15  0.023  0.500  0.492-  33 2.20  21 2.67  17 2.67  29 2.77  25 2.77
  16  0.523  0.500  0.664-  18 2.67  22 2.67
  17  0.996  0.243  0.413-  15 2.67   1 2.69  13 2.77   3 2.79  21 2.84  11 2.85   7 2.95   9 2.96
                            21 3.01  26 3.19
  18  0.496  0.243  0.585-  16 2.67   2 2.69  14 2.77   4 2.79   6 2.84  22 2.84   8 2.95  10 2.96
                            22 3.01  25 3.19
  19  0.732  0.214  0.494-  23 2.51  33 2.52   3 2.69   2 2.79   7 2.80  28 2.81  10 2.84   6 2.89
                            11 2.96  23 3.35
  20  0.232  0.214  0.666-  24 2.51   4 2.69   8 2.80  27 2.81   5 2.89  24 3.35
  21  0.996  0.757  0.413-  15 2.67   1 2.69  13 2.77   3 2.79  17 2.84  11 2.85   7 2.95   9 2.96
                            17 3.01  30 3.19
  22  0.496  0.757  0.585-  16 2.67   2 2.69  14 2.77   4 2.79   6 2.84  18 2.84   8 2.95  10 2.96
                            18 3.01  29 3.19
  23  0.732  0.786  0.494-  19 2.51  33 2.52   3 2.69   2 2.79   7 2.80  32 2.81  10 2.84   6 2.89
                            11 2.96  19 3.35
  24  0.232  0.786  0.666-  20 2.51   4 2.69   8 2.80  31 2.81   5 2.89  20 3.35
  25  0.254  0.243  0.501-  13 2.67   4 2.69  15 2.77   2 2.79   8 2.84  29 2.84   9 2.85   6 2.95
                            11 2.96  29 3.01  18 3.19
  26  0.754  0.243  0.329-   3 2.69   1 2.79   7 2.84  30 2.84  12 2.96  30 3.01  17 3.19
  27  0.018  0.214  0.592-  31 2.51  33 2.52   4 2.79   5 2.80  20 2.81  11 2.84   8 2.89  10 2.96
                            31 3.35
  28  0.518  0.214  0.420-  32 2.51  34 2.52   2 2.69   3 2.79   6 2.80  19 2.81  12 2.84   7 2.89
                             9 2.96  32 3.35
  29  0.254  0.757  0.501-  13 2.67   4 2.69  15 2.77   2 2.79   8 2.84  25 2.84   9 2.85   6 2.95
                            11 2.96  25 3.01  22 3.19
  30  0.754  0.757  0.329-   3 2.69   1 2.79   7 2.84  26 2.84  12 2.96  26 3.01  21 3.19
  31  0.018  0.786  0.592-  27 2.51  33 2.52   4 2.79   5 2.80  24 2.81  11 2.84   8 2.89  10 2.96
                            27 3.35
  32  0.518  0.786  0.420-  28 2.51  34 2.52   2 2.69   3 2.79   6 2.80  23 2.81  12 2.84   7 2.89
                             9 2.96  28 3.35
  33  0.875  0.500  0.543-  14 2.20  15 2.20  23 2.52  27 2.52  19 2.52  31 2.52
  34  0.375  0.500  0.371-  13 2.20  28 2.52  32 2.52
 
  LATTYP: Found a simple monoclinic cell.
 ALAT       =    10.1595299535
 B/A-ratio  =     0.5766463142
 C/A-ratio  =     2.7592498170
 COS(beta)  =    -0.1213946104
  
  Lattice vectors:
  
 A1 = (  10.1595299535,   0.0000000000,   0.0000000000)
 A2 = (   0.0000000000,   5.8584555020,   0.0000000000)
 A3 = (  -3.4030164088,   0.0000000000,  27.8253606017)


Analysis of symmetry for initial positions (statically):
=====================================================================
 Subroutine PRICEL returns:
 Original cell was already a primitive cell.
 

 Routine SETGRP: Setting up the symmetry group for a 
 simple monoclinic supercell.


 Subroutine GETGRP returns: Found  2 space group operations
 (whereof  2 operations were pure point group operations)
 out of a pool of  4 trial point group operations.


The static configuration has the point symmetry C_1h.


Analysis of symmetry for dynamics (positions and initial velocities):
=====================================================================
 Subroutine PRICEL returns:
 Original cell was already a primitive cell.
 

 Routine SETGRP: Setting up the symmetry group for a 
 simple monoclinic supercell.


 Subroutine GETGRP returns: Found  2 space group operations
 (whereof  2 operations were pure point group operations)
 out of a pool of  4 trial point group operations.


The dynamic configuration has the point symmetry C_1h.


 Subroutine INISYM returns: Found  2 space group operations
 (whereof  2 operations are pure point group operations),
 and found     1 'primitive' translations


----------------------------------------------------------------------------------------

                                     Primitive cell                                     

  volume of cell :    1656.1419

  direct lattice vectors                    reciprocal lattice vectors
    10.159529953  0.000000000  0.000000000     0.098429751 -0.000000000  0.012037869
     0.000000000  5.858455502  0.000000000     0.000000000  0.170693453 -0.000000000
    -3.403016409  0.000000000 27.825360602     0.000000000  0.000000000  0.035938438

  length of vectors
    10.159529953  5.858455502 28.032681165     0.099163129  0.170693453  0.035938438

  position of ions in fractional coordinates (direct lattice)
     0.990663162  0.000000000  0.331199163
     0.490663162  0.000000000  0.503212114
     0.759336838  0.000000000  0.410781410
     0.259336838  0.000000000  0.582794362
     0.002246433  0.500000000  0.671240120
     0.502246433  0.500000000  0.499227169
     0.747753567  0.500000000  0.414766355
     0.247753567  0.500000000  0.586779307
     0.252246433  0.000000000  0.413220693
     0.752246433  0.000000000  0.585233645
     0.997753567  0.000000000  0.500772831
     0.497753567  0.000000000  0.328759880
     0.226808592  0.500000000  0.421971970
     0.726808592  0.500000000  0.593984921
     0.023191408  0.500000000  0.492021555
     0.523191408  0.500000000  0.664034506
     0.996342655  0.242685310  0.412735303
     0.496342655  0.242685310  0.584748254
     0.731958414  0.213916829  0.493793227
     0.231958414  0.213916829  0.665806178
     0.996342655  0.757314690  0.412735303
     0.496342655  0.757314690  0.584748254
     0.731958414  0.786083171  0.493793227
     0.231958414  0.786083171  0.665806178
     0.253657345  0.242685310  0.501258221
     0.753657345  0.242685310  0.329245270
     0.018041586  0.213916829  0.592213248
     0.518041586  0.213916829  0.420200297
     0.253657345  0.757314690  0.501258221
     0.753657345  0.757314690  0.329245270
     0.018041586  0.786083171  0.592213248
     0.518041586  0.786083171  0.420200297
     0.875000000  0.500000000  0.543003238
     0.375000000  0.500000000  0.370990287

  ion indices of the primitive-cell ions
   primitive index   ion index
                 1           1
                 2           2
                 3           3
                 4           4
                 5           5
                 6           6
                 7           7
                 8           8
                 9           9
                10          10
                11          11
                12          12
                13          13
                14          14
                15          15
                16          16
                17          17
                18          18
                19          19
                20          20
                21          21
                22          22
                23          23
                24          24
                25          25
                26          26
                27          27
                28          28
                29          29
                30          30
                31          31
                32          32
                33          33
                34          34

----------------------------------------------------------------------------------------

 
 
 KPOINTS: K-Spacing Value to Generate K-Mesh: 0.03

Automatic generation of k-mesh.
 Grid dimensions read from file:
 generate k-points for:    3    6    1

 Generating k-lattice:

  Cartesian coordinates                     Fractional coordinates (reciprocal lattice)
     0.032809917 -0.000000000  0.004012623     0.333333333  0.000000000  0.000000000
     0.000000000  0.028448909 -0.000000000     0.000000000  0.166666667  0.000000000
     0.000000000  0.000000000  0.035938438     0.000000000  0.000000000  1.000000000

  Length of vectors
     0.033054376  0.028448909  0.035938438

  Shift w.r.t. Gamma in fractional coordinates (k-lattice)
     0.000000000  0.000000000  0.000000000

 
 Subroutine IBZKPT returns following result:
 ===========================================
 
 Found      8 irreducible k-points:
 
 Following reciprocal coordinates:
            Coordinates               Weight
  0.000000  0.000000  0.000000      1.000000
  0.333333  0.000000  0.000000      2.000000
  0.000000  0.166667  0.000000      2.000000
  0.333333  0.166667  0.000000      4.000000
  0.000000  0.333333  0.000000      2.000000
  0.333333  0.333333  0.000000      4.000000
  0.000000  0.500000  0.000000      1.000000
  0.333333  0.500000  0.000000      2.000000
 
 Following cartesian coordinates:
            Coordinates               Weight
  0.000000  0.000000  0.000000      1.000000
  0.032810  0.000000  0.004013      2.000000
  0.000000  0.028449  0.000000      2.000000
  0.032810  0.028449  0.004013      4.000000
  0.000000  0.056898  0.000000      2.000000
  0.032810  0.056898  0.004013      4.000000
  0.000000  0.085347  0.000000      1.000000
  0.032810  0.085347  0.004013      2.000000
 


--------------------------------------------------------------------------------------------------------




 Dimension of arrays:
   k-points           NKPTS =      8   k-points in BZ     NKDIM =      8   number of bands    NBANDS=    192
   number of dos      NEDOS =    301   number of ions     NIONS =     34
   non local maximal  LDIM  =      6   non local SUM 2l+1 LMDIM =     18
   total plane-waves  NPLWV = 345600
   max r-space proj   IRMAX =      1   max aug-charges    IRDMAX=   8320
   dimension x,y,z NGX =    60 NGY =   36 NGZ =  160
   dimension x,y,z NGXF=   120 NGYF=   72 NGZF=  320
   support grid    NGXF=   120 NGYF=   72 NGZF=  320
   ions per type =              16  16   2
   NGX,Y,Z   is equivalent  to a cutoff of   9.82, 10.22,  9.49 a.u.
   NGXF,Y,Z  is equivalent  to a cutoff of  19.64, 20.43, 18.98 a.u.

 SYSTEM =  unknown system                          
 POSCAR =  Generated by VASPKIT code               

 Startparameter for this run:
   NWRITE =      2    write-flag & timer
   PREC   = n         normal or accurate (medium, high low for compatibility)
   ISTART =      0    job   : 0-new  1-cont  2-samecut
   ICHARG =      2    charge: 1-file 2-atom 10-const
   ISPIN  =      1    spin polarized calculation?
   LNONCOLLINEAR =      F non collinear calculations
   LSORBIT =      F    spin-orbit coupling
   INIWAV =      1    electr: 0-lowe 1-rand  2-diag
   LASPH  =      F    aspherical Exc in radial PAW
 Electronic Relaxation 1
   ENCUT  =  520.0 eV  38.22 Ry    6.18 a.u.  18.89 10.89 52.12*2*pi/ulx,y,z
   ENINI  =  520.0     initial cutoff
   ENAUG  =  490.7 eV  augmentation charge cutoff
   NELM   =    500;   NELMIN=  2; NELMDL= -5     # of ELM steps 
   EDIFF  = 0.1E-04   stopping-criterion for ELM
   LREAL  =      F    real-space projection
   NLSPLINE    = F    spline interpolate recip. space projectors
   LCOMPAT=      F    compatible to vasp.4.4
   GGA_COMPAT  = T    GGA compatible to vasp.4.4-vasp.4.6
   LMAXPAW     = -100 max onsite density
   LMAXMIX     =    2 max onsite mixed and CHGCAR
   VOSKOWN=      0    Vosko Wilk Nusair interpolation
   ROPT   =    0.00000   0.00000   0.00000
 Ionic relaxation
   EDIFFG = -.1E-01   stopping-criterion for IOM
   NSW    =      0    number of steps for IOM
   NBLOCK =      1;   KBLOCK =      1    inner block; outer block 
   IBRION =     -1    ionic relax: 0-MD 1-quasi-New 2-CG
   NFREE  =      0    steps in history (QN), initial steepest desc. (CG)
   ISIF   =      3    stress and relaxation
   IWAVPR =     10    prediction:  0-non 1-charg 2-wave 3-comb
   ISYM   =      2    0-nonsym 1-usesym 2-fastsym
   LCORR  =      T    Harris-Foulkes like correction to forces

   POTIM  = 0.5000    time-step for ionic-motion
   TEIN   =    0.0    initial temperature
   TEBEG  =    0.0;   TEEND  =   0.0 temperature during run
   SMASS  =  -3.00    Nose mass-parameter (am)
   estimated Nose-frequenzy (Omega)   =  0.10E-29 period in steps = 0.13E+47 mass=  -0.236E-26a.u.
   SCALEE = 1.0000    scale energy and forces
   NPACO  =    256;   APACO  = 10.0  distance and # of slots for P.C.
   PSTRESS=    0.0 pullay stress

  Mass of Ions in am
   POMASS =  47.88 26.98 69.72
  Ionic Valenz
   ZVAL   =  12.00  3.00 13.00
  Atomic Wigner-Seitz radii
   RWIGS  =  -1.00 -1.00 -1.00
  virtual crystal weights 
   VCA    =   1.00  1.00  1.00
   NELECT =     266.0000    total number of electrons
   NUPDOWN=      -1.0000    fix difference up-down

 DOS related values:
   EMIN   =  10.00;   EMAX   =-10.00  energy-range for DOS
   EFERMI =   0.00;   METHOD = LEGACY      
   ISMEAR =     1;   SIGMA  =   0.10  broadening in eV -4-tet -1-fermi 0-gaus
   EFERMI_NEDOS =   21; number of points for ismear=-14 and -15

 Electronic relaxation 2 (details)
   IALGO  =     38    algorithm
   LDIAG  =      T    sub-space diagonalisation (order eigenvalues)
   LSUBROT=      F    optimize rotation matrix (better conditioning)
   TURBO    =      0    0=normal 1=particle mesh
   IRESTART =      0    0=no restart 2=restart with 2 vectors
   NREBOOT  =      0    no. of reboots
   NMIN     =      0    reboot dimension
   EREF     =   0.00    reference energy to select bands
   IMIX   =      4    mixing-type and parameters
     AMIX     =   0.40;   BMIX     =  1.00
     AMIX_MAG =   1.60;   BMIX_MAG =  1.00
     AMIN     =   0.10
     WC   =   100.;   INIMIX=   1;  MIXPRE=   1;  MAXMIX= -45

 Intra band minimization:
   WEIMIN = 0.0000     energy-eigenvalue tresh-hold
   EBREAK =  0.13E-07  absolut break condition
   DEPER  =   0.30     relativ break condition  

   TIME   =   0.40     timestep for ELM

  volume/ion in A,a.u.               =      48.71       328.71
  Fermi-wavevector in a.u.,A,eV,Ry     =   0.889890  1.681648 10.774504  0.791904
  Thomas-Fermi vector in A             =   2.011509
 
 Write flags
   LWAVE        =      T    write WAVECAR
   LDOWNSAMPLE  =      F    k-point downsampling of WAVECAR
   LCHARG       =      T    write CHGCAR
   LVTOT        =      F    write LOCPOT, total local potential
   LVHAR        =      T    write LOCPOT, Hartree potential only
   WRT_POTENTIAL=  hartree ionic  ! write potential to hdf5 file
   LELF         =      F    write electronic localiz. function (ELF)
   LORBIT       =      0    0 simple, 1 ext, 2 COOP (PROOUT), +10 PAW based schemes


 Python interface
   PLUGINS active      =      F    recompile with -DPLUGINS to activate
 
 Dipole corrections
   LMONO      =      F    monopole corrections only (constant potential shift)
   LDIPOL     =      F    correct potential (dipole corrections)
   IDIPOL     =      0    1-x, 2-y, 3-z, 4-all directions 
   EPSILON    =  1.0000000 bulk dielectric constant
   LVACPOTAV  =      F  vacuum potentials using an averaging scheme for the charge density
   VACPOTFLAT =  0.1000000 required flatness to determine vacuum potential
 
Coulomb truncation method
  LTRUNCATE          =      F  Coulomb kernel truncation to be used
  IDIMENSIONALITY    =      3  Dimensionality of cutoff (0 molecules / 2 surfaces)
  ISURFACE           =     -1  Direction of surface normal
  LCOARSEN           =      F  Coarsen the charge grid before padding, preferred

 
 Exchange correlation treatment:
   GGA     = PE    functional components
   XC_C    = 1    coefficients multiplying the functional components
   LIBXC   =     F    Libxc                    
   VOSKOWN =     0    Vosko Wilk Nusair interpolation
   LHFCALC =     F    Hartree Fock is set to
   LHFONE  =     F    Hartree Fock one center treatment
   AEXX    =    0.0000 exact exchange contribution

 Parameters of functionals:
   PE:
     No parameter
 
 Van der Waals corrections
   IVDW    =     0    specifies the selected vdW correction

 Linear response parameters
   LEPSILON=     F    determine dielectric tensor
   LRPA    =     F    only Hartree local field effects (RPA)
   LNABLA  =     F    use nabla operator in PAW spheres
   LVEL    =     F    velocity operator in full k-point grid
   CSHIFT  =0.1000    complex shift for real part using Kramers Kronig
   OMEGAMAX=  -1.0    maximum frequency
   DEG_THRESHOLD= 0.2000000E-02 threshold for treating states as degnerate
   RTIME   =   -0.100 relaxation time in fs
  (WPLASMAI=    0.000 imaginary part of plasma frequency in eV, 0.658/RTIME)
   DFIELD  = 0.0000000 0.0000000 0.0000000 field for delta impulse in time
 
  Optional k-point grid parameters
   LKPOINTS_OPT  =     F    use optional k-point grid
   KPOINTS_OPT_MODE=     1    mode for optional k-point grid
 
 Orbital magnetization related:
   ORBITALMAG=     F  switch on orbital magnetization
   LCHIMAG   =     F  perturbation theory with respect to B field
   DQ        =  0.001000  dq finite difference perturbation B field
   LLRAUG    =     F  two centre corrections for induced B field
   LBONE     =     F  B-component reconstruction in AE one-centre
   LVGVCALC  =     T  calculate vGv susceptibility
   LVGVAPPL  =     F  apply vGv susceptibility instead of pGv for G=0

 Random number generation:
   RANDOM_GENERATOR = DEFAULT
   PCG_SEED         = not used


--------------------------------------------------------------------------------------------------------


 Static calculation
 charge density and potential will be updated during run
 non-spin polarized calculation
 Variant of blocked Davidson
 Davidson routine will perform the subspace rotation
 perform sub-space diagonalisation
    after iterative eigenvector-optimisation
 modified Broyden-mixing scheme, WC =      100.0
 initial mixing is a Kerker type mixing with AMIX =  0.4000 and BMIX =      1.0000
 Hartree-type preconditioning will be used
 using additional bands           59
 reciprocal scheme for non local part
 use partial core corrections
 calculate Harris-corrections to forces 
   (improved forces if not selfconsistent)
 use gradient corrections 
 use of overlap-Matrix (Vanderbilt PP)
 Methfessel and Paxton  Order N= 1 SIGMA  =   0.10


--------------------------------------------------------------------------------------------------------


  energy-cutoff  :      520.00
  volume of cell :     1656.14
      direct lattice vectors                 reciprocal lattice vectors
    10.159529953  0.000000000  0.000000000     0.098429751 -0.000000000  0.012037869
     0.000000000  5.858455502  0.000000000     0.000000000  0.170693453 -0.000000000
    -3.403016409  0.000000000 27.825360602     0.000000000  0.000000000  0.035938438

  length of vectors
    10.159529953  5.858455502 28.032681165     0.099163129  0.170693453  0.035938438


 
 k-points in units of 2pi/SCALE and weight: K-Spacing Value to Generate K-Mesh: 0.03
   0.00000000  0.00000000  0.00000000       0.056
   0.03280992  0.00000000  0.00401262       0.111
   0.00000000  0.02844891  0.00000000       0.111
   0.03280992  0.02844891  0.00401262       0.222
   0.00000000  0.05689782  0.00000000       0.111
   0.03280992  0.05689782  0.00401262       0.222
   0.00000000  0.08534673  0.00000000       0.056
   0.03280992  0.08534673  0.00401262       0.111
 
 k-points in reciprocal lattice and weights: K-Spacing Value to Generate K-Mesh: 0.03
   0.00000000  0.00000000  0.00000000       0.056
   0.33333333  0.00000000  0.00000000       0.111
   0.00000000  0.16666667  0.00000000       0.111
   0.33333333  0.16666667  0.00000000       0.222
   0.00000000  0.33333333  0.00000000       0.111
   0.33333333  0.33333333  0.00000000       0.222
   0.00000000  0.50000000  0.00000000       0.056
   0.33333333  0.50000000  0.00000000       0.111
 
 position of ions in fractional coordinates (direct lattice) 
   0.99066316  0.00000000  0.33119916
   0.49066316  0.00000000  0.50321211
   0.75933684  0.00000000  0.41078141
   0.25933684  0.00000000  0.58279436
   0.00224643  0.50000000  0.67124012
   0.50224643  0.50000000  0.49922717
   0.74775357  0.50000000  0.41476636
   0.24775357  0.50000000  0.58677931
   0.25224643  0.00000000  0.41322069
   0.75224643  0.00000000  0.58523364
   0.99775357  0.00000000  0.50077283
   0.49775357  0.00000000  0.32875988
   0.22680859  0.50000000  0.42197197
   0.72680859  0.50000000  0.59398492
   0.02319141  0.50000000  0.49202155
   0.52319141  0.50000000  0.66403451
   0.99634265  0.24268531  0.41273530
   0.49634265  0.24268531  0.58474825
   0.73195841  0.21391683  0.49379323
   0.23195841  0.21391683  0.66580618
   0.99634265  0.75731469  0.41273530
   0.49634265  0.75731469  0.58474825
   0.73195841  0.78608317  0.49379323
   0.23195841  0.78608317  0.66580618
   0.25365735  0.24268531  0.50125822
   0.75365735  0.24268531  0.32924527
   0.01804159  0.21391683  0.59221325
   0.51804159  0.21391683  0.42020030
   0.25365735  0.75731469  0.50125822
   0.75365735  0.75731469  0.32924527
   0.01804159  0.78608317  0.59221325
   0.51804159  0.78608317  0.42020030
   0.87500000  0.50000000  0.54300324
   0.37500000  0.50000000  0.37099029
 
 position of ions in cartesian coordinates  (Angst):
   8.93759588  0.00000000  9.21573614
   3.27246801  0.00000000 14.00205853
   6.31660947  0.00000000 11.43014087
   0.65148160  0.00000000 16.21646327
  -2.26141844  2.92922775 18.67749839
   3.40370943  2.92922775 13.89117600
   6.18536805  2.92922775 11.54102341
   0.52024018  2.92922775 16.32734580
   1.15650839  0.00000000 11.49801480
   5.65091047  0.00000000 16.28433720
   8.43256909  0.00000000 13.93418460
   3.93816701  0.00000000  9.14786221
   0.86829114  2.92922775 11.74152222
   5.36269323  2.92922775 16.52784461
  -1.43874362  2.92922775 13.69067719
   3.05565846  2.92922775 18.47699958
   8.71782804  1.42176109 11.48450864
   3.05270017  1.42176109 16.27083103
   5.75596698  1.25322222 13.73997461
   0.09083911  1.25322222 18.52629700
   8.71782804  4.43669441 11.48450864
   3.05270017  4.43669441 16.27083103
   5.75596698  4.60523328 13.73997461
   0.09083911  4.60523328 18.52629700
   0.87124944  1.42176109 13.94769077
   6.53637731  1.42176109  9.16136837
  -1.83201737  1.25322222 16.47854719
   3.83311050  1.25322222 11.69222479
   0.87124944  4.43669441 13.94769077
   6.53637731  4.43669441  9.16136837
  -1.83201737  4.60523328 16.47854719
   3.83311050  4.60523328 11.69222479
   7.04173978  2.92922775 15.10926090
   2.54733770  2.92922775 10.32293851
 


--------------------------------------------------------------------------------------------------------


 k-point     1 :   0.0000 0.0000 0.0000  plane waves:   44591
 k-point     2 :   0.3333 0.0000 0.0000  plane waves:   44570
 k-point     3 :   0.0000 0.1667 0.0000  plane waves:   44542
 k-point     4 :   0.3333 0.1667 0.0000  plane waves:   44580
 k-point     5 :   0.0000 0.3333 0.0000  plane waves:   44602
 k-point     6 :   0.3333 0.3333 0.0000  plane waves:   44639
 k-point     7 :   0.0000 0.5000 0.0000  plane waves:   44630
 k-point     8 :   0.3333 0.5000 0.0000  plane waves:   44654

 maximum and minimum number of plane-waves per node :     44654    44542

 maximum number of plane-waves:     44654
 maximum index in each direction: 
   IXMAX=   18   IYMAX=   10   IZMAX=   52
   IXMIN=  -19   IYMIN=  -11   IZMIN=  -52


 serial   3D FFT for wavefunctions
 parallel 3D FFT for charge:
    minimum data exchange during FFTs selected (reduces bandwidth)


 total amount of memory used by VASP MPI-rank0   246327. kBytes
=======================================================================

   base                                    :      30000. kBytes
   nonl-proj                               :     178688. kBytes
   fftplans                                :       2940. kBytes
   grid                                    :      16821. kBytes
   one-center                              :        528. kBytes
   wavefun                                 :      17350. kBytes
 
     INWAV:  cpu time      0.0000: real time      0.0000
 Broyden mixing: mesh for mixing (old mesh)
   NGX = 37   NGY = 21   NGZ =105
  (NGX  =120   NGY  = 72   NGZ  =320)
  gives a total of  81585 points

 initial charge density was supplied:
 charge density of overlapping atoms calculated
 number of electron     266.0000000 magnetization 
 keeping initial charge density in first step


--------------------------------------------------------------------------------------------------------


 Maximum index for augmentation-charges          478 (set IRDMAX)


--------------------------------------------------------------------------------------------------------


 First call to EWALD:  gamma=   0.150
 Maximum number of real-space cells   3x   5x   1
 Maximum number of reciprocal cells   2x   2x   6

    FEWALD:  cpu time      0.0017: real time      0.0017


--------------------------------------- Ionic step        1  -------------------------------------------




--------------------------------------- Iteration      1(   1)  ---------------------------------------


    POTLOK:  cpu time      0.0737: real time      0.0737
    SETDIJ:  cpu time      0.0028: real time      0.0028
     EDDAV:  cpu time      6.5322: real time      6.5329
       DOS:  cpu time      0.0004: real time      0.0004
    --------------------------------------------
      LOOP:  cpu time      6.6091: real time      6.6098

 eigenvalue-minimisations  :  3264
 total energy-change (2. order) : 0.2359641E+04  (-0.1307798E+05)
 number of electron     266.0000000 magnetization 
 augmentation part      266.0000000 magnetization 

 Free energy of the ion-electron system (eV)
  ---------------------------------------------------
  alpha Z        PSCENC =       243.40284528
  Ewald energy   TEWEN  =     84592.39660786
  -Hartree energ DENC   =   -110772.22596894
  -exchange      EXHF   =         0.00000000
  -V(xc)+E(xc)   XCENC  =       649.59066885
  PAW double counting   =     24498.55701585   -24341.03228923
  entropy T*S    EENTRO =        -0.00320121
  eigenvalues    EBANDS =     -3074.67398858
  atomic energy  EATOM  =     30563.62952402
  Solvation  Ediel_sol  =         0.00000000
  ---------------------------------------------------
  free energy    TOTEN  =      2359.64121391 eV

  energy without entropy =     2359.64441512  energy(sigma->0) =     2359.64228098


--------------------------------------------------------------------------------------------------------




--------------------------------------- Iteration      1(   2)  ---------------------------------------


     EDDAV:  cpu time      6.7863: real time      6.7865
       DOS:  cpu time      0.0003: real time      0.0003
    --------------------------------------------
      LOOP:  cpu time      6.7866: real time      6.7869

 eigenvalue-minimisations  :  3392
 total energy-change (2. order) :-0.2291196E+04  (-0.2225448E+04)
 number of electron     266.0000000 magnetization 
 augmentation part      266.0000000 magnetization 

 Free energy of the ion-electron system (eV)
  ---------------------------------------------------
  alpha Z        PSCENC =       243.40284528
  Ewald energy   TEWEN  =     84592.39660786
  -Hartree energ DENC   =   -110772.22596894
  -exchange      EXHF   =         0.00000000
  -V(xc)+E(xc)   XCENC  =       649.59066885
  PAW double counting   =     24498.55701585   -24341.03228923
  entropy T*S    EENTRO =        -0.00115928
  eigenvalues    EBANDS =     -5365.87155674
  atomic energy  EATOM  =     30563.62952402
  Solvation  Ediel_sol  =         0.00000000
  ---------------------------------------------------
  free energy    TOTEN  =        68.44568768 eV

  energy without entropy =       68.44684695  energy(sigma->0) =       68.44607410


--------------------------------------------------------------------------------------------------------




--------------------------------------- Iteration      1(   3)  ---------------------------------------


     EDDAV:  cpu time     12.5043: real time     12.5051
       DOS:  cpu time      0.0004: real time      0.0004
    --------------------------------------------
      LOOP:  cpu time     12.5047: real time     12.5055

 eigenvalue-minimisations  :  6016
 total energy-change (2. order) :-0.2537099E+03  (-0.2490177E+03)
 number of electron     266.0000000 magnetization 
 augmentation part      266.0000000 magnetization 

 Free energy of the ion-electron system (eV)
  ---------------------------------------------------
  alpha Z        PSCENC =       243.40284528
  Ewald energy   TEWEN  =     84592.39660786
  -Hartree energ DENC   =   -110772.22596894
  -exchange      EXHF   =         0.00000000
  -V(xc)+E(xc)   XCENC  =       649.59066885
  PAW double counting   =     24498.55701585   -24341.03228923
  entropy T*S    EENTRO =         0.01604356
  eigenvalues    EBANDS =     -5619.59863604
  atomic energy  EATOM  =     30563.62952402
  Solvation  Ediel_sol  =         0.00000000
  ---------------------------------------------------
  free energy    TOTEN  =      -185.26418878 eV

  energy without entropy =     -185.28023234  energy(sigma->0) =     -185.26953664


--------------------------------------------------------------------------------------------------------




--------------------------------------- Iteration      1(   4)  ---------------------------------------


     EDDAV:  cpu time      9.7626: real time      9.7632
       DOS:  cpu time      0.0004: real time      0.0004
    --------------------------------------------
      LOOP:  cpu time      9.7630: real time      9.7636

 eigenvalue-minimisations  :  4864
 total energy-change (2. order) :-0.3568152E+02  (-0.3542446E+02)
 number of electron     266.0000000 magnetization 
 augmentation part      266.0000000 magnetization 

 Free energy of the ion-electron system (eV)
  ---------------------------------------------------
  alpha Z        PSCENC =       243.40284528
  Ewald energy   TEWEN  =     84592.39660786
  -Hartree energ DENC   =   -110772.22596894
  -exchange      EXHF   =         0.00000000
  -V(xc)+E(xc)   XCENC  =       649.59066885
  PAW double counting   =     24498.55701585   -24341.03228923
  entropy T*S    EENTRO =         0.01105969
  eigenvalues    EBANDS =     -5655.27517186
  atomic energy  EATOM  =     30563.62952402
  Solvation  Ediel_sol  =         0.00000000
  ---------------------------------------------------
  free energy    TOTEN  =      -220.94570847 eV

  energy without entropy =     -220.95676817  energy(sigma->0) =     -220.94939504


--------------------------------------------------------------------------------------------------------




--------------------------------------- Iteration      1(   5)  ---------------------------------------


     EDDAV:  cpu time     10.0373: real time     10.0384
       DOS:  cpu time      0.0004: real time      0.0004
    CHARGE:  cpu time      0.1267: real time      0.1267
    MIXING:  cpu time      0.0008: real time      0.0008
    --------------------------------------------
      LOOP:  cpu time     10.1652: real time     10.1663

 eigenvalue-minimisations  :  4992
 total energy-change (2. order) :-0.3451171E+01  (-0.3450843E+01)
 number of electron     265.9999877 magnetization 
 augmentation part       71.4102327 magnetization 

 Broyden mixing:
  rms(total) = 0.40294E+01    rms(broyden)= 0.40294E+01
  rms(prec ) = 0.45245E+01
  weight for this iteration     100.00

 Free energy of the ion-electron system (eV)
  ---------------------------------------------------
  alpha Z        PSCENC =       243.40284528
  Ewald energy   TEWEN  =     84592.39660786
  -Hartree energ DENC   =   -110772.22596894
  -exchange      EXHF   =         0.00000000
  -V(xc)+E(xc)   XCENC  =       649.59066885
  PAW double counting   =     24498.55701585   -24341.03228923
  entropy T*S    EENTRO =         0.01049072
  eigenvalues    EBANDS =     -5658.72577397
  atomic energy  EATOM  =     30563.62952402
  Solvation  Ediel_sol  =         0.00000000
  ---------------------------------------------------
  free energy    TOTEN  =      -224.39687955 eV

  energy without entropy =     -224.40737027  energy(sigma->0) =     -224.40037646


--------------------------------------------------------------------------------------------------------




--------------------------------------- Iteration      1(   6)  ---------------------------------------


    POTLOK:  cpu time      0.0374: real time      0.0374
    SETDIJ:  cpu time      0.0027: real time      0.0027
     EDDAV:  cpu time     10.5513: real time     10.5523
       DOS:  cpu time      0.0004: real time      0.0004
    CHARGE:  cpu time      0.1235: real time      0.1235
    MIXING:  cpu time      0.0009: real time      0.0009
    --------------------------------------------
      LOOP:  cpu time     10.7162: real time     10.7172

 eigenvalue-minimisations  :  5120
 total energy-change (2. order) :-0.6765685E+02  (-0.8086517E+02)
 number of electron     265.9999855 magnetization 
 augmentation part       88.9805303 magnetization 

 Broyden mixing:
  rms(total) = 0.92714E+01    rms(broyden)= 0.92713E+01
  rms(prec ) = 0.10887E+02
  weight for this iteration     100.00

 eigenvalues of (default mixing * dielectric matrix)
  average eigenvalue GAMMA=   0.2584
  0.2584

 Free energy of the ion-electron system (eV)
  ---------------------------------------------------
  alpha Z        PSCENC =       243.40284528
  Ewald energy   TEWEN  =     84592.39660786
  -Hartree energ DENC   =   -110769.87977387
  -exchange      EXHF   =         0.00000000
  -V(xc)+E(xc)   XCENC  =       625.74677983
  PAW double counting   =     26011.35134021   -25872.13609930
  entropy T*S    EENTRO =        -0.00507784
  eigenvalues    EBANDS =     -5686.55987622
  atomic energy  EATOM  =     30563.62952402
  Solvation  Ediel_sol  =         0.00000000
  ---------------------------------------------------
  free energy    TOTEN  =      -292.05373002 eV

  energy without entropy =     -292.04865218  energy(sigma->0) =     -292.05203741


--------------------------------------------------------------------------------------------------------




--------------------------------------- Iteration      1(   7)  ---------------------------------------


    POTLOK:  cpu time      0.0373: real time      0.0373
    SETDIJ:  cpu time      0.0028: real time      0.0028
     EDDAV:  cpu time     10.5634: real time     10.5644
       DOS:  cpu time      0.0004: real time      0.0004
    CHARGE:  cpu time      0.1239: real time      0.1240
    MIXING:  cpu time      0.0009: real time      0.0009
    --------------------------------------------
      LOOP:  cpu time     10.7285: real time     10.7297

 eigenvalue-minimisations  :  5120
 total energy-change (2. order) : 0.8678894E+02  (-0.5265155E+02)
 number of electron     265.9999851 magnetization 
 augmentation part       80.2203192 magnetization 

 Broyden mixing:
  rms(total) = 0.40049E+01    rms(broyden)= 0.40045E+01
  rms(prec ) = 0.47224E+01
  weight for this iteration     100.00

 eigenvalues of (default mixing * dielectric matrix)
  average eigenvalue GAMMA=   0.3801
  0.5679  0.1923

 Free energy of the ion-electron system (eV)
  ---------------------------------------------------
  alpha Z        PSCENC =       243.40284528
  Ewald energy   TEWEN  =     84592.39660786
  -Hartree energ DENC   =   -110601.85494177
  -exchange      EXHF   =         0.00000000
  -V(xc)+E(xc)   XCENC  =       633.51377128
  PAW double counting   =     26361.64788606   -26216.27720752
  entropy T*S    EENTRO =        -0.01508417
  eigenvalues    EBANDS =     -5781.70818631
  atomic energy  EATOM  =     30563.62952402
  Solvation  Ediel_sol  =         0.00000000
  ---------------------------------------------------
  free energy    TOTEN  =      -205.26478527 eV

  energy without entropy =     -205.24970111  energy(sigma->0) =     -205.25975722


--------------------------------------------------------------------------------------------------------




--------------------------------------- Iteration      1(   8)  ---------------------------------------


    POTLOK:  cpu time      0.0369: real time      0.0369
    SETDIJ:  cpu time      0.0029: real time      0.0029
     EDDAV:  cpu time      9.3121: real time      9.3130
       DOS:  cpu time      0.0003: real time      0.0003
    CHARGE:  cpu time      0.1239: real time      0.1239
    MIXING:  cpu time      0.0009: real time      0.0009
    --------------------------------------------
      LOOP:  cpu time      9.4770: real time      9.4779

 eigenvalue-minimisations  :  4608
 total energy-change (2. order) : 0.1327780E+02  (-0.1716101E+02)
 number of electron     265.9999868 magnetization 
 augmentation part       75.7381614 magnetization 

 Broyden mixing:
  rms(total) = 0.28182E+01    rms(broyden)= 0.28180E+01
  rms(prec ) = 0.31647E+01
  weight for this iteration     100.00

 eigenvalues of (default mixing * dielectric matrix)
  average eigenvalue GAMMA=   0.4148
  0.8033  0.2205  0.2205

 Free energy of the ion-electron system (eV)
  ---------------------------------------------------
  alpha Z        PSCENC =       243.40284528
  Ewald energy   TEWEN  =     84592.39660786
  -Hartree energ DENC   =   -110862.99237953
  -exchange      EXHF   =         0.00000000
  -V(xc)+E(xc)   XCENC  =       638.10599289
  PAW double counting   =     26980.56981084   -26827.80039027
  entropy T*S    EENTRO =        -0.01075649
  eigenvalues    EBANDS =     -5519.28823631
  atomic energy  EATOM  =     30563.62952402
  Solvation  Ediel_sol  =         0.00000000
  ---------------------------------------------------
  free energy    TOTEN  =      -191.98698171 eV

  energy without entropy =     -191.97622521  energy(sigma->0) =     -191.98339621


--------------------------------------------------------------------------------------------------------




--------------------------------------- Iteration      1(   9)  ---------------------------------------


    POTLOK:  cpu time      0.0368: real time      0.0368
    SETDIJ:  cpu time      0.0027: real time      0.0027
     EDDAV:  cpu time      9.3279: real time      9.3282
       DOS:  cpu time      0.0004: real time      0.0004
    CHARGE:  cpu time      0.1240: real time      0.1240
    MIXING:  cpu time      0.0009: real time      0.0009
    --------------------------------------------
      LOOP:  cpu time      9.4927: real time      9.4930

 eigenvalue-minimisations  :  4608
 total energy-change (2. order) : 0.8498352E+01  (-0.6210880E+01)
 number of electron     265.9999872 magnetization 
 augmentation part       74.1518349 magnetization 

 Broyden mixing:
  rms(total) = 0.16485E+01    rms(broyden)= 0.16484E+01
  rms(prec ) = 0.20850E+01
  weight for this iteration     100.00

 eigenvalues of (default mixing * dielectric matrix)
  average eigenvalue GAMMA=   0.4388
  1.0227  0.1900  0.2713  0.2713

 Free energy of the ion-electron system (eV)
  ---------------------------------------------------
  alpha Z        PSCENC =       243.40284528
  Ewald energy   TEWEN  =     84592.39660786
  -Hartree energ DENC   =   -110878.44907995
  -exchange      EXHF   =         0.00000000
  -V(xc)+E(xc)   XCENC  =       638.23552824
  PAW double counting   =     27383.30680067   -27226.40318402
  entropy T*S    EENTRO =        -0.00344117
  eigenvalues    EBANDS =     -5499.60423040
  atomic energy  EATOM  =     30563.62952402
  Solvation  Ediel_sol  =         0.00000000
  ---------------------------------------------------
  free energy    TOTEN  =      -183.48862948 eV

  energy without entropy =     -183.48518830  energy(sigma->0) =     -183.48748242


--------------------------------------------------------------------------------------------------------




--------------------------------------- Iteration      1(  10)  ---------------------------------------


    POTLOK:  cpu time      0.0363: real time      0.0363
    SETDIJ:  cpu time      0.0025: real time      0.0025
     EDDAV:  cpu time      9.3045: real time      9.3050
       DOS:  cpu time      0.0004: real time      0.0004
    CHARGE:  cpu time      0.1250: real time      0.1250
    MIXING:  cpu time      0.0009: real time      0.0009
    --------------------------------------------
      LOOP:  cpu time      9.4695: real time      9.4700

 eigenvalue-minimisations  :  4608
 total energy-change (2. order) : 0.1274299E+01  (-0.4087039E+01)
 number of electron     265.9999863 magnetization 
 augmentation part       74.8780339 magnetization 

 Broyden mixing:
  rms(total) = 0.15206E+01    rms(broyden)= 0.15205E+01
  rms(prec ) = 0.21974E+01
  weight for this iteration     100.00

 eigenvalues of (default mixing * dielectric matrix)
  average eigenvalue GAMMA=   0.4258
  1.2054  0.3085  0.3085  0.1925  0.1140

 Free energy of the ion-electron system (eV)
  ---------------------------------------------------
  alpha Z        PSCENC =       243.40284528
  Ewald energy   TEWEN  =     84592.39660786
  -Hartree energ DENC   =   -110836.01702117
  -exchange      EXHF   =         0.00000000
  -V(xc)+E(xc)   XCENC  =       636.94461359
  PAW double counting   =     27592.21935570   -27433.09389682
  entropy T*S    EENTRO =        -0.01595091
  eigenvalues    EBANDS =     -5541.68040780
  atomic energy  EATOM  =     30563.62952402
  Solvation  Ediel_sol  =         0.00000000
  ---------------------------------------------------
  free energy    TOTEN  =      -182.21433025 eV

  energy without entropy =     -182.19837935  energy(sigma->0) =     -182.20901328


--------------------------------------------------------------------------------------------------------




--------------------------------------- Iteration      1(  11)  ---------------------------------------


    POTLOK:  cpu time      0.0376: real time      0.0377
    SETDIJ:  cpu time      0.0024: real time      0.0024
     EDDAV:  cpu time      9.2428: real time      9.2433
       DOS:  cpu time      0.0004: real time      0.0004
    CHARGE:  cpu time      0.1260: real time      0.1260
    MIXING:  cpu time      0.0010: real time      0.0010
    --------------------------------------------
      LOOP:  cpu time      9.4102: real time      9.4107

 eigenvalue-minimisations  :  4544
 total energy-change (2. order) : 0.3011807E+01  (-0.2635378E+01)
 number of electron     265.9999865 magnetization 
 augmentation part       75.2241355 magnetization 

 Broyden mixing:
  rms(total) = 0.11046E+01    rms(broyden)= 0.11045E+01
  rms(prec ) = 0.13467E+01
  weight for this iteration     100.00

 eigenvalues of (default mixing * dielectric matrix)
  average eigenvalue GAMMA=   0.4674
  1.5353  0.3855  0.3855  0.2011  0.2011  0.0963

 Free energy of the ion-electron system (eV)
  ---------------------------------------------------
  alpha Z        PSCENC =       243.40284528
  Ewald energy   TEWEN  =     84592.39660786
  -Hartree energ DENC   =   -110802.19669131
  -exchange      EXHF   =         0.00000000
  -V(xc)+E(xc)   XCENC  =       635.62538278
  PAW double counting   =     27815.33472571   -27653.34104777
  entropy T*S    EENTRO =         0.00479303
  eigenvalues    EBANDS =     -5574.05866319
  atomic energy  EATOM  =     30563.62952402
  Solvation  Ediel_sol  =         0.00000000
  ---------------------------------------------------
  free energy    TOTEN  =      -179.20252360 eV

  energy without entropy =     -179.20731663  energy(sigma->0) =     -179.20412128


--------------------------------------------------------------------------------------------------------




--------------------------------------- Iteration      1(  12)  ---------------------------------------


    POTLOK:  cpu time      0.0368: real time      0.0368
    SETDIJ:  cpu time      0.0025: real time      0.0025
     EDDAV:  cpu time      9.4023: real time      9.4024
       DOS:  cpu time      0.0004: real time      0.0004
    CHARGE:  cpu time      0.1250: real time      0.1250
    MIXING:  cpu time      0.0011: real time      0.0010
    --------------------------------------------
      LOOP:  cpu time      9.5680: real time      9.5681

 eigenvalue-minimisations  :  4608
 total energy-change (2. order) : 0.1215759E+01  (-0.1091928E+01)
 number of electron     265.9999861 magnetization 
 augmentation part       76.1678828 magnetization 

 Broyden mixing:
  rms(total) = 0.85002E+00    rms(broyden)= 0.84997E+00
  rms(prec ) = 0.99641E+00
  weight for this iteration     100.00

 eigenvalues of (default mixing * dielectric matrix)
  average eigenvalue GAMMA=   0.4952
  1.7294  0.5815  0.4267  0.2269  0.2269  0.1819  0.0932

 Free energy of the ion-electron system (eV)
  ---------------------------------------------------
  alpha Z        PSCENC =       243.40284528
  Ewald energy   TEWEN  =     84592.39660786
  -Hartree energ DENC   =   -110783.16860668
  -exchange      EXHF   =         0.00000000
  -V(xc)+E(xc)   XCENC  =       634.11425905
  PAW double counting   =     28165.37219624   -27997.81122288
  entropy T*S    EENTRO =        -0.00833691
  eigenvalues    EBANDS =     -5595.91403038
  atomic energy  EATOM  =     30563.62952402
  Solvation  Ediel_sol  =         0.00000000
  ---------------------------------------------------
  free energy    TOTEN  =      -177.98676440 eV

  energy without entropy =     -177.97842749  energy(sigma->0) =     -177.98398543


--------------------------------------------------------------------------------------------------------




--------------------------------------- Iteration      1(  13)  ---------------------------------------


    POTLOK:  cpu time      0.0361: real time      0.0361
    SETDIJ:  cpu time      0.0027: real time      0.0027
     EDDAV:  cpu time      9.2226: real time      9.2243
       DOS:  cpu time      0.0004: real time      0.0004
    CHARGE:  cpu time      0.1263: real time      0.1263
    MIXING:  cpu time      0.0011: real time      0.0011
    --------------------------------------------
      LOOP:  cpu time      9.3892: real time      9.3909

 eigenvalue-minimisations  :  4608
 total energy-change (2. order) : 0.5248400E+00  (-0.7195474E+00)
 number of electron     265.9999861 magnetization 
 augmentation part       76.6389988 magnetization 

 Broyden mixing:
  rms(total) = 0.69911E+00    rms(broyden)= 0.69908E+00
  rms(prec ) = 0.79409E+00
  weight for this iteration     100.00

 eigenvalues of (default mixing * dielectric matrix)
  average eigenvalue GAMMA=   0.5241
  1.7998  0.9998  0.3630  0.3630  0.2079  0.2079  0.1596  0.0921

 Free energy of the ion-electron system (eV)
  ---------------------------------------------------
  alpha Z        PSCENC =       243.40284528
  Ewald energy   TEWEN  =     84592.39660786
  -Hartree energ DENC   =   -110808.00879680
  -exchange      EXHF   =         0.00000000
  -V(xc)+E(xc)   XCENC  =       633.63325908
  PAW double counting   =     28472.81167683   -28298.16280037
  entropy T*S    EENTRO =        -0.00474006
  eigenvalues    EBANDS =     -5577.15950023
  atomic energy  EATOM  =     30563.62952402
  Solvation  Ediel_sol  =         0.00000000
  ---------------------------------------------------
  free energy    TOTEN  =      -177.46192440 eV

  energy without entropy =     -177.45718434  energy(sigma->0) =     -177.46034438


--------------------------------------------------------------------------------------------------------




--------------------------------------- Iteration      1(  14)  ---------------------------------------


    POTLOK:  cpu time      0.0373: real time      0.0373
    SETDIJ:  cpu time      0.0024: real time      0.0024
     EDDAV:  cpu time      9.3993: real time      9.3996
       DOS:  cpu time      0.0004: real time      0.0004
    CHARGE:  cpu time      0.1259: real time      0.1259
    MIXING:  cpu time      0.0010: real time      0.0010
    --------------------------------------------
      LOOP:  cpu time      9.5662: real time      9.5665

 eigenvalue-minimisations  :  4608
 total energy-change (2. order) : 0.9794675E-01  (-0.4913799E+00)
 number of electron     265.9999860 magnetization 
 augmentation part       76.5328086 magnetization 

 Broyden mixing:
  rms(total) = 0.69367E+00    rms(broyden)= 0.69363E+00
  rms(prec ) = 0.79913E+00
  weight for this iteration     100.00

 eigenvalues of (default mixing * dielectric matrix)
  average eigenvalue GAMMA=   0.5391
  1.5498  1.5498  0.4543  0.4543  0.2223  0.2223  0.1831  0.0923  0.1239

 Free energy of the ion-electron system (eV)
  ---------------------------------------------------
  alpha Z        PSCENC =       243.40284528
  Ewald energy   TEWEN  =     84592.39660786
  -Hartree energ DENC   =   -110834.60699116
  -exchange      EXHF   =         0.00000000
  -V(xc)+E(xc)   XCENC  =       633.78977283
  PAW double counting   =     28600.48281196   -28421.05937452
  entropy T*S    EENTRO =        -0.00438360
  eigenvalues    EBANDS =     -5555.39479032
  atomic energy  EATOM  =     30563.62952402
  Solvation  Ediel_sol  =         0.00000000
  ---------------------------------------------------
  free energy    TOTEN  =      -177.36397764 eV

  energy without entropy =     -177.35959405  energy(sigma->0) =     -177.36251644


--------------------------------------------------------------------------------------------------------




--------------------------------------- Iteration      1(  15)  ---------------------------------------


    POTLOK:  cpu time      0.0363: real time      0.0363
    SETDIJ:  cpu time      0.0023: real time      0.0023
     EDDAV:  cpu time      9.3906: real time      9.3913
       DOS:  cpu time      0.0004: real time      0.0004
    CHARGE:  cpu time      0.1249: real time      0.1249
    MIXING:  cpu time      0.0011: real time      0.0011
    --------------------------------------------
      LOOP:  cpu time      9.5557: real time      9.5563

 eigenvalue-minimisations  :  4608
 total energy-change (2. order) :-0.1313030E+00  (-0.5090220E+00)
 number of electron     265.9999861 magnetization 
 augmentation part       76.4069115 magnetization 

 Broyden mixing:
  rms(total) = 0.75920E+00    rms(broyden)= 0.75914E+00
  rms(prec ) = 0.86783E+00
  weight for this iteration     100.00

 eigenvalues of (default mixing * dielectric matrix)
  average eigenvalue GAMMA=   0.5929
  1.9195  1.9195  0.5304  0.5304  0.2433  0.2145  0.2145  0.1595  0.0927  0.1050

 Free energy of the ion-electron system (eV)
  ---------------------------------------------------
  alpha Z        PSCENC =       243.40284528
  Ewald energy   TEWEN  =     84592.39660786
  -Hartree energ DENC   =   -110848.07186234
  -exchange      EXHF   =         0.00000000
  -V(xc)+E(xc)   XCENC  =       634.15989239
  PAW double counting   =     28653.27284654   -28469.13983929
  entropy T*S    EENTRO =        -0.00898667
  eigenvalues    EBANDS =     -5547.13630839
  atomic energy  EATOM  =     30563.62952402
  Solvation  Ediel_sol  =         0.00000000
  ---------------------------------------------------
  free energy    TOTEN  =      -177.49528059 eV

  energy without entropy =     -177.48629392  energy(sigma->0) =     -177.49228504


--------------------------------------------------------------------------------------------------------




--------------------------------------- Iteration      1(  16)  ---------------------------------------


    POTLOK:  cpu time      0.0369: real time      0.0370
    SETDIJ:  cpu time      0.0028: real time      0.0028
     EDDAV:  cpu time      9.3066: real time      9.3067
       DOS:  cpu time      0.0004: real time      0.0004
    CHARGE:  cpu time      0.1253: real time      0.1253
    MIXING:  cpu time      0.0011: real time      0.0011
    --------------------------------------------
      LOOP:  cpu time      9.4731: real time      9.4734

 eigenvalue-minimisations  :  4608
 total energy-change (2. order) : 0.1558147E+00  (-0.3743990E+00)
 number of electron     265.9999862 magnetization 
 augmentation part       76.0122115 magnetization 

 Broyden mixing:
  rms(total) = 0.53992E+00    rms(broyden)= 0.53984E+00
  rms(prec ) = 0.65650E+00
  weight for this iteration     100.00

 eigenvalues of (default mixing * dielectric matrix)
  average eigenvalue GAMMA=   0.5833
  2.0042  2.0042  0.5962  0.4603  0.3773  0.2202  0.2202  0.1822  0.1528  0.0924
  0.1065

 Free energy of the ion-electron system (eV)
  ---------------------------------------------------
  alpha Z        PSCENC =       243.40284528
  Ewald energy   TEWEN  =     84592.39660786
  -Hartree energ DENC   =   -110867.19923033
  -exchange      EXHF   =         0.00000000
  -V(xc)+E(xc)   XCENC  =       634.85165128
  PAW double counting   =     28681.36564656   -28490.68280676
  entropy T*S    EENTRO =        -0.01273644
  eigenvalues    EBANDS =     -5535.09096732
  atomic energy  EATOM  =     30563.62952402
  Solvation  Ediel_sol  =         0.00000000
  ---------------------------------------------------
  free energy    TOTEN  =      -177.33946585 eV

  energy without entropy =     -177.32672941  energy(sigma->0) =     -177.33522037


--------------------------------------------------------------------------------------------------------




--------------------------------------- Iteration      1(  17)  ---------------------------------------


    POTLOK:  cpu time      0.0366: real time      0.0366
    SETDIJ:  cpu time      0.0025: real time      0.0025
     EDDAV:  cpu time      9.3695: real time      9.3698
       DOS:  cpu time      0.0004: real time      0.0004
    CHARGE:  cpu time      0.1416: real time      0.1416
    MIXING:  cpu time      0.0011: real time      0.0011
    --------------------------------------------
      LOOP:  cpu time      9.5517: real time      9.5520

 eigenvalue-minimisations  :  4608
 total energy-change (2. order) : 0.2092460E+00  (-0.1517948E+00)
 number of electron     265.9999862 magnetization 
 augmentation part       76.0830290 magnetization 

 Broyden mixing:
  rms(total) = 0.33336E+00    rms(broyden)= 0.33334E+00
  rms(prec ) = 0.39249E+00
  weight for this iteration     100.00

 eigenvalues of (default mixing * dielectric matrix)
  average eigenvalue GAMMA=   0.5792
  2.0203  2.0203  0.7988  0.4764  0.4764  0.2254  0.2254  0.1942  0.1719  0.1441
  0.0924  0.1051

 Free energy of the ion-electron system (eV)
  ---------------------------------------------------
  alpha Z        PSCENC =       243.40284528
  Ewald energy   TEWEN  =     84592.39660786
  -Hartree energ DENC   =   -110877.74220577
  -exchange      EXHF   =         0.00000000
  -V(xc)+E(xc)   XCENC  =       634.85174751
  PAW double counting   =     28722.89414927   -28529.86638863
  entropy T*S    EENTRO =        -0.00979136
  eigenvalues    EBANDS =     -5526.68670806
  atomic energy  EATOM  =     30563.62952402
  Solvation  Ediel_sol  =         0.00000000
  ---------------------------------------------------
  free energy    TOTEN  =      -177.13021990 eV

  energy without entropy =     -177.12042853  energy(sigma->0) =     -177.12695611


--------------------------------------------------------------------------------------------------------




--------------------------------------- Iteration      1(  18)  ---------------------------------------


    POTLOK:  cpu time      0.0367: real time      0.0367
    SETDIJ:  cpu time      0.0028: real time      0.0028
     EDDAV:  cpu time      9.3317: real time      9.3318
       DOS:  cpu time      0.0004: real time      0.0004
    CHARGE:  cpu time      0.1258: real time      0.1258
    MIXING:  cpu time      0.0012: real time      0.0012
    --------------------------------------------
      LOOP:  cpu time      9.4986: real time      9.4987

 eigenvalue-minimisations  :  4608
 total energy-change (2. order) : 0.4975988E-01  (-0.1009785E+00)
 number of electron     265.9999861 magnetization 
 augmentation part       76.2281906 magnetization 

 Broyden mixing:
  rms(total) = 0.27788E+00    rms(broyden)= 0.27786E+00
  rms(prec ) = 0.32042E+00
  weight for this iteration     100.00

 eigenvalues of (default mixing * dielectric matrix)
  average eigenvalue GAMMA=   0.5631
  2.0361  2.0361  0.9136  0.4867  0.4867  0.2723  0.2202  0.2202  0.1834  0.1519
  0.0924  0.1102  0.1102

 Free energy of the ion-electron system (eV)
  ---------------------------------------------------
  alpha Z        PSCENC =       243.40284528
  Ewald energy   TEWEN  =     84592.39660786
  -Hartree energ DENC   =   -110885.54124956
  -exchange      EXHF   =         0.00000000
  -V(xc)+E(xc)   XCENC  =       634.83885454
  PAW double counting   =     28744.81545508   -28550.23874205
  entropy T*S    EENTRO =        -0.01436667
  eigenvalues    EBANDS =     -5520.36938852
  atomic energy  EATOM  =     30563.62952402
  Solvation  Ediel_sol  =         0.00000000
  ---------------------------------------------------
  free energy    TOTEN  =      -177.08046002 eV

  energy without entropy =     -177.06609334  energy(sigma->0) =     -177.07567113


--------------------------------------------------------------------------------------------------------




--------------------------------------- Iteration      1(  19)  ---------------------------------------


    POTLOK:  cpu time      0.0360: real time      0.0360
    SETDIJ:  cpu time      0.0024: real time      0.0024
     EDDAV:  cpu time      9.3748: real time      9.3750
       DOS:  cpu time      0.0004: real time      0.0004
    CHARGE:  cpu time      0.1241: real time      0.1242
    MIXING:  cpu time      0.0013: real time      0.0013
    --------------------------------------------
      LOOP:  cpu time      9.5390: real time      9.5393

 eigenvalue-minimisations  :  4608
 total energy-change (2. order) : 0.4160496E-01  (-0.3664211E-01)
 number of electron     265.9999862 magnetization 
 augmentation part       76.2119995 magnetization 

 Broyden mixing:
  rms(total) = 0.13166E+00    rms(broyden)= 0.13165E+00
  rms(prec ) = 0.15090E+00
  weight for this iteration     100.00

 eigenvalues of (default mixing * dielectric matrix)
  average eigenvalue GAMMA=   0.6053
  2.4709  1.7715  1.2775  0.7150  0.4669  0.4669  0.2254  0.2254  0.2117  0.1838
  0.1516  0.0924  0.1075  0.1075

 Free energy of the ion-electron system (eV)
  ---------------------------------------------------
  alpha Z        PSCENC =       243.40284528
  Ewald energy   TEWEN  =     84592.39660786
  -Hartree energ DENC   =   -110890.23261486
  -exchange      EXHF   =         0.00000000
  -V(xc)+E(xc)   XCENC  =       634.89023957
  PAW double counting   =     28748.95004016   -28553.55100926
  entropy T*S    EENTRO =        -0.01227235
  eigenvalues    EBANDS =     -5516.51221547
[...]
     86      -4.6950      2.00000
     87      -4.4626      2.00000
     88      -4.3258      2.00000
     89      -4.1920      2.00000
     90      -3.8602      2.00000
     91      -3.3446      2.00000
     92      -2.8642      2.00000
     93      -2.5389      2.00000
     94      -2.4865      2.00000
     95      -2.1581      2.00000
     96      -2.1245      2.00000
     97      -1.9969      2.00000
     98      -1.9564      2.00000
     99      -1.7002      2.00000
    100      -1.6786      2.00000
    101      -1.4883      2.00000
    102      -1.3886      2.00000
    103      -1.1910      2.00000
    104      -1.1263      2.00000
    105      -0.9473      2.00000
    106      -0.9358      2.00000
    107      -0.8296      2.00000
    108      -0.7882      2.00000
    109      -0.7482      2.00000
    110      -0.6255      2.00000
    111      -0.6127      2.00000
    112      -0.5075      2.00000
    113      -0.4710      2.00000
    114      -0.3534      2.00000
    115      -0.2902      2.00000
    116      -0.2720      2.00000
    117      -0.1840      2.00000
    118      -0.1139      2.00000
    119      -0.0971      2.00000
    120      -0.0641      2.00000
    121      -0.0440      2.00000
    122       0.0593      2.00000
    123       0.1726      2.00000
    124       0.2191      2.00001
    125       0.3382      2.00467
    126       0.3728      2.01652
    127       0.4023      2.03750
    128       0.4785      2.03335
    129       0.5147      1.81298
    130       0.5570      1.24750
    131       0.6003      0.53894
    132       0.6204      0.27503
    133       0.6566     -0.00261
    134       0.6578     -0.00783
    135       0.6744     -0.05519
    136       0.7261     -0.05142
    137       0.7676     -0.01829
    138       0.8015     -0.00546
    139       0.8339     -0.00133
    140       0.8475     -0.00068
    141       0.8840     -0.00009
    142       0.8859     -0.00008
    143       0.9512     -0.00000
    144       0.9670     -0.00000
    145       1.0323     -0.00000
    146       1.0707     -0.00000
    147       1.0946     -0.00000
    148       1.1092     -0.00000
    149       1.1414     -0.00000
    150       1.1925     -0.00000
    151       1.2023     -0.00000
    152       1.2199     -0.00000
    153       1.2804     -0.00000
    154       1.2965     -0.00000
    155       1.3062     -0.00000
    156       1.3472     -0.00000
    157       1.3874     -0.00000
    158       1.3918     -0.00000
    159       1.4233     -0.00000
    160       1.4720     -0.00000
    161       1.5212     -0.00000
    162       1.5312     -0.00000
    163       1.5708     -0.00000
    164       1.5892     -0.00000
    165       1.6507     -0.00000
    166       1.6655     -0.00000
    167       1.7472     -0.00000
    168       1.7495     -0.00000
    169       1.8103     -0.00000
    170       1.8291     -0.00000
    171       1.9035     -0.00000
    172       1.9210     -0.00000
    173       1.9704     -0.00000
    174       1.9822     -0.00000
    175       2.0729     -0.00000
    176       2.0873     -0.00000
    177       2.1804     -0.00000
    178       2.2489     -0.00000
    179       2.3058     -0.00000
    180       2.3229     -0.00000
    181       2.4024     -0.00000
    182       2.5268     -0.00000
    183       2.6333      0.00000
    184       2.6784      0.00000
    185       2.7801      0.00000
    186       2.7922      0.00000
    187       3.0191      0.00000
    188       3.0784      0.00000
    189       3.1429      0.00000
    190       3.3398      0.00000
    191       3.4112      0.00000
    192       3.4418      0.00000


--------------------------------------------------------------------------------------------------------


 soft charge-density along one line, spin component           1
         0         1         2         3         4         5         6         7         8         9
 total charge-density along one line
 
 pseudopotential strength for first ion, spin component:           1
 -2.801 -24.140  -0.000  -0.026   0.023   0.000   0.006  -0.009
-24.140  11.346  -0.000   0.028  -0.018  -0.000  -0.004   0.003
 -0.000  -0.000 -27.661   0.000   0.000  10.696  -0.000  -0.000
 -0.026   0.028   0.000 -27.606   0.024  -0.000  10.661  -0.017
  0.023  -0.018   0.000   0.024 -27.568  -0.000  -0.017  10.634
  0.000  -0.000  10.696  -0.000  -0.000   4.972   0.000   0.000
  0.006  -0.004  -0.000  10.661  -0.017   0.000   4.992   0.002
 -0.009   0.003  -0.000  -0.017  10.634   0.000   0.002   4.996
  0.000   0.000   0.010   0.000  -0.000  -0.006  -0.000   0.000
  0.000   0.000  -0.006  -0.000   0.000   0.004   0.000  -0.000
  0.006  -0.004   0.000  -0.006  -0.006  -0.000   0.004   0.004
  0.013   0.012   0.000   0.005   0.002  -0.000  -0.003  -0.000
  0.033   0.009   0.000   0.004   0.004  -0.000  -0.002  -0.004
  0.000   0.000   0.013   0.000  -0.000  -0.009  -0.000   0.000
  0.000   0.000  -0.008  -0.000   0.000   0.007   0.000  -0.000
  0.008  -0.005   0.000  -0.009  -0.007  -0.000   0.007   0.005
  0.017   0.014   0.000   0.006   0.001  -0.000  -0.005   0.002
  0.041   0.010   0.000   0.005   0.006  -0.000  -0.002  -0.006
 total augmentation occupancy for first ion, spin component:           1
  1.996  -0.046  -0.000  -0.004   0.003  -0.000  -0.009   0.006  -0.000   0.000   0.010  -0.005   0.010   0.000  -0.000  -0.009
 -0.046   1.298  -0.000  -0.031   0.021   0.000   0.093  -0.074  -0.000   0.000   0.000   0.168   0.150   0.000  -0.000  -0.054
 -0.000  -0.000   1.986   0.000   0.000  -0.032  -0.000  -0.000   0.028  -0.046  -0.000  -0.000   0.000  -0.021   0.033   0.000
 -0.004  -0.031   0.000   1.987  -0.001  -0.000  -0.029  -0.002   0.000  -0.000  -0.053   0.040  -0.006  -0.000   0.000   0.038
  0.003   0.021   0.000  -0.001   1.986  -0.000  -0.002  -0.033  -0.000  -0.000  -0.015  -0.061   0.036   0.000   0.000   0.010
 -0.000   0.000  -0.032  -0.000  -0.000   0.048   0.000   0.000  -0.126   0.157   0.000   0.000  -0.000   0.041  -0.063  -0.000
 -0.009   0.093  -0.000  -0.029  -0.002   0.000   0.054   0.013  -0.000   0.000   0.187  -0.076  -0.043   0.000  -0.000  -0.077
  0.006  -0.074  -0.000  -0.002  -0.033   0.000   0.013   0.061  -0.000   0.000   0.094   0.109  -0.088   0.000  -0.000  -0.042
 -0.000  -0.000   0.028   0.000  -0.000  -0.126  -0.000  -0.000   1.273   0.102  -0.000   0.000   0.000  -0.374   0.015   0.000
  0.000   0.000  -0.046  -0.000  -0.000   0.157   0.000   0.000   0.102   1.394   0.000   0.000  -0.000   0.012  -0.420  -0.000
  0.010   0.000  -0.000  -0.053  -0.015   0.000   0.187   0.094  -0.000   0.000   1.215  -0.084  -0.350   0.000  -0.000  -0.451
 -0.005   0.168  -0.000   0.040  -0.061   0.000  -0.076   0.109   0.000   0.000  -0.084   1.192  -0.087  -0.000  -0.000   0.015
  0.010   0.150   0.000  -0.006   0.036  -0.000  -0.043  -0.088   0.000  -0.000  -0.350  -0.087   0.760  -0.000   0.000   0.137
  0.000   0.000  -0.021  -0.000   0.000   0.041   0.000   0.000  -0.374   0.012   0.000  -0.000  -0.000   0.158  -0.026  -0.000
 -0.000  -0.000   0.033   0.000   0.000  -0.063  -0.000  -0.000   0.015  -0.420  -0.000  -0.000   0.000  -0.026   0.170   0.000
 -0.009  -0.054   0.000   0.038   0.010  -0.000  -0.077  -0.042   0.000  -0.000  -0.451   0.015   0.137  -0.000   0.000   0.212
  0.003  -0.022   0.000  -0.029   0.044  -0.000   0.024  -0.044  -0.000  -0.000   0.020  -0.368   0.019   0.000   0.000  -0.010
 -0.012  -0.069  -0.000   0.005  -0.026   0.000   0.019   0.044  -0.000   0.000   0.139   0.015  -0.225   0.000  -0.000  -0.070


------------------------ aborting loop because EDIFF is reached ----------------------------------------


    CHARGE:  cpu time      0.1244: real time      0.1244
    FORLOC:  cpu time      0.0036: real time      0.0036
    FORNL :  cpu time      3.1401: real time      3.1402
    STRESS:  cpu time      6.7578: real time      6.7579
    FORCOR:  cpu time      0.0314: real time      0.0314
    FORHAR:  cpu time      0.0091: real time      0.0091
    MIXING:  cpu time      0.0024: real time      0.0024
    OFIELD:  cpu time      0.0000: real time      0.0000

  FORCE on cell =-STRESS in cart. coord.  units (eV):
  Direction    XX          YY          ZZ          XY          YZ          ZX
  --------------------------------------------------------------------------------------
  Alpha Z   243.40285   243.40285   243.40285
  Ewald   96821.47071 96801.25358************     0.00000     0.00000  -772.12570
  Hartree104293.62318104371.13399-97729.99030     0.00000    -0.00000  -458.36388
  E(xc)   -1301.52113 -1301.53374 -1303.10272     0.00000     0.00000    -0.68449
  Local  ************************203661.86611    -0.00000    -0.00000  1236.03659
  n-local  -177.72683  -218.03295  -177.43099     0.68111    -0.08333    10.12128
  augment  1219.49622  1239.58468  1217.00721    -0.00000    -0.00000    -4.18146
  Kinetic  3122.27684  3171.44445  3126.14970     1.10933    -0.29090   -36.97362
  Fock        0.00000     0.00000     0.00000     0.00000     0.00000     0.00000
  -------------------------------------------------------------------------------------
  Total     -16.95045   -17.93016     7.52941    -0.00000     0.00000   -26.17127
  in kB     -16.39812   -17.34592     7.28407    -0.00000     0.00000   -25.31849
  external pressure =       -8.82 kB  Pullay stress =        0.00 kB


 VOLUME and BASIS-vectors are now :
 -----------------------------------------------------------------------------
  energy-cutoff  :      520.00
  volume of cell :     1656.14
      direct lattice vectors                 reciprocal lattice vectors
    10.159529953  0.000000000  0.000000000     0.098429751 -0.000000000  0.012037869
     0.000000000  5.858455502  0.000000000     0.000000000  0.170693453 -0.000000000
    -3.403016409  0.000000000 27.825360602     0.000000000  0.000000000  0.035938438

  length of vectors
    10.159529953  5.858455502 28.032681165     0.099163129  0.170693453  0.035938438


 FORCES acting on ions
    electron-ion (+dipol)            ewald-force                    non-local-force                 convergence-correction
 -----------------------------------------------------------------------------------------------
   -.675E+02 -.199E-12 0.252E+04   0.634E+02 -.286E-13 -.251E+04   0.408E+01 -.167E-15 -.581E+01   0.113E-03 -.168E-12 0.119E-02
   0.157E+02 -.130E-11 -.172E+03   -.157E+02 -.158E-13 0.172E+03   -.132E+00 0.139E-16 0.520E+00   0.139E-03 -.380E-13 -.124E-02
   -.183E+02 0.411E-12 0.149E+04   0.182E+02 -.140E-13 -.149E+04   0.288E+00 0.278E-16 0.649E+00   -.276E-03 -.775E-13 0.111E-02
   -.690E+02 -.940E-12 -.158E+04   0.685E+02 0.124E-13 0.158E+04   0.872E+00 -.104E-16 -.377E+00   0.508E-03 -.262E-13 -.277E-02
   0.389E+02 -.664E-12 -.260E+04   -.360E+02 0.501E-13 0.259E+04   -.271E+01 0.163E-15 0.566E+01   -.211E-03 0.141E-13 -.165E-02
   0.264E+02 0.216E-11 -.911E+02   -.264E+02 0.289E-13 0.911E+02   -.285E+00 -.694E-17 -.234E+00   -.791E-04 0.631E-13 -.104E-02
   -.128E+02 0.998E-11 0.152E+04   0.131E+02 -.650E-13 -.152E+04   -.446E+00 -.139E-16 -.512E+00   -.261E-03 0.123E-12 0.762E-03
   -.666E+02 0.270E-11 -.160E+04   0.673E+02 0.194E-13 0.160E+04   -.358E+00 -.173E-16 -.618E+00   0.476E-03 -.171E-13 -.331E-02
   0.529E+02 -.837E-13 0.148E+04   -.536E+02 -.153E-14 -.148E+04   0.706E+00 -.252E-16 -.884E+00   0.347E-03 -.590E-13 0.116E-02
   0.463E+02 -.236E-12 -.172E+04   -.468E+02 0.373E-13 0.172E+04   0.275E+00 0.555E-16 0.201E+01   -.550E-03 -.556E-13 -.292E-02
   -.417E+02 -.112E-11 -.609E+02   0.419E+02 0.141E-13 0.606E+02   -.139E+00 0.000E+00 0.427E+00   -.154E-03 -.140E-13 -.137E-02
   0.301E+02 -.280E-12 0.256E+04   -.259E+02 -.184E-13 -.255E+04   -.316E+01 -.173E-15 -.600E+01   -.866E-04 -.194E-12 0.155E-02
   0.230E+03 0.636E-12 0.125E+04   -.234E+03 0.257E-13 -.124E+04   0.114E+01 -.416E-16 -.146E+01   0.471E-03 0.116E-12 0.655E-03
   0.220E+03 -.492E-11 -.193E+04   -.224E+03 -.128E-13 0.193E+04   0.131E+01 -.139E-16 -.674E+00   -.498E-03 0.108E-13 -.383E-02
   -.200E+03 -.145E-12 0.256E+03   0.204E+03 -.340E-13 -.259E+03   -.833E+00 0.278E-16 0.830E+00   0.242E-03 0.121E-13 -.113E-02
   -.238E+01 -.718E-11 -.257E+04   0.231E+01 0.337E-13 0.256E+04   -.428E+00 0.215E-15 0.741E+01   0.802E-04 0.877E-14 -.228E-02
   -.299E+01 -.139E+02 0.402E+03   0.358E+01 0.131E+02 -.401E+03   -.542E+00 0.759E+00 -.881E+00   0.771E-04 0.652E-04 0.244E-03
   0.924E+01 0.273E+02 -.415E+03   -.853E+01 -.266E+02 0.415E+03   -.811E+00 -.590E+00 0.254E+00   0.118E-03 -.609E-04 -.870E-03
   0.205E+02 0.195E+02 0.234E+02   -.215E+02 -.214E+02 -.249E+02   0.784E+00 0.293E+01 0.172E+01   -.170E-03 -.451E-04 -.189E-03
   -.125E+02 0.217E+02 -.665E+03   0.111E+02 -.230E+02 0.662E+03   0.104E+01 0.250E+01 0.329E+01   0.204E-03 -.170E-03 -.450E-03
   -.299E+01 0.139E+02 0.402E+03   0.358E+01 -.131E+02 -.401E+03   -.542E+00 -.759E+00 -.881E+00   0.771E-04 -.652E-04 0.244E-03
   0.924E+01 -.273E+02 -.415E+03   -.853E+01 0.266E+02 0.415E+03   -.811E+00 0.590E+00 0.254E+00   0.118E-03 0.609E-04 -.870E-03
   0.205E+02 -.195E+02 0.234E+02   -.215E+02 0.214E+02 -.249E+02   0.784E+00 -.293E+01 0.172E+01   -.170E-03 0.451E-04 -.189E-03
   -.125E+02 -.217E+02 -.665E+03   0.111E+02 0.230E+02 0.662E+03   0.104E+01 -.250E+01 0.329E+01   0.204E-03 0.170E-03 -.450E-03
   -.918E+01 0.860E+01 -.327E+02   0.912E+01 -.872E+01 0.325E+02   0.172E+00 0.616E-02 0.181E+00   0.171E-03 0.754E-04 -.394E-03
   -.120E+02 -.437E+02 0.659E+03   0.125E+02 0.419E+02 -.657E+03   -.412E+00 0.181E+01 -.308E+01   -.407E-05 0.305E-04 0.348E-03
   -.848E+01 0.433E+02 -.464E+03   0.914E+01 -.444E+02 0.465E+03   -.768E+00 0.186E+01 -.235E+00   -.426E-04 -.112E-03 -.851E-03
   -.156E+02 0.738E+01 0.327E+03   0.163E+02 -.920E+01 -.327E+03   -.551E+00 0.248E+01 -.968E+00   -.758E-04 0.189E-05 0.348E-03
   -.918E+01 -.860E+01 -.327E+02   0.912E+01 0.872E+01 0.325E+02   0.172E+00 -.616E-02 0.181E+00   0.171E-03 -.754E-04 -.394E-03
   -.120E+02 0.437E+02 0.659E+03   0.125E+02 -.419E+02 -.657E+03   -.412E+00 -.181E+01 -.308E+01   -.407E-05 -.305E-04 0.348E-03
   -.848E+01 -.433E+02 -.464E+03   0.914E+01 0.444E+02 0.465E+03   -.768E+00 -.186E+01 -.235E+00   -.426E-04 0.112E-03 -.851E-03
   -.156E+02 -.738E+01 0.327E+03   0.163E+02 0.920E+01 -.327E+03   -.551E+00 -.248E+01 -.968E+00   -.758E-04 -.189E-05 0.348E-03
   0.103E+02 -.289E-11 -.923E+03   -.107E+02 0.173E-13 0.923E+03   0.346E+00 -.694E-17 -.186E+00   -.936E-03 0.251E-13 -.238E-02
   -.136E+03 0.225E-11 0.251E+04   0.131E+03 -.598E-14 -.251E+04   0.750E+01 -.139E-16 -.455E+00   -.845E-03 0.779E-13 0.218E-02
 -----------------------------------------------------------------------------------------------
   -.585E+01 -.532E-12 -.838E+00   0.142E-12 0.611E-13 -.909E-12   0.585E+01 0.423E-15 0.855E+00   -.966E-03 -.217E-12 -.189E-01
 
 
 POSITION                                       TOTAL-FORCE (eV/Angst)
 -----------------------------------------------------------------------------------
      8.93760      0.00000      9.21574        -0.040493      0.000000      0.497786
      3.27247      0.00000     14.00206        -0.166422      0.000000      0.470923
      6.31661      0.00000     11.43014         0.150298      0.000000     -0.210037
      0.65148      0.00000     16.21646         0.314851      0.000000     -0.151980
     -2.26142      2.92923     18.67750         0.179696     -0.000000     -0.940495
      3.40371      2.92923     13.89118        -0.234234      0.000000     -0.276923
      6.18537      2.92923     11.54102        -0.151548      0.000000     -0.071166
      0.52024      2.92923     16.32735         0.393845      0.000000      0.064576
      1.15651      0.00000     11.49801        -0.023926      0.000000     -0.116220
      5.65091      0.00000     16.28434        -0.216402      0.000000     -0.130018
      8.43257      0.00000     13.93418         0.000429      0.000000      0.069484
      3.93817      0.00000      9.14786         0.955271      0.000000      1.866250
      0.86829      2.92923     11.74152        -2.582182      0.000000      2.174147
      5.36269      2.92923     16.52784        -3.393155      0.000000      3.116981
     -1.43874      2.92923     13.69068         3.017320     -0.000000     -2.045708
      3.05566      2.92923     18.47700        -0.489349     -0.000000     -1.283385
      8.71783      1.42176     11.48451         0.041595     -0.058498     -0.529520
      3.05270      1.42176     16.27083        -0.096753      0.135586      0.396241
      5.75597      1.25322     13.73997        -0.161159      0.948089      0.259889
      0.09084      1.25322     18.52630        -0.396607      1.236914      0.124688
      8.71783      4.43669     11.48451         0.041595      0.058498     -0.529520
      3.05270      4.43669     16.27083        -0.096753     -0.135586      0.396241
      5.75597      4.60523     13.73997        -0.161159     -0.948089      0.259889
      0.09084      4.60523     18.52630        -0.396607     -1.236914      0.124688
      0.87125      1.42176     13.94769         0.113487     -0.111382      0.020591
      6.53638      1.42176      9.16137         0.128221      0.021573     -0.195827
     -1.83202      1.25322     16.47855        -0.099454      0.793317      0.508781
      3.83311      1.25322     11.69222         0.144405      0.672934     -0.262227
      0.87125      4.43669     13.94769         0.113487      0.111382      0.020591
      6.53638      4.43669      9.16137         0.128221     -0.021573     -0.195827
     -1.83202      4.60523     16.47855        -0.099454     -0.793317      0.508781
      3.83311      4.60523     11.69222         0.144405     -0.672934     -0.262227
      7.04174      2.92923     15.10926        -0.111238      0.000000      0.101585
      2.54734      2.92923     10.32294         3.049771     -0.000000     -3.781031
 -----------------------------------------------------------------------------------
    total drift:                                0.000074     -0.000000     -0.001975


--------------------------------------------------------------------------------------------------------



  FREE ENERGIE OF THE ION-ELECTRON SYSTEM (eV)
  ---------------------------------------------------
  free  energy   TOTEN  =      -177.04339203 eV

  energy  without entropy=     -177.03032420  energy(sigma->0) =     -177.03903609
 


--------------------------------------------------------------------------------------------------------


    POTLOK:  cpu time      0.0378: real time      0.0378


--------------------------------------------------------------------------------------------------------


 writing wavefunctions
     LOOP+:  cpu time    367.9047: real time    367.9243
    4ORBIT:  cpu time      0.0000: real time      0.0000

 total amount of memory used by VASP MPI-rank0   246327. kBytes
=======================================================================

   base                                    :      30000. kBytes
   nonl-proj                               :     178688. kBytes
   fftplans                                :       2940. kBytes
   grid                                    :      16821. kBytes
   one-center                              :        528. kBytes
   wavefun                                 :      17350. kBytes
 
  
  
 General timing and accounting informations for this job:
 ========================================================
  
                  Total CPU time used (sec):      376.767
                            User time (sec):      359.527
                          System time (sec):       17.240
                         Elapsed time (sec):      377.040
  
                   Maximum memory used (kb):      506832.
                   Average memory used (kb):          N/A
  
                          Minor page faults:        95564
                          Major page faults:           19
                 Voluntary context switches:          120
