<?xml version="1.0" encoding="ISO-8859-1"?>
<modeling>
 <generator>
  <i name="program" type="string">vasp </i>
  <i name="version" type="string">6.5.0  </i>
  <i name="subversion" type="string">16Dec24 (build Apr 17 2025 17:55:45) complex                          parallel </i>
  <i name="platform" type="string">LinuxIFC </i>
  <i name="date" type="string">2025 06 10 </i>
  <i name="time" type="string">15:40:50 </i>
 </generator>
 <incar>
  <i type="int" name="ISTART">     0</i>
  <i type="string" name="PREC">N</i>
  <i type="string" name="ALGO">N</i>
  <i type="int" name="ICHARG">     2</i>
  <i type="int" name="NELM">   500</i>
  <i type="int" name="IBRION">    -1</i>
  <i name="EDIFF">      0.00001000</i>
  <i name="EDIFFG">     -0.01000000</i>
  <i type="int" name="NSW">     0</i>
  <i type="int" name="ISIF">     3</i>
  <i name="ENCUT">    520.00000000</i>
  <i type="logical" name="LREAL"> F  </i>
  <i type="int" name="ISMEAR">     1</i>
  <i name="SIGMA">      0.10000000</i>
  <i type="logical" name="LVTOT"> T  </i>
  <i type="logical" name="LVHAR"> T  </i>
 </incar>
 <primitive_cell>
  <structure name="primitive_cell" >
   <crystal>
    <varray name="basis" >
     <v>      10.15952995       0.00000000       0.00000000 </v>
     <v>       0.00000000       5.85845550       0.00000000 </v>
     <v>      -3.40301641       0.00000000      27.82536060 </v>
    </varray>
    <i name="volume">   1656.14192705 </i>
    <varray name="rec_basis" >
     <v>       0.09842975      -0.00000000       0.01203787 </v>
     <v>       0.00000000       0.17069345      -0.00000000 </v>
     <v>       0.00000000       0.00000000       0.03593844 </v>
    </varray>
   </crystal>
   <varray name="positions" >
    <v>       0.99066316       0.00000000       0.33119916 </v>
    <v>       0.49066316       0.00000000       0.50321211 </v>
    <v>       0.75933684       0.00000000       0.41078141 </v>
    <v>       0.25933684       0.00000000       0.58279436 </v>
    <v>       0.00224643       0.50000000       0.67124012 </v>
    <v>       0.50224643       0.50000000       0.49922717 </v>
    <v>       0.74775357       0.50000000       0.41476636 </v>
    <v>       0.24775357       0.50000000       0.58677931 </v>
    <v>       0.25224643       0.00000000       0.41322069 </v>
    <v>       0.75224643       0.00000000       0.58523364 </v>
    <v>       0.99775357       0.00000000       0.50077283 </v>
    <v>       0.49775357       0.00000000       0.32875988 </v>
    <v>       0.22680859       0.50000000       0.42197197 </v>
    <v>       0.72680859       0.50000000       0.59398492 </v>
    <v>       0.02319141       0.50000000       0.49202155 </v>
    <v>       0.52319141       0.50000000       0.66403451 </v>
    <v>       0.99634265       0.24268531       0.41273530 </v>
    <v>       0.49634265       0.24268531       0.58474825 </v>
    <v>       0.73195841       0.21391683       0.49379323 </v>
    <v>       0.23195841       0.21391683       0.66580618 </v>
    <v>       0.99634265       0.75731469       0.41273530 </v>
    <v>       0.49634265       0.75731469       0.58474825 </v>
    <v>       0.73195841       0.78608317       0.49379323 </v>
    <v>       0.23195841       0.78608317       0.66580618 </v>
    <v>       0.25365735       0.24268531       0.50125822 </v>
    <v>       0.75365735       0.24268531       0.32924527 </v>
    <v>       0.01804159       0.21391683       0.59221325 </v>
    <v>       0.51804159       0.21391683       0.42020030 </v>
    <v>       0.25365735       0.75731469       0.50125822 </v>
    <v>       0.75365735       0.75731469       0.32924527 </v>
    <v>       0.01804159       0.78608317       0.59221325 </v>
    <v>       0.51804159       0.78608317       0.42020030 </v>
    <v>       0.87500000       0.50000000       0.54300324 </v>
    <v>       0.37500000       0.50000000       0.37099029 </v>
   </varray>
  </structure>
  <varray name="primitive_index" >
   <v type="int" >        1 </v>
   <v type="int" >        2 </v>
   <v type="int" >        3 </v>
   <v type="int" >        4 </v>
   <v type="int" >        5 </v>
   <v type="int" >        6 </v>
   <v type="int" >        7 </v>
   <v type="int" >        8 </v>
   <v type="int" >        9 </v>
   <v type="int" >       10 </v>
   <v type="int" >       11 </v>
   <v type="int" >       12 </v>
   <v type="int" >       13 </v>
   <v type="int" >       14 </v>
   <v type="int" >       15 </v>
   <v type="int" >       16 </v>
   <v type="int" >       17 </v>
   <v type="int" >       18 </v>
   <v type="int" >       19 </v>
   <v type="int" >       20 </v>
   <v type="int" >       21 </v>
   <v type="int" >       22 </v>
   <v type="int" >       23 </v>
   <v type="int" >       24 </v>
   <v type="int" >       25 </v>
   <v type="int" >       26 </v>
   <v type="int" >       27 </v>
   <v type="int" >       28 </v>
   <v type="int" >       29 </v>
   <v type="int" >       30 </v>
   <v type="int" >       31 </v>
   <v type="int" >       32 </v>
   <v type="int" >       33 </v>
   <v type="int" >       34 </v>
  </varray>
 </primitive_cell>
 <kpoints>
  <generation param="Gamma">
   <v type="int" name="divisions">       3        6        1 </v>
   <v name="usershift">      0.00000000       0.00000000       0.00000000 </v>
   <v name="genvec1">      0.33333333       0.00000000       0.00000000 </v>
   <v name="genvec2">      0.00000000       0.16666667       0.00000000 </v>
   <v name="genvec3">      0.00000000       0.00000000       1.00000000 </v>
   <v name="shift">      0.00000000       0.00000000       0.00000000 </v>
  </generation>
  <varray name="kpointlist" >
   <v>       0.00000000       0.00000000       0.00000000 </v>
   <v>       0.33333333       0.00000000       0.00000000 </v>
   <v>       0.00000000       0.16666667       0.00000000 </v>
   <v>       0.33333333       0.16666667       0.00000000 </v>
   <v>       0.00000000       0.33333333       0.00000000 </v>
   <v>       0.33333333       0.33333333       0.00000000 </v>
   <v>       0.00000000       0.50000000       0.00000000 </v>
   <v>       0.33333333       0.50000000       0.00000000 </v>
  </varray>
  <varray name="weights" >
   <v>       0.05555556 </v>
   <v>       0.11111111 </v>
   <v>       0.11111111 </v>
   <v>       0.22222222 </v>
   <v>       0.11111111 </v>
   <v>       0.22222222 </v>
   <v>       0.05555556 </v>
   <v>       0.11111111 </v>
  </varray>
 </kpoints>
 <parameters>
  <separator name="general" >
   <i type="string" name="SYSTEM">unknown system</i>
   <i type="logical" name="LCOMPAT"> F  </i>
  </separator>
  <separator name="electronic" >
   <i type="string" name="PREC">n</i>
   <i name="ENMAX">    520.00000000</i>
   <i name="ENAUG">    490.69000000</i>
   <i name="EDIFF">      0.00001000</i>
   <i type="int" name="IALGO">    38</i>
   <i type="int" name="IWAVPR">    10</i>
   <i type="int" name="NBANDS">   192</i>
   <i type="int" name="NBANDSLOW">    -1</i>
   <i type="int" name="NBANDSHIGH">    -1</i>
   <i name="NELECT">    266.00000000</i>
   <i type="int" name="TURBO">     0</i>
   <i type="int" name="IRESTART">     0</i>
   <i type="int" name="NREBOOT">     0</i>
   <i type="int" name="NMIN">     0</i>
   <i name="EREF">      0.00000000</i>
   <separator name="electronic smearing" >
    <i type="int" name="ISMEAR">     1</i>
    <i name="SIGMA">      0.10000000</i>
    <i name="KSPACING">      0.50000000</i>
    <i type="logical" name="KGAMMA"> T  </i>
    <i type="logical" name="KBLOWUP"> T  </i>
   </separator>
   <separator name="electronic projectors" >
    <i type="logical" name="LREAL"> F  </i>
    <v name="ROPT">      0.00000000      0.00000000      0.00000000</v>
    <i type="int" name="LMAXPAW">  -100</i>
    <i type="int" name="LMAXMIX">     2</i>
    <i type="logical" name="NLSPLINE"> F  </i>
   </separator>
   <separator name="electronic startup" >
    <i type="int" name="ISTART">     0</i>
    <i type="int" name="ICHARG">     2</i>
    <i type="int" name="INIWAV">     1</i>
   </separator>
   <separator name="electronic spin" >
    <i type="int" name="ISPIN">     1</i>
    <i type="logical" name="LNONCOLLINEAR"> F  </i>
    <v name="MAGMOM">      1.00000000      1.00000000      1.00000000      1.00000000      1.00000000      1.00000000      1.00000000      1.00000000      1.00000000      1.00000000      1.00000000      1.00000000      1.00000000      1.00000000      1.00000000      1.00000000      1.00000000      1.00000000      1.00000000      1.00000000
      1.00000000      1.00000000      1.00000000      1.00000000      1.00000000      1.00000000      1.00000000      1.00000000      1.00000000      1.00000000      1.00000000      1.00000000      1.00000000      1.00000000</v>
    <i name="NUPDOWN">     -1.00000000</i>
    <i type="logical" name="LSORBIT"> F  </i>
    <v name="SAXIS">      0.00000000      0.00000000      1.00000000</v>
    <i type="logical" name="LSPIRAL"> F  </i>
    <v name="QSPIRAL">      0.00000000      0.00000000      0.00000000</v>
    <i type="logical" name="LZEROZ"> F  </i>
   </separator>
   <separator name="electronic exchange-correlation" >
    <i type="logical" name="LASPH"> F  </i>
   </separator>
   <separator name="electronic convergence" >
    <i type="int" name="NELM">   500</i>
    <i type="int" name="NELMDL">    -5</i>
    <i type="int" name="NELMIN">     2</i>
    <i name="ENINI">    520.00000000</i>
    <separator name="electronic convergence detail" >
     <i type="logical" name="LDIAG"> T  </i>
     <i type="logical" name="LSUBROT"> F  </i>
     <i name="WEIMIN">      0.00000000</i>
     <i name="EBREAK">      0.00000001</i>
     <i name="DEPER">      0.30000000</i>
     <i type="int" name="NRMM">     4</i>
     <i name="TIME">      0.40000000</i>
    </separator>
   </separator>
   <separator name="electronic mixer" >
    <i name="AMIX">      0.40000000</i>
    <i name="BMIX">      1.00000000</i>
    <i name="AMIN">      0.10000000</i>
    <i name="AMIX_MAG">      1.60000000</i>
    <i name="BMIX_MAG">      1.00000000</i>
    <separator name="electronic mixer details" >
     <i type="int" name="IMIX">     4</i>
     <i type="logical" name="MIXFIRST"> F  </i>
     <i type="int" name="MAXMIX">   -45</i>
     <i name="WC">    100.00000000</i>
     <i type="int" name="INIMIX">     1</i>
     <i type="int" name="MIXPRE">     1</i>
     <i type="int" name="MREMOVE">     5</i>
    </separator>
   </separator>
   <separator name="electronic dipolcorrection" >
    <i type="logical" name="LDIPOL"> F  </i>
    <i type="logical" name="LMONO"> F  </i>
    <i type="int" name="IDIPOL">     0</i>
    <i name="EPSILON">      1.00000000</i>
    <v name="DIPOL">   -100.00000000   -100.00000000   -100.00000000</v>
    <i name="EFIELD">      0.00000000</i>
    <i type="logical" name="LVACPOTAV"> F  </i>
   </separator>
  </separator>
  <separator name="grids" >
   <i type="int" name="NGX">    60</i>
   <i type="int" name="NGY">    36</i>
   <i type="int" name="NGZ">   160</i>
   <i type="int" name="NGXF">   120</i>
   <i type="int" name="NGYF">    72</i>
   <i type="int" name="NGZF">   320</i>
   <i type="logical" name="ADDGRID"> F  </i>
  </separator>
  <separator name="ionic" >
   <i type="int" name="NSW">     0</i>
   <i type="int" name="IBRION">    -1</i>
   <i type="int" name="MDALGO">     0</i>
   <i type="int" name="ISIF">     3</i>
   <i name="PSTRESS">      0.00000000</i>
   <i name="EDIFFG">     -0.01000000</i>
   <i type="int" name="NFREE">     0</i>
   <i name="POTIM">      0.50000000</i>
   <i name="SMASS">     -3.00000000</i>
   <i name="SCALEE">      1.00000000</i>
  </separator>
  <separator name="ionic md" >
   <i name="TEBEG">      0.00010000</i>
   <i name="TEEND">      0.00010000</i>
   <i type="int" name="NBLOCK">     1</i>
   <i type="int" name="KBLOCK">     1</i>
   <i type="int" name="NPACO">   256</i>
   <i name="APACO">     10.00000000</i>
  </separator>
  <separator name="symmetry" >
   <i type="int" name="ISYM">     2</i>
   <i name="SYMPREC">      0.00001000</i>
  </separator>
  <separator name="dos" >
   <i type="int" name="LORBIT">     0</i>
   <v name="RWIGS">     -1.00000000     -1.00000000     -1.00000000</v>
   <i type="int" name="NEDOS">   301</i>
   <i name="EMIN">     10.00000000</i>
   <i name="EMAX">    -10.00000000</i>
   <i name="EFERMI">      0.00000000</i>
  </separator>
  <separator name="writing" >
   <i type="int" name="NWRITE">     2</i>
   <i type="logical" name="LWAVE"> T  </i>
   <i type="logical" name="LDOWNSAMPLE"> F  </i>
   <i type="logical" name="LCHARG"> T  </i>
   <i type="logical" name="LPARD"> F  </i>
   <i type="logical" name="LVTOT"> F  </i>
   <i type="logical" name="LVHAR"> T  </i>
   <i type="logical" name="LELF"> F  </i>
   <i type="logical" name="LOPTICS"> F  </i>
   <v name="STM">      0.00000000      0.00000000      0.00000000      0.00000000      0.00000000      0.00000000      0.00000000</v>
  </separator>
  <separator name="performance" >
   <i type="int" name="NPAR">    64</i>
   <i type="int" name="NSIM">     4</i>
   <i type="int" name="NBLK">    -1</i>
   <i type="logical" name="LPLANE"> T  </i>
   <i type="logical" name="LSCALAPACK"> T  </i>
   <i type="logical" name="LSCAAWARE"> F  </i>
   <i type="logical" name="LSCALU"> F  </i>
   <i type="logical" name="LASYNC"> F  </i>
   <i type="logical" name="LORBITALREAL"> F  </i>
  </separator>
  <separator name="miscellaneous" >
   <i type="int" name="IDIOT">     3</i>
   <i type="int" name="PHON_NSTRUCT">    -1</i>
   <i type="logical" name="LMUSIC"> F  </i>
   <v name="POMASS">     47.88000000     26.98100000     69.72300000</v>
   <v name="DARWINR">      0.00000000      0.00000000      0.00000000</v>
   <v name="DARWINV">      1.00000000      1.00000000      1.00000000</v>
   <i type="logical" name="LCORR"> T  </i>
  </separator>
  <i type="logical" name="GGA_COMPAT"> T  </i>
  <i type="logical" name="LBERRY"> F  </i>
  <i type="int" name="ICORELEVEL">     0</i>
  <i type="logical" name="LDAU"> F  </i>
  <i type="int" name="I_CONSTRAINED_M">     0</i>
  <separator name="electronic exchange-correlation" >
   <i type="string" name="GGA    ">PE</i>
   <i type="string" name="XC_C">1</i>
   <i type="int" name="VOSKOWN">     0</i>
   <i type="logical" name="LHFCALC"> F  </i>
   <i type="string" name="PRECFOCK"></i>
   <i type="logical" name="LSYMGRAD"> F  </i>
   <i type="logical" name="LHFONE"> F  </i>
   <i type="logical" name="LRHFCALC"> F  </i>
   <i type="logical" name="LTHOMAS"> F  </i>
   <i type="logical" name="LMODELHF"> F  </i>
   <i type="logical" name="LFOCKACE"> F  </i>
   <i name="ENCUT4O">     -1.00000000</i>
   <i type="int" name="EXXOEP">     0</i>
   <i type="int" name="FOURORBIT">     0</i>
   <i name="AEXX">      0.00000000</i>
   <i name="HFALPHA">      0.00000000</i>
   <i name="MCALPHA">      0.00000000</i>
   <i name="ALDAX">      1.00000000</i>
   <i name="AGGAX">      1.00000000</i>
   <i name="AMGGAX">      1.00000000</i>
   <i name="ALDAC">      1.00000000</i>
   <i name="AGGAC">      1.00000000</i>
   <i name="AMGGAC">      1.00000000</i>
   <i type="int" name="NKREDX">     1</i>
   <i type="int" name="NKREDY">     1</i>
   <i type="int" name="NKREDZ">     1</i>
   <i type="logical" name="SHIFTRED"> F  </i>
   <i type="logical" name="ODDONLY"> F  </i>
   <i type="logical" name="EVENONLY"> F  </i>
   <i type="int" name="LMAXFOCK">     0</i>
   <i type="int" name="NMAXFOCKAE">     0</i>
   <i type="logical" name="LFOCKAEDFT"> F  </i>
   <i name="HFSCREEN">      0.00000000</i>
   <i name="HFSCREENC">      0.00000000</i>
   <i type="int" name="NBANDSGWLOW">     0</i>
  </separator>
  <separator name="vdW DFT" >
   <i type="logical" name="LUSE_VDW"> F  </i>
   <i type="int" name="IVDW_NL">    -1</i>
   <i type="logical" name="LSPIN_VDW"> F  </i>
   <i name="ZAB_VDW">     -0.84910000</i>
   <i name="GAMMA_VDW">      1.39626340</i>
   <i name="ALPHA_VDW">      0.00000000</i>
   <i name="PARAM1">      0.12340000</i>
   <i name="PARAM2">      1.00000000</i>
   <i name="BPARAM">      6.30000000</i>
   <i name="CPARAM">      0.00930000</i>
  </separator>
  <separator name="model GW" >
   <i type="int" name="MODEL_GW">     0</i>
   <i name="MODEL_EPS0">     29.22603401</i>
   <i name="MODEL_ALPHA">      1.00000000</i>
  </separator>
  <separator name="linear response parameters" >
   <i type="logical" name="LEPSILON"> F  </i>
   <i type="logical" name="LRPA"> F  </i>
   <i type="logical" name="LNABLA"> F  </i>
   <i type="logical" name="LVEL"> F  </i>
   <i name="CSHIFT">      0.10000000</i>
   <i name="OMEGAMAX">     -1.00000000</i>
   <i name="DEG_THRESHOLD">      0.00200000</i>
   <i name="RTIME">     -0.10000000</i>
   <i name="WPLASMAI">      0.00000000</i>
   <v name="DFIELD">      0.00000000      0.00000000      0.00000000</v>
   <v name="WPLASMA">      0.00000000      0.00000000      0.00000000      0.00000000      0.00000000      0.00000000      0.00000000      0.00000000      0.00000000</v>
  </separator>
  <separator name="orbital magnetization" >
   <i type="logical" name="NUCIND"> F  </i>
   <v name="MAGPOS">      0.00000000      0.00000000      0.00000000</v>
   <i type="logical" name="LNICSALL"> T  </i>
   <i type="logical" name="ORBITALMAG"> F  </i>
   <i type="logical" name="LMAGBLOCH"> F  </i>
   <i type="logical" name="LCHIMAG"> F  </i>
   <i type="logical" name="LGAUGE"> T  </i>
   <i type="int" name="MAGATOM">     0</i>
   <v name="MAGDIPOL">      0.00000000      0.00000000      0.00000000</v>
   <v name="AVECCONST">      0.00000000      0.00000000      0.00000000</v>
  </separator>
  <separator name="response functions" >
   <i type="logical" name="LALL_IN_ONE"> F  </i>
   <i type="int" name="IALL_IN_ONE">    -1</i>
   <i type="int" name="NBANDS_WAVE">    -1</i>
   <i type="logical" name="LFINITE_TEMPERATURE"> F  </i>
   <i type="logical" name="LADDER"> F  </i>
   <i type="logical" name="LRPAFORCE"> F  </i>
   <i type="logical" name="LFXC"> F  </i>
   <i type="logical" name="LHARTREE"> T  </i>
   <i type="int" name="IBSE">     2</i>
   <v type="int" name="KPOINT">    -1     0     0     0</v>
   <i type="logical" name="LTCTC"> F  </i>
   <i type="logical" name="LTCTE"> F  </i>
   <i type="logical" name="LTETE"> F  </i>
   <i type="logical" name="LTRIPLET"> F  </i>
   <i type="logical" name="LFXCEPS"> F  </i>
   <i type="logical" name="LFXHEG"> F  </i>
   <i type="int" name="NATURALO">     2</i>
   <i type="logical" name="LHOLEGF"> F  </i>
   <i type="logical" name="L2ORDER"> F  </i>
   <i type="logical" name="LDMP1"> F  </i>
   <i type="logical" name="LMP2LT"> F  </i>
   <i type="logical" name="LSMP2LT"> F  </i>
   <i type="logical" name="LGWLF"> F  </i>
   <i name="ENCUTGW">     -1.60000002</i>
   <i name="ENCUTGWSOFT">     -1.60000002</i>
   <i name="ENCUTLF">     -1.00000000</i>
   <i type="logical" name="ESF_SPLINES"> F  </i>
   <i name="ESF_CONV">      0.01000000</i>
   <i type="int" name="ESF_NINTER">    15</i>
   <i type="int" name="LMAXMP2">    -1</i>
   <i name="SCISSOR">      0.00000000</i>
   <i type="int" name="NOMEGA">     0</i>
   <i type="int" name="NOMEGAR">     0</i>
   <i type="int" name="NBANDSGW">    -1</i>
   <i type="int" name="NBANDSO">    -1</i>
   <i type="int" name="NBANDSV">    -1</i>
   <i type="int" name="NELMGW">     1</i>
   <i type="int" name="NELMHF">     1</i>
   <i type="int" name="DIM">     3</i>
   <i type="int" name="IESPILON">     4</i>
   <i type="int" name="ANTIRES">     0</i>
   <i name="OMEGAMAX">    -30.00000000</i>
   <i name="OMEGAMIN">    -30.00000000</i>
   <i name="OMEGATL">   -200.00000000</i>
   <i type="int" name="OMEGAGRID">     0</i>
   <i name="CSHIFT">     -0.10000000</i>
   <i type="logical" name="LSELFENERGY"> F  </i>
   <i type="logical" name="LSPECTRAL"> F  </i>
   <i type="logical" name="LSPECTRALGW"> F  </i>
   <i type="logical" name="LSINGLES"> F  </i>
   <i type="logical" name="LFERMIGW"> F  </i>
   <i type="logical" name="ODDONLYGW"> F  </i>
   <i type="logical" name="EVENONLYGW"> F  </i>
   <i type="int" name="NKREDLFX">     1</i>
   <i type="int" name="NKREDLFY">     1</i>
   <i type="int" name="NKREDLFZ">     1</i>
   <i type="int" name="MAXMEM">  2800</i>
   <i type="int" name="TELESCOPE">     0</i>
   <i type="int" name="NTAUPAR">    -1</i>
   <i type="int" name="NOMEGAPAR">    -1</i>
   <i name="DAMP_NEWTON">      0.80000001</i>
   <i name="LAMBDA">      1.00000000</i>
  </separator>
  <separator name="External order field" >
   <i name="OFIELD_KAPPA">      0.00000000</i>
   <v name="OFIELD_K">      0.00000000      0.00000000      0.00000000</v>
   <i name="OFIELD_Q6_NEAR">      0.00000000</i>
   <i name="OFIELD_Q6_FAR">      0.00000000</i>
   <i name="OFIELD_A">      0.00000000</i>
  </separator>
  <separator name="optional k-points parameters" >
   <i type="int" name="KPOINTS_OPT_MODE">     1</i>
   <i type="logical" name="LKPOINTS_OPT"> F  </i>
  </separator>
 </parameters>
 <atominfo>
  <atoms>      34 </atoms>
  <types>       3 </types>
  <array name="atoms" >
   <dimension dim="1">ion</dimension>
   <field type="string">element</field>
   <field type="int">atomtype</field>
   <set>
    <rc><c>Ti</c><c>   1</c></rc>
    <rc><c>Ti</c><c>   1</c></rc>
    <rc><c>Ti</c><c>   1</c></rc>
    <rc><c>Ti</c><c>   1</c></rc>
    <rc><c>Ti</c><c>   1</c></rc>
    <rc><c>Ti</c><c>   1</c></rc>
    <rc><c>Ti</c><c>   1</c></rc>
    <rc><c>Ti</c><c>   1</c></rc>
    <rc><c>Ti</c><c>   1</c></rc>
    <rc><c>Ti</c><c>   1</c></rc>
    <rc><c>Ti</c><c>   1</c></rc>
    <rc><c>Ti</c><c>   1</c></rc>
    <rc><c>Ti</c><c>   1</c></rc>
    <rc><c>Ti</c><c>   1</c></rc>
    <rc><c>Ti</c><c>   1</c></rc>
    <rc><c>Ti</c><c>   1</c></rc>
    <rc><c>Al</c><c>   2</c></rc>
    <rc><c>Al</c><c>   2</c></rc>
    <rc><c>Al</c><c>   2</c></rc>
    <rc><c>Al</c><c>   2</c></rc>
    <rc><c>Al</c><c>   2</c></rc>
    <rc><c>Al</c><c>   2</c></rc>
    <rc><c>Al</c><c>   2</c></rc>
    <rc><c>Al</c><c>   2</c></rc>
    <rc><c>Al</c><c>   2</c></rc>
    <rc><c>Al</c><c>   2</c></rc>
    <rc><c>Al</c><c>   2</c></rc>
    <rc><c>Al</c><c>   2</c></rc>
    <rc><c>Al</c><c>   2</c></rc>
    <rc><c>Al</c><c>   2</c></rc>
    <rc><c>Al</c><c>   2</c></rc>
    <rc><c>Al</c><c>   2</c></rc>
    <rc><c>Ga</c><c>   3</c></rc>
    <rc><c>Ga</c><c>   3</c></rc>
   </set>
  </array>
  <array name="atomtypes" >
   <dimension dim="1">type</dimension>
   <field type="int">atomspertype</field>
   <field type="string">element</field>
   <field>mass</field>
   <field>valence</field>
   <field type="string">pseudopotential</field>
   <set>
    <rc><c>  16</c><c>Ti</c><c>     47.88000000</c><c>     12.00000000</c><c>  PAW_PBE Ti_sv 26Sep2005               </c></rc>
    <rc><c>  16</c><c>Al</c><c>     26.98100000</c><c>      3.00000000</c><c>  PAW_PBE Al 04Jan2001                  </c></rc>
    <rc><c>   2</c><c>Ga</c><c>     69.72300000</c><c>     13.00000000</c><c>  PAW_PBE Ga_d 06Jul2010                </c></rc>
   </set>
  </array>
 </atominfo>
 <structure name="initialpos" >
  <crystal>
   <varray name="basis" >
    <v>      10.15952995       0.00000000       0.00000000 </v>
    <v>       0.00000000       5.85845550       0.00000000 </v>
    <v>      -3.40301641       0.00000000      27.82536060 </v>
   </varray>
   <i name="volume">   1656.14192705 </i>
   <varray name="rec_basis" >
    <v>       0.09842975      -0.00000000       0.01203787 </v>
    <v>       0.00000000       0.17069345      -0.00000000 </v>
    <v>       0.00000000       0.00000000       0.03593844 </v>
   </varray>
  </crystal>
  <varray name="positions" >
   <v>       0.99066316       0.00000000       0.33119916 </v>
   <v>       0.49066316       0.00000000       0.50321211 </v>
   <v>       0.75933684       0.00000000       0.41078141 </v>
   <v>       0.25933684       0.00000000       0.58279436 </v>
   <v>       0.00224643       0.50000000       0.67124012 </v>
   <v>       0.50224643       0.50000000       0.49922717 </v>
   <v>       0.74775357       0.50000000       0.41476636 </v>
   <v>       0.24775357       0.50000000       0.58677931 </v>
   <v>       0.25224643       0.00000000       0.41322069 </v>
   <v>       0.75224643       0.00000000       0.58523364 </v>
   <v>       0.99775357       0.00000000       0.50077283 </v>
   <v>       0.49775357       0.00000000       0.32875988 </v>
   <v>       0.22680859       0.50000000       0.42197197 </v>
   <v>       0.72680859       0.50000000       0.59398492 </v>
   <v>       0.02319141       0.50000000       0.49202155 </v>
   <v>       0.52319141       0.50000000       0.66403451 </v>
   <v>       0.99634265       0.24268531       0.41273530 </v>
   <v>       0.49634265       0.24268531       0.58474825 </v>
   <v>       0.73195841       0.21391683       0.49379323 </v>
   <v>       0.23195841       0.21391683       0.66580618 </v>
   <v>       0.99634265       0.75731469       0.41273530 </v>
   <v>       0.49634265       0.75731469       0.58474825 </v>
   <v>       0.73195841       0.78608317       0.49379323 </v>
   <v>       0.23195841       0.78608317       0.66580618 </v>
   <v>       0.25365735       0.24268531       0.50125822 </v>
   <v>       0.75365735       0.24268531       0.32924527 </v>
   <v>       0.01804159       0.21391683       0.59221325 </v>
   <v>       0.51804159       0.21391683       0.42020030 </v>
   <v>       0.25365735       0.75731469       0.50125822 </v>
   <v>       0.75365735       0.75731469       0.32924527 </v>
   <v>       0.01804159       0.78608317       0.59221325 </v>
   <v>       0.51804159       0.78608317       0.42020030 </v>
   <v>       0.87500000       0.50000000       0.54300324 </v>
   <v>       0.37500000       0.50000000       0.37099029 </v>
  </varray>
 </structure>
 <calculation>
  <scstep>
   <time name="dav">    6.53    6.53</time>
   <time name="total">    6.61    6.61</time>
   <energy>
    <i name="alphaZ">    243.40284528 </i>
    <i name="ewald">  84592.39660786 </i>
    <i name="hartreedc">-110772.22596894 </i>
    <i name="XCdc">    649.59066885 </i>
    <i name="pawpsdc">  24498.55701585 </i>
    <i name="pawaedc"> -24341.03228923 </i>
    <i name="eentropy">     -0.00320121 </i>
    <i name="bandstr">  -3074.67398858 </i>
    <i name="atom">  30563.62952402 </i>
    <i name="e_fr_energy">   2359.64121391 </i>
    <i name="e_wo_entrp">   2359.64441512 </i>
    <i name="e_0_energy">   2359.64228098 </i>
   </energy>
  </scstep>
  <scstep>
   <time name="dav">    6.79    6.79</time>
   <time name="total">    6.79    6.79</time>
   <energy>
    <i name="e_fr_energy">     68.44568768 </i>
    <i name="e_wo_entrp">     68.44684695 </i>
    <i name="e_0_energy">     68.44607410 </i>
   </energy>
  </scstep>
  <scstep>
   <time name="dav">   12.50   12.51</time>
   <time name="total">   12.50   12.51</time>
   <energy>
    <i name="e_fr_energy">   -185.26418878 </i>
    <i name="e_wo_entrp">   -185.28023234 </i>
    <i name="e_0_energy">   -185.26953664 </i>
   </energy>
  </scstep>
  <scstep>
   <time name="dav">    9.76    9.76</time>
   <time name="total">    9.76    9.76</time>
   <energy>
    <i name="e_fr_energy">   -220.94570847 </i>
    <i name="e_wo_entrp">   -220.95676817 </i>
    <i name="e_0_energy">   -220.94939504 </i>
   </energy>
  </scstep>
  <scstep>
   <time name="dav">   10.04   10.04</time>
   <time name="total">   10.17   10.17</time>
   <energy>
    <i name="e_fr_energy">   -224.39687955 </i>
    <i name="e_wo_entrp">   -224.40737027 </i>
    <i name="e_0_energy">   -224.40037646 </i>
   </energy>
  </scstep>
  <scstep>
   <time name="dav">   10.55   10.55</time>
   <time name="total">   10.72   10.72</time>
   <energy>
    <i name="e_fr_energy">   -292.05373002 </i>
    <i name="e_wo_entrp">   -292.04865218 </i>
    <i name="e_0_energy">   -292.05203741 </i>
   </energy>
  </scstep>
  <scstep>
   <time name="dav">   10.56   10.56</time>
   <time name="total">   10.73   10.73</time>
   <energy>
    <i name="e_fr_energy">   -205.26478527 </i>
    <i name="e_wo_entrp">   -205.24970111 </i>
    <i name="e_0_energy">   -205.25975722 </i>
   </energy>
  </scstep>
  <scstep>
   <time name="dav">    9.31    9.31</time>
   <time name="total">    9.48    9.48</time>
   <energy>
    <i name="e_fr_energy">   -191.98698171 </i>
    <i name="e_wo_entrp">   -191.97622521 </i>
    <i name="e_0_energy">   -191.98339621 </i>
   </energy>
  </scstep>
  <scstep>
   <time name="dav">    9.33    9.33</time>
   <time name="total">    9.49    9.49</time>
   <energy>
    <i name="e_fr_energy">   -183.48862948 </i>
    <i name="e_wo_entrp">   -183.48518830 </i>
    <i name="e_0_energy">   -183.48748242 </i>
   </energy>
  </scstep>
  <scstep>
   <time name="dav">    9.30    9.30</time>
   <time name="total">    9.47    9.47</time>
   <energy>
    <i name="e_fr_energy">   -182.21433025 </i>
    <i name="e_wo_entrp">   -182.19837935 </i>
    <i name="e_0_energy">   -182.20901328 </i>
   </energy>
  </scstep>
  <scstep>
   <time name="dav">    9.24    9.24</time>
   <time name="total">    9.41    9.41</time>
   <energy>
    <i name="e_fr_energy">   -179.20252360 </i>
    <i name="e_wo_entrp">   -179.20731663 </i>
    <i name="e_0_energy">   -179.20412128 </i>
   </energy>
  </scstep>
  <scstep>
   <time name="dav">    9.40    9.40</time>
   <time name="total">    9.57    9.57</time>
   <energy>
    <i name="e_fr_energy">   -177.98676440 </i>
    <i name="e_wo_entrp">   -177.97842749 </i>
    <i name="e_0_energy">   -177.98398543 </i>
   </energy>
  </scstep>
  <scstep>
   <time name="dav">    9.22    9.22</time>
   <time name="total">    9.39    9.39</time>
   <energy>
    <i name="e_fr_energy">   -177.46192440 </i>
    <i name="e_wo_entrp">   -177.45718434 </i>
    <i name="e_0_energy">   -177.46034438 </i>
   </energy>
  </scstep>
  <scstep>
   <time name="dav">    9.40    9.40</time>
   <time name="total">    9.57    9.57</time>
   <energy>
    <i name="e_fr_energy">   -177.36397764 </i>
    <i name="e_wo_entrp">   -177.35959405 </i>
    <i name="e_0_energy">   -177.36251644 </i>
   </energy>
  </scstep>
  <scstep>
   <time name="dav">    9.39    9.39</time>
   <time name="total">    9.56    9.56</time>
   <energy>
    <i name="e_fr_energy">   -177.49528059 </i>
    <i name="e_wo_entrp">   -177.48629392 </i>
    <i name="e_0_energy">   -177.49228504 </i>
   </energy>
  </scstep>
  <scstep>
   <time name="dav">    9.31    9.31</time>
   <time name="total">    9.47    9.47</time>
   <energy>
    <i name="e_fr_energy">   -177.33946585 </i>
    <i name="e_wo_entrp">   -177.32672941 </i>
    <i name="e_0_energy">   -177.33522037 </i>
   </energy>
  </scstep>
  <scstep>
   <time name="dav">    9.37    9.37</time>
   <time name="total">    9.55    9.55</time>
   <energy>
    <i name="e_fr_energy">   -177.13021990 </i>
    <i name="e_wo_entrp">   -177.12042853 </i>
    <i name="e_0_energy">   -177.12695611 </i>
   </energy>
  </scstep>
  <scstep>
   <time name="dav">    9.33    9.33</time>
   <time name="total">    9.50    9.50</time>
   <energy>
    <i name="e_fr_energy">   -177.08046002 </i>
    <i name="e_wo_entrp">   -177.06609334 </i>
    <i name="e_0_energy">   -177.07567113 </i>
   </energy>
  </scstep>
  <scstep>
   <time name="dav">    9.37    9.38</time>
   <time name="total">    9.54    9.54</time>
   <energy>
    <i name="e_fr_energy">   -177.03885505 </i>
    <i name="e_wo_entrp">   -177.02658270 </i>
    <i name="e_0_energy">   -177.03476427 </i>
   </energy>
  </scstep>
  <scstep>
   <time name="dav">    9.39    9.39</time>
   <time name="total">    9.56    9.56</time>
   <energy>
    <i name="e_fr_energy">   -177.04206245 </i>
    <i name="e_wo_entrp">   -177.02914698 </i>
    <i name="e_0_energy">   -177.03775729 </i>
   </energy>
  </scstep>
  <scstep>
   <time name="dav">    9.31    9.31</time>
   <time name="total">    9.48    9.48</time>
   <energy>
    <i name="e_fr_energy">   -177.03787127 </i>
    <i name="e_wo_entrp">   -177.02569972 </i>
    <i name="e_0_energy">   -177.03381409 </i>
   </energy>
  </scstep>
  <scstep>
   <time name="dav">    9.34    9.34</time>
   <time name="total">    9.51    9.51</time>
   <energy>
    <i name="e_fr_energy">   -177.03486598 </i>
    <i name="e_wo_entrp">   -177.02177659 </i>
    <i name="e_0_energy">   -177.03050285 </i>
   </energy>
  </scstep>
  <scstep>
   <time name="dav">    9.38    9.38</time>
   <time name="total">    9.55    9.55</time>
   <energy>
    <i name="e_fr_energy">   -177.03455880 </i>
    <i name="e_wo_entrp">   -177.02121702 </i>
    <i name="e_0_energy">   -177.03011154 </i>
   </energy>
  </scstep>
  <scstep>
   <time name="dav">    9.32    9.32</time>
   <time name="total">    9.49    9.49</time>
   <energy>
    <i name="e_fr_energy">   -177.03686461 </i>
    <i name="e_wo_entrp">   -177.02402477 </i>
    <i name="e_0_energy">   -177.03258467 </i>
   </energy>
  </scstep>
  <scstep>
   <time name="dav">    9.38    9.38</time>
   <time name="total">    9.54    9.54</time>
   <energy>
    <i name="e_fr_energy">   -177.03802185 </i>
    <i name="e_wo_entrp">   -177.02505294 </i>
    <i name="e_0_energy">   -177.03369888 </i>
   </energy>
  </scstep>
  <scstep>
   <time name="dav">    9.40    9.40</time>
   <time name="total">    9.56    9.56</time>
   <energy>
    <i name="e_fr_energy">   -177.03909545 </i>
    <i name="e_wo_entrp">   -177.02603746 </i>
    <i name="e_0_energy">   -177.03474278 </i>
   </energy>
  </scstep>
  <scstep>
   <time name="dav">    9.07    9.07</time>
   <time name="total">    9.24    9.24</time>
   <energy>
    <i name="e_fr_energy">   -177.04037578 </i>
    <i name="e_wo_entrp">   -177.02710937 </i>
    <i name="e_0_energy">   -177.03595364 </i>
   </energy>
  </scstep>
  <scstep>
   <time name="dav">    9.27    9.27</time>
   <time name="total">    9.44    9.44</time>
   <energy>
    <i name="e_fr_energy">   -177.04077659 </i>
    <i name="e_wo_entrp">   -177.02765730 </i>
    <i name="e_0_energy">   -177.03640349 </i>
   </energy>
  </scstep>
  <scstep>
   <time name="dav">    8.79    8.79</time>
   <time name="total">    8.96    8.96</time>
   <energy>
    <i name="e_fr_energy">   -177.04170694 </i>
    <i name="e_wo_entrp">   -177.02864097 </i>
    <i name="e_0_energy">   -177.03735161 </i>
   </energy>
  </scstep>
  <scstep>
   <time name="dav">    8.82    8.82</time>
   <time name="total">    8.99    8.99</time>
   <energy>
    <i name="e_fr_energy">   -177.04198965 </i>
    <i name="e_wo_entrp">   -177.02891018 </i>
    <i name="e_0_energy">   -177.03762983 </i>
   </energy>
  </scstep>
  <scstep>
   <time name="dav">    8.28    8.28</time>
   <time name="total">    8.44    8.44</time>
   <energy>
    <i name="e_fr_energy">   -177.04259283 </i>
    <i name="e_wo_entrp">   -177.02955079 </i>
    <i name="e_0_energy">   -177.03824549 </i>
   </energy>
  </scstep>
  <scstep>
   <time name="dav">    8.62    8.62</time>
   <time name="total">    8.78    8.78</time>
   <energy>
    <i name="e_fr_energy">   -177.04275287 </i>
    <i name="e_wo_entrp">   -177.02967966 </i>
    <i name="e_0_energy">   -177.03839513 </i>
   </energy>
  </scstep>
  <scstep>
   <time name="dav">    8.08    8.08</time>
   <time name="total">    8.25    8.25</time>
   <energy>
    <i name="e_fr_energy">   -177.04305555 </i>
    <i name="e_wo_entrp">   -177.02999835 </i>
    <i name="e_0_energy">   -177.03870315 </i>
   </energy>
  </scstep>
  <scstep>
   <time name="dav">    7.82    7.82</time>
   <time name="total">    7.99    7.99</time>
   <energy>
    <i name="e_fr_energy">   -177.04320632 </i>
    <i name="e_wo_entrp">   -177.03012703 </i>
    <i name="e_0_energy">   -177.03884656 </i>
   </energy>
  </scstep>
  <scstep>
   <time name="dav">    6.77    6.77</time>
   <time name="total">    6.93    6.93</time>
   <energy>
    <i name="e_fr_energy">   -177.04325179 </i>
    <i name="e_wo_entrp">   -177.03018745 </i>
    <i name="e_0_energy">   -177.03889701 </i>
   </energy>
  </scstep>
  <scstep>
   <time name="dav">    7.41    7.41</time>
   <time name="total">    7.58    7.58</time>
   <energy>
    <i name="e_fr_energy">   -177.04333481 </i>
    <i name="e_wo_entrp">   -177.03026946 </i>
    <i name="e_0_energy">   -177.03897969 </i>
   </energy>
  </scstep>
  <scstep>
   <time name="dav">    6.77    6.77</time>
   <time name="total">    6.93    6.93</time>
   <energy>
    <i name="e_fr_energy">   -177.04336222 </i>
    <i name="e_wo_entrp">   -177.03029467 </i>
    <i name="e_0_energy">   -177.03900637 </i>
   </energy>
  </scstep>
  <scstep>
   <time name="dav">    6.42    6.42</time>
   <time name="total">    6.58    6.58</time>
   <energy>
    <i name="e_fr_energy">   -177.04338231 </i>
    <i name="e_wo_entrp">   -177.03031473 </i>
    <i name="e_0_energy">   -177.03902645 </i>
   </energy>
  </scstep>
  <scstep>
   <time name="dav">    6.32    6.32</time>
   <time name="total">    6.36    6.36</time>
   <energy>
    <i name="alphaZ">    243.40284528 </i>
    <i name="ewald">  84592.39660786 </i>
    <i name="hartreedc">-110934.76477477 </i>
    <i name="XCdc">    635.25450397 </i>
    <i name="pawpsdc">  28725.24789863 </i>
    <i name="pawaedc"> -28525.96486157 </i>
    <i name="eentropy">     -0.01306783 </i>
    <i name="bandstr">  -5476.23206762 </i>
    <i name="atom">  30563.62952402 </i>
    <i name="e_fr_energy">   -177.04339203 </i>
    <i name="e_wo_entrp">   -177.03032420 </i>
    <i name="e_0_energy">   -177.03903609 </i>
   </energy>
  </scstep>
  <structure>
   <crystal>
    <varray name="basis" >
     <v>      10.15952995       0.00000000       0.00000000 </v>
     <v>       0.00000000       5.85845550       0.00000000 </v>
     <v>      -3.40301641       0.00000000      27.82536060 </v>
    </varray>
    <i name="volume">   1656.14192705 </i>
    <varray name="rec_basis" >
     <v>       0.09842975      -0.00000000       0.01203787 </v>
     <v>       0.00000000       0.17069345      -0.00000000 </v>
     <v>       0.00000000       0.00000000       0.03593844 </v>
    </varray>
   </crystal>
   <varray name="positions" >
    <v>       0.99066316       0.00000000       0.33119916 </v>
    <v>       0.49066316       0.00000000       0.50321211 </v>
    <v>       0.75933684       0.00000000       0.41078141 </v>
    <v>       0.25933684       0.00000000       0.58279436 </v>
    <v>       0.00224643       0.50000000       0.67124012 </v>
    <v>       0.50224643       0.50000000       0.49922717 </v>
    <v>       0.74775357       0.50000000       0.41476636 </v>
    <v>       0.24775357       0.50000000       0.58677931 </v>
    <v>       0.25224643       0.00000000       0.41322069 </v>
    <v>       0.75224643       0.00000000       0.58523364 </v>
    <v>       0.99775357       0.00000000       0.50077283 </v>
    <v>       0.49775357       0.00000000       0.32875988 </v>
    <v>       0.22680859       0.50000000       0.42197197 </v>
    <v>       0.72680859       0.50000000       0.59398492 </v>
    <v>       0.02319141       0.50000000       0.49202155 </v>
    <v>       0.52319141       0.50000000       0.66403451 </v>
    <v>       0.99634265       0.24268531       0.41273530 </v>
    <v>       0.49634265       0.24268531       0.58474825 </v>
    <v>       0.73195841       0.21391683       0.49379323 </v>
    <v>       0.23195841       0.21391683       0.66580618 </v>
    <v>       0.99634265       0.75731469       0.41273530 </v>
    <v>       0.49634265       0.75731469       0.58474825 </v>
    <v>       0.73195841       0.78608317       0.49379323 </v>
    <v>       0.23195841       0.78608317       0.66580618 </v>
    <v>       0.25365735       0.24268531       0.50125822 </v>
    <v>       0.75365735       0.24268531       0.32924527 </v>
    <v>       0.01804159       0.21391683       0.59221325 </v>
    <v>       0.51804159       0.21391683       0.42020030 </v>
    <v>       0.25365735       0.75731469       0.50125822 </v>
    <v>       0.75365735       0.75731469       0.32924527 </v>
    <v>       0.01804159       0.78608317       0.59221325 </v>
    <v>       0.51804159       0.78608317       0.42020030 </v>
    <v>       0.87500000       0.50000000       0.54300324 </v>
    <v>       0.37500000       0.50000000       0.37099029 </v>
   </varray>
  </structure>
  <varray name="forces" >
   <v>      -0.04049283       0.00000000       0.49778579 </v>
   <v>      -0.16642188       0.00000000       0.47092253 </v>
   <v>       0.15029825       0.00000000      -0.21003741 </v>
   <v>       0.31485116       0.00000000      -0.15197983 </v>
   <v>       0.17969570      -0.00000000      -0.94049480 </v>
   <v>      -0.23423354       0.00000000      -0.27692255 </v>
   <v>      -0.15154837       0.00000000      -0.07116604 </v>
   <v>       0.39384468       0.00000000       0.06457552 </v>
   <v>      -0.02392628       0.00000000      -0.11622012 </v>
   <v>      -0.21640225       0.00000000      -0.13001835 </v>
   <v>       0.00042897       0.00000000       0.06948433 </v>
   <v>       0.95527123       0.00000000       1.86625007 </v>
   <v>      -2.58218181       0.00000000       2.17414681 </v>
   <v>      -3.39315502       0.00000000       3.11698088 </v>
   <v>       3.01731992      -0.00000000      -2.04570781 </v>
   <v>      -0.48934942      -0.00000000      -1.28338508 </v>
   <v>       0.04159522      -0.05849791      -0.52951986 </v>
   <v>      -0.09675347       0.13558602       0.39624093 </v>
   <v>      -0.16115894       0.94808908       0.25988919 </v>
   <v>      -0.39660681       1.23691364       0.12468807 </v>
   <v>       0.04159522       0.05849791      -0.52951986 </v>
   <v>      -0.09675347      -0.13558602       0.39624093 </v>
   <v>      -0.16115894      -0.94808908       0.25988919 </v>
   <v>      -0.39660681      -1.23691364       0.12468807 </v>
   <v>       0.11348650      -0.11138153       0.02059092 </v>
   <v>       0.12822058       0.02157294      -0.19582724 </v>
   <v>      -0.09945372       0.79331716       0.50878117 </v>
   <v>       0.14440499       0.67293395      -0.26222738 </v>
   <v>       0.11348650       0.11138153       0.02059092 </v>
   <v>       0.12822058      -0.02157294      -0.19582724 </v>
   <v>      -0.09945372      -0.79331716       0.50878117 </v>
   <v>       0.14440499      -0.67293395      -0.26222738 </v>
   <v>      -0.11123817       0.00000000       0.10158517 </v>
   <v>       3.04977096      -0.00000000      -3.78103069 </v>
  </varray>
  <varray name="stress" >
   <v>     -16.39812297      -0.00000000     -25.31849418 </v>
   <v>      -0.00000000     -17.34591617       0.00000000 </v>
   <v>     -25.31849420       0.00000000       7.28406824 </v>
  </varray>
  <energy>
   <i name="e_fr_energy">   -177.04339203 </i>
   <i name="e_wo_entrp">   -177.03032420 </i>
   <i name="e_0_energy">   -177.03903609 </i>
  </energy>
  <time name="totalsc">  367.90  367.92</time>
  <eigenvalues>
   <array>
    <dimension dim="1">band</dimension>
    <dimension dim="2">kpoint</dimension>
    <dimension dim="3">spin</dimension>
    <field>eigene</field>
    <field>occ</field>
    <set>
     <set comment="spin 1">
      <set comment="kpoint 1">
       <r>  -56.9769    1.0000 </r>
       <r>  -56.9353    1.0000 </r>
       <r>  -56.9170    1.0000 </r>
       <r>  -56.8257    1.0000 </r>
       <r>  -56.6111    1.0000 </r>
       <r>  -56.5813    1.0000 </r>
       <r>  -56.4308    1.0000 </r>
       <r>  -56.3804    1.0000 </r>
       <r>  -56.3688    1.0000 </r>
       <r>  -56.3298    1.0000 </r>
       <r>  -56.1688    1.0000 </r>
       <r>  -56.1368    1.0000 </r>
       <r>  -56.0804    1.0000 </r>
       <r>  -56.0719    1.0000 </r>
       <r>  -56.0251    1.0000 </r>
       <r>  -55.9899    1.0000 </r>
       <r>  -33.3546    1.0000 </r>
       <r>  -33.3352    1.0000 </r>
       <r>  -33.2651    1.0000 </r>
       <r>  -33.2444    1.0000 </r>
       <r>  -33.2221    1.0000 </r>
       <r>  -33.1660    1.0000 </r>
       <r>  -33.1593    1.0000 </r>
       <r>  -33.1470    1.0000 </r>
       <r>  -33.1236    1.0000 </r>
       <r>  -33.0943    1.0000 </r>
       <r>  -33.0905    1.0000 </r>
       <r>  -32.9871    1.0000 </r>
       <r>  -32.9790    1.0000 </r>
       <r>  -32.9481    1.0000 </r>
       <r>  -32.8659    1.0000 </r>
       <r>  -32.8051    1.0000 </r>
       <r>  -32.8017    1.0000 </r>
       <r>  -32.7837    1.0000 </r>
       <r>  -32.7616    1.0000 </r>
       <r>  -32.7574    1.0000 </r>
       <r>  -32.7283    1.0000 </r>
       <r>  -32.7026    1.0000 </r>
       <r>  -32.7018    1.0000 </r>
       <r>  -32.6800    1.0000 </r>
       <r>  -32.6684    1.0000 </r>
       <r>  -32.6536    1.0000 </r>
       <r>  -32.6398    1.0000 </r>
       <r>  -32.5782    1.0000 </r>
       <r>  -32.5741    1.0000 </r>
       <r>  -32.5693    1.0000 </r>
       <r>  -32.5212    1.0000 </r>
       <r>  -32.5132    1.0000 </r>
       <r>  -32.5021    1.0000 </r>
       <r>  -32.4472    1.0000 </r>
       <r>  -32.4191    1.0000 </r>
       <r>  -32.4128    1.0000 </r>
       <r>  -32.4041    1.0000 </r>
       <r>  -32.3822    1.0000 </r>
       <r>  -32.3808    1.0000 </r>
       <r>  -32.3534    1.0000 </r>
       <r>  -32.3244    1.0000 </r>
       <r>  -32.3116    1.0000 </r>
       <r>  -32.2907    1.0000 </r>
       <r>  -32.2656    1.0000 </r>
       <r>  -32.2616    1.0000 </r>
       <r>  -32.2015    1.0000 </r>
       <r>  -32.1796    1.0000 </r>
       <r>  -32.1410    1.0000 </r>
       <r>  -14.5702    1.0000 </r>
       <r>  -14.4726    1.0000 </r>
       <r>  -14.4554    1.0000 </r>
       <r>  -14.4451    1.0000 </r>
       <r>  -14.3585    1.0000 </r>
       <r>  -14.1940    1.0000 </r>
       <r>  -14.1486    1.0000 </r>
       <r>  -14.1089    1.0000 </r>
       <r>  -14.1012    1.0000 </r>
       <r>  -14.0498    1.0000 </r>
       <r>   -8.5261    1.0000 </r>
       <r>   -7.6119    1.0000 </r>
       <r>   -6.9954    1.0000 </r>
       <r>   -6.5123    1.0000 </r>
       <r>   -6.4276    1.0000 </r>
       <r>   -6.0128    1.0000 </r>
       <r>   -5.4478    1.0000 </r>
       <r>   -4.9958    1.0000 </r>
       <r>   -4.6548    1.0000 </r>
       <r>   -4.3398    1.0000 </r>
       <r>   -4.0167    1.0000 </r>
       <r>   -3.7663    1.0000 </r>
       <r>   -3.7651    1.0000 </r>
       <r>   -3.7142    1.0000 </r>
       <r>   -3.3705    1.0000 </r>
       <r>   -3.3128    1.0000 </r>
       <r>   -3.2080    1.0000 </r>
       <r>   -2.9186    1.0000 </r>
       <r>   -2.8399    1.0000 </r>
       <r>   -2.6775    1.0000 </r>
       <r>   -2.4994    1.0000 </r>
       <r>   -2.4140    1.0000 </r>
       <r>   -2.4057    1.0000 </r>
       <r>   -2.1873    1.0000 </r>
       <r>   -2.0090    1.0000 </r>
       <r>   -1.9548    1.0000 </r>
       <r>   -1.8225    1.0000 </r>
       <r>   -1.8010    1.0000 </r>
       <r>   -1.7579    1.0000 </r>
       <r>   -1.5959    1.0000 </r>
       <r>   -1.4657    1.0000 </r>
       <r>   -1.3142    1.0000 </r>
       <r>   -1.2735    1.0000 </r>
       <r>   -1.1410    1.0000 </r>
       <r>   -1.0705    1.0000 </r>
       <r>   -0.9907    1.0000 </r>
       <r>   -0.9186    1.0000 </r>
       <r>   -0.8216    1.0000 </r>
       <r>   -0.6827    1.0000 </r>
       <r>   -0.6670    1.0000 </r>
       <r>   -0.5709    1.0000 </r>
       <r>   -0.5275    1.0000 </r>
       <r>   -0.4135    1.0000 </r>
       <r>   -0.3024    1.0000 </r>
       <r>   -0.2814    1.0000 </r>
       <r>   -0.1727    1.0000 </r>
       <r>   -0.1356    1.0000 </r>
       <r>   -0.0733    1.0000 </r>
       <r>   -0.0315    1.0000 </r>
       <r>    0.0303    1.0000 </r>
       <r>    0.0568    1.0000 </r>
       <r>    0.1424    1.0000 </r>
       <r>    0.1965    1.0000 </r>
       <r>    0.2252    1.0000 </r>
       <r>    0.2868    1.0002 </r>
       <r>    0.3362    1.0021 </r>
       <r>    0.3648    1.0063 </r>
       <r>    0.4981    0.9723 </r>
       <r>    0.5349    0.7901 </r>
       <r>    0.5670    0.5404 </r>
       <r>    0.5682    0.5301 </r>
       <r>    0.5884    0.3618 </r>
       <r>    0.6762   -0.0291 </r>
       <r>    0.7236   -0.0268 </r>
       <r>    0.7950   -0.0035 </r>
       <r>    0.8056   -0.0023 </r>
       <r>    0.8641   -0.0001 </r>
       <r>    0.9012   -0.0000 </r>
       <r>    0.9295   -0.0000 </r>
       <r>    1.0182   -0.0000 </r>
       <r>    1.0677   -0.0000 </r>
       <r>    1.0770   -0.0000 </r>
       <r>    1.1421   -0.0000 </r>
       <r>    1.1898   -0.0000 </r>
       <r>    1.2046   -0.0000 </r>
       <r>    1.2333   -0.0000 </r>
       <r>    1.2622   -0.0000 </r>
       <r>    1.2845   -0.0000 </r>
       <r>    1.3475   -0.0000 </r>
       <r>    1.4008   -0.0000 </r>
       <r>    1.4929   -0.0000 </r>
       <r>    1.5107   -0.0000 </r>
       <r>    1.5289   -0.0000 </r>
       <r>    1.6081   -0.0000 </r>
       <r>    1.6413   -0.0000 </r>
       <r>    1.6860   -0.0000 </r>
       <r>    1.7860   -0.0000 </r>
       <r>    1.8389   -0.0000 </r>
       <r>    1.8682   -0.0000 </r>
       <r>    1.9901   -0.0000 </r>
       <r>    2.0478   -0.0000 </r>
       <r>    2.1172   -0.0000 </r>
       <r>    2.1220   -0.0000 </r>
       <r>    2.1629   -0.0000 </r>
       <r>    2.1852   -0.0000 </r>
       <r>    2.2075   -0.0000 </r>
       <r>    2.2484   -0.0000 </r>
       <r>    2.2727   -0.0000 </r>
       <r>    2.3009   -0.0000 </r>
       <r>    2.3144   -0.0000 </r>
       <r>    2.3456   -0.0000 </r>
       <r>    2.3794   -0.0000 </r>
       <r>    2.4008   -0.0000 </r>
       <r>    2.4082   -0.0000 </r>
       <r>    2.4988   -0.0000 </r>
       <r>    2.5520   -0.0000 </r>
       <r>    2.6269    0.0000 </r>
       <r>    2.6534    0.0000 </r>
       <r>    2.7839    0.0000 </r>
       <r>    2.7861    0.0000 </r>
       <r>    2.8161    0.0000 </r>
       <r>    2.9353    0.0000 </r>
       <r>    2.9389    0.0000 </r>
       <r>    3.0286    0.0000 </r>
       <r>    3.1384    0.0000 </r>
       <r>    3.2662    0.0000 </r>
       <r>    3.2969    0.0000 </r>
       <r>    3.3836    0.0000 </r>
      </set>
      <set comment="kpoint 2">
       <r>  -56.9769    1.0000 </r>
       <r>  -56.9353    1.0000 </r>
       <r>  -56.9170    1.0000 </r>
       <r>  -56.8257    1.0000 </r>
       <r>  -56.6110    1.0000 </r>
       <r>  -56.5813    1.0000 </r>
       <r>  -56.4308    1.0000 </r>
       <r>  -56.3804    1.0000 </r>
       <r>  -56.3688    1.0000 </r>
       <r>  -56.3298    1.0000 </r>
       <r>  -56.1688    1.0000 </r>
       <r>  -56.1368    1.0000 </r>
       <r>  -56.0804    1.0000 </r>
       <r>  -56.0719    1.0000 </r>
       <r>  -56.0251    1.0000 </r>
       <r>  -55.9899    1.0000 </r>
       <r>  -33.3546    1.0000 </r>
       <r>  -33.3352    1.0000 </r>
       <r>  -33.2651    1.0000 </r>
       <r>  -33.2444    1.0000 </r>
       <r>  -33.2221    1.0000 </r>
       <r>  -33.1660    1.0000 </r>
       <r>  -33.1593    1.0000 </r>
       <r>  -33.1470    1.0000 </r>
       <r>  -33.1236    1.0000 </r>
       <r>  -33.0943    1.0000 </r>
       <r>  -33.0905    1.0000 </r>
       <r>  -32.9871    1.0000 </r>
       <r>  -32.9790    1.0000 </r>
       <r>  -32.9481    1.0000 </r>
       <r>  -32.8659    1.0000 </r>
       <r>  -32.8051    1.0000 </r>
       <r>  -32.8017    1.0000 </r>
       <r>  -32.7837    1.0000 </r>
       <r>  -32.7616    1.0000 </r>
       <r>  -32.7574    1.0000 </r>
       <r>  -32.7283    1.0000 </r>
       <r>  -32.7027    1.0000 </r>
       <r>  -32.7018    1.0000 </r>
       <r>  -32.6800    1.0000 </r>
       <r>  -32.6684    1.0000 </r>
       <r>  -32.6536    1.0000 </r>
       <r>  -32.6398    1.0000 </r>
       <r>  -32.5782    1.0000 </r>
       <r>  -32.5741    1.0000 </r>
       <r>  -32.5693    1.0000 </r>
       <r>  -32.5218    1.0000 </r>
       <r>  -32.5118    1.0000 </r>
       <r>  -32.5030    1.0000 </r>
       <r>  -32.4472    1.0000 </r>
       <r>  -32.4191    1.0000 </r>
       <r>  -32.4128    1.0000 </r>
       <r>  -32.4041    1.0000 </r>
       <r>  -32.3822    1.0000 </r>
       <r>  -32.3808    1.0000 </r>
       <r>  -32.3534    1.0000 </r>
       <r>  -32.3244    1.0000 </r>
       <r>  -32.3116    1.0000 </r>
       <r>  -32.2907    1.0000 </r>
       <r>  -32.2656    1.0000 </r>
       <r>  -32.2616    1.0000 </r>
       <r>  -32.2015    1.0000 </r>
       <r>  -32.1796    1.0000 </r>
       <r>  -32.1410    1.0000 </r>
       <r>  -14.5702    1.0000 </r>
       <r>  -14.4726    1.0000 </r>
       <r>  -14.4554    1.0000 </r>
       <r>  -14.4451    1.0000 </r>
       <r>  -14.3585    1.0000 </r>
       <r>  -14.1940    1.0000 </r>
       <r>  -14.1486    1.0000 </r>
       <r>  -14.1089    1.0000 </r>
       <r>  -14.1012    1.0000 </r>
       <r>  -14.0498    1.0000 </r>
       <r>   -8.4537    1.0000 </r>
       <r>   -7.7468    1.0000 </r>
       <r>   -7.0414    1.0000 </r>
       <r>   -6.7277    1.0000 </r>
       <r>   -6.1389    1.0000 </r>
       <r>   -5.8259    1.0000 </r>
       <r>   -5.5272    1.0000 </r>
       <r>   -4.9734    1.0000 </r>
       <r>   -4.6488    1.0000 </r>
       <r>   -4.3376    1.0000 </r>
       <r>   -4.0633    1.0000 </r>
       <r>   -3.8198    1.0000 </r>
       <r>   -3.6828    1.0000 </r>
       <r>   -3.5331    1.0000 </r>
       <r>   -3.3304    1.0000 </r>
       <r>   -3.2627    1.0000 </r>
       <r>   -3.1472    1.0000 </r>
       <r>   -2.9956    1.0000 </r>
       <r>   -2.9058    1.0000 </r>
       <r>   -2.7673    1.0000 </r>
       <r>   -2.6580    1.0000 </r>
       <r>   -2.5440    1.0000 </r>
       <r>   -2.4745    1.0000 </r>
       <r>   -2.2897    1.0000 </r>
       <r>   -2.1884    1.0000 </r>
       <r>   -2.0572    1.0000 </r>
       <r>   -2.0134    1.0000 </r>
       <r>   -1.8884    1.0000 </r>
       <r>   -1.7398    1.0000 </r>
       <r>   -1.4683    1.0000 </r>
       <r>   -1.3700    1.0000 </r>
       <r>   -1.3397    1.0000 </r>
       <r>   -1.1956    1.0000 </r>
       <r>   -1.1233    1.0000 </r>
       <r>   -1.0262    1.0000 </r>
       <r>   -0.9138    1.0000 </r>
       <r>   -0.9005    1.0000 </r>
       <r>   -0.7434    1.0000 </r>
       <r>   -0.6637    1.0000 </r>
       <r>   -0.5008    1.0000 </r>
       <r>   -0.4817    1.0000 </r>
       <r>   -0.3806    1.0000 </r>
       <r>   -0.3479    1.0000 </r>
       <r>   -0.2205    1.0000 </r>
       <r>   -0.1990    1.0000 </r>
       <r>   -0.1803    1.0000 </r>
       <r>   -0.0909    1.0000 </r>
       <r>   -0.0535    1.0000 </r>
       <r>   -0.0295    1.0000 </r>
       <r>    0.0017    1.0000 </r>
       <r>    0.1032    1.0000 </r>
       <r>    0.1421    1.0000 </r>
       <r>    0.1910    1.0000 </r>
       <r>    0.2127    1.0000 </r>
       <r>    0.2370    1.0000 </r>
       <r>    0.3259    1.0014 </r>
       <r>    0.3773    1.0095 </r>
       <r>    0.4067    1.0207 </r>
       <r>    0.4327    1.0321 </r>
       <r>    0.4864    1.0025 </r>
       <r>    0.5694    0.5202 </r>
       <r>    0.5801    0.4299 </r>
       <r>    0.7123   -0.0316 </r>
       <r>    0.7593   -0.0117 </r>
       <r>    0.8127   -0.0017 </r>
       <r>    0.8264   -0.0009 </r>
       <r>    0.9206   -0.0000 </r>
       <r>    0.9209   -0.0000 </r>
       <r>    0.9868   -0.0000 </r>
       <r>    1.0250   -0.0000 </r>
       <r>    1.0587   -0.0000 </r>
       <r>    1.0795   -0.0000 </r>
       <r>    1.1306   -0.0000 </r>
       <r>    1.1746   -0.0000 </r>
       <r>    1.2069   -0.0000 </r>
       <r>    1.2422   -0.0000 </r>
       <r>    1.3121   -0.0000 </r>
       <r>    1.3241   -0.0000 </r>
       <r>    1.3289   -0.0000 </r>
       <r>    1.3898   -0.0000 </r>
       <r>    1.4934   -0.0000 </r>
       <r>    1.5640   -0.0000 </r>
       <r>    1.6279   -0.0000 </r>
       <r>    1.6392   -0.0000 </r>
       <r>    1.7103   -0.0000 </r>
       <r>    1.7519   -0.0000 </r>
       <r>    1.8022   -0.0000 </r>
       <r>    1.8615   -0.0000 </r>
       <r>    1.8716   -0.0000 </r>
       <r>    1.9586   -0.0000 </r>
       <r>    2.0111   -0.0000 </r>
       <r>    2.0361   -0.0000 </r>
       <r>    2.0933   -0.0000 </r>
       <r>    2.0974   -0.0000 </r>
       <r>    2.1576   -0.0000 </r>
       <r>    2.2086   -0.0000 </r>
       <r>    2.2250   -0.0000 </r>
       <r>    2.2542   -0.0000 </r>
       <r>    2.3057   -0.0000 </r>
       <r>    2.3250   -0.0000 </r>
       <r>    2.3595   -0.0000 </r>
       <r>    2.4101   -0.0000 </r>
       <r>    2.4489   -0.0000 </r>
       <r>    2.4977   -0.0000 </r>
       <r>    2.5023   -0.0000 </r>
       <r>    2.5303   -0.0000 </r>
       <r>    2.5502   -0.0000 </r>
       <r>    2.6287    0.0000 </r>
       <r>    2.6670    0.0000 </r>
       <r>    2.6922    0.0000 </r>
       <r>    2.7370    0.0000 </r>
       <r>    2.8541    0.0000 </r>
       <r>    2.8913    0.0000 </r>
       <r>    2.9822    0.0000 </r>
       <r>    3.0457    0.0000 </r>
       <r>    3.1451    0.0000 </r>
       <r>    3.2438    0.0000 </r>
       <r>    3.3532    0.0000 </r>
      </set>
      <set comment="kpoint 3">
       <r>  -56.9769    1.0000 </r>
       <r>  -56.9353    1.0000 </r>
       <r>  -56.9170    1.0000 </r>
       <r>  -56.8257    1.0000 </r>
       <r>  -56.6109    1.0000 </r>
       <r>  -56.5811    1.0000 </r>
       <r>  -56.4306    1.0000 </r>
       <r>  -56.3802    1.0000 </r>
       <r>  -56.3686    1.0000 </r>
       <r>  -56.3295    1.0000 </r>
       <r>  -56.1690    1.0000 </r>
       <r>  -56.1370    1.0000 </r>
       <r>  -56.0806    1.0000 </r>
       <r>  -56.0722    1.0000 </r>
       <r>  -56.0254    1.0000 </r>
       <r>  -55.9901    1.0000 </r>
       <r>  -33.3546    1.0000 </r>
       <r>  -33.3352    1.0000 </r>
       <r>  -33.2651    1.0000 </r>
       <r>  -33.2444    1.0000 </r>
       <r>  -33.2221    1.0000 </r>
       <r>  -33.1660    1.0000 </r>
       <r>  -33.1593    1.0000 </r>
       <r>  -33.1470    1.0000 </r>
       <r>  -33.1236    1.0000 </r>
       <r>  -33.0943    1.0000 </r>
       <r>  -33.0905    1.0000 </r>
       <r>  -32.9871    1.0000 </r>
       <r>  -32.9790    1.0000 </r>
       <r>  -32.9482    1.0000 </r>
       <r>  -32.8659    1.0000 </r>
       <r>  -32.8048    1.0000 </r>
       <r>  -32.7899    1.0000 </r>
       <r>  -32.7722    1.0000 </r>
       <r>  -32.7613    1.0000 </r>
       <r>  -32.7577    1.0000 </r>
       <r>  -32.7281    1.0000 </r>
       <r>  -32.7022    1.0000 </r>
       <r>  -32.6889    1.0000 </r>
       <r>  -32.6799    1.0000 </r>
       <r>  -32.6682    1.0000 </r>
       <r>  -32.6534    1.0000 </r>
       <r>  -32.6396    1.0000 </r>
       <r>  -32.5609    1.0000 </r>
       <r>  -32.5561    1.0000 </r>
       <r>  -32.5532    1.0000 </r>
       <r>  -32.5213    1.0000 </r>
       <r>  -32.5133    1.0000 </r>
       <r>  -32.5022    1.0000 </r>
       <r>  -32.4472    1.0000 </r>
       <r>  -32.4192    1.0000 </r>
       <r>  -32.4133    1.0000 </r>
       <r>  -32.4044    1.0000 </r>
       <r>  -32.3822    1.0000 </r>
       <r>  -32.3812    1.0000 </r>
       <r>  -32.3657    1.0000 </r>
       <r>  -32.3246    1.0000 </r>
       <r>  -32.3238    1.0000 </r>
       <r>  -32.2910    1.0000 </r>
       <r>  -32.2789    1.0000 </r>
       <r>  -32.2618    1.0000 </r>
       <r>  -32.2208    1.0000 </r>
       <r>  -32.1975    1.0000 </r>
       <r>  -32.1576    1.0000 </r>
       <r>  -14.5701    1.0000 </r>
       <r>  -14.4726    1.0000 </r>
       <r>  -14.4555    1.0000 </r>
       <r>  -14.4452    1.0000 </r>
       <r>  -14.3583    1.0000 </r>
       <r>  -14.1940    1.0000 </r>
       <r>  -14.1486    1.0000 </r>
       <r>  -14.1090    1.0000 </r>
       <r>  -14.1013    1.0000 </r>
       <r>  -14.0496    1.0000 </r>
       <r>   -8.4199    1.0000 </r>
       <r>   -7.5144    1.0000 </r>
       <r>   -6.8958    1.0000 </r>
       <r>   -6.4038    1.0000 </r>
       <r>   -6.3533    1.0000 </r>
       <r>   -6.0236    1.0000 </r>
       <r>   -5.5315    1.0000 </r>
       <r>   -4.9912    1.0000 </r>
       <r>   -4.9402    1.0000 </r>
       <r>   -4.6878    1.0000 </r>
       <r>   -4.3819    1.0000 </r>
       <r>   -4.1639    1.0000 </r>
       <r>   -3.9634    1.0000 </r>
       <r>   -3.8901    1.0000 </r>
       <r>   -3.6081    1.0000 </r>
       <r>   -3.4164    1.0000 </r>
       <r>   -3.0833    1.0000 </r>
       <r>   -2.9099    1.0000 </r>
       <r>   -2.7582    1.0000 </r>
       <r>   -2.6003    1.0000 </r>
       <r>   -2.3862    1.0000 </r>
       <r>   -2.1309    1.0000 </r>
       <r>   -2.0381    1.0000 </r>
       <r>   -1.9525    1.0000 </r>
       <r>   -1.8775    1.0000 </r>
       <r>   -1.8667    1.0000 </r>
       <r>   -1.7163    1.0000 </r>
       <r>   -1.6497    1.0000 </r>
       <r>   -1.5575    1.0000 </r>
       <r>   -1.5072    1.0000 </r>
       <r>   -1.4201    1.0000 </r>
       <r>   -1.2343    1.0000 </r>
       <r>   -1.1974    1.0000 </r>
       <r>   -1.0939    1.0000 </r>
       <r>   -1.0351    1.0000 </r>
       <r>   -1.0063    1.0000 </r>
       <r>   -0.8824    1.0000 </r>
       <r>   -0.7999    1.0000 </r>
       <r>   -0.7619    1.0000 </r>
       <r>   -0.6369    1.0000 </r>
       <r>   -0.5648    1.0000 </r>
       <r>   -0.4775    1.0000 </r>
       <r>   -0.4149    1.0000 </r>
       <r>   -0.3028    1.0000 </r>
       <r>   -0.1692    1.0000 </r>
       <r>   -0.1543    1.0000 </r>
       <r>   -0.0929    1.0000 </r>
       <r>   -0.0432    1.0000 </r>
       <r>    0.0395    1.0000 </r>
       <r>    0.1140    1.0000 </r>
       <r>    0.1760    1.0000 </r>
       <r>    0.2196    1.0000 </r>
       <r>    0.2466    1.0000 </r>
       <r>    0.2853    1.0002 </r>
       <r>    0.3017    1.0004 </r>
       <r>    0.3608    1.0055 </r>
       <r>    0.3811    1.0107 </r>
       <r>    0.4349    1.0328 </r>
       <r>    0.5288    0.8291 </r>
       <r>    0.5512    0.6703 </r>
       <r>    0.5714    0.5037 </r>
       <r>    0.6240    0.1181 </r>
       <r>    0.7181   -0.0293 </r>
       <r>    0.7513   -0.0146 </r>
       <r>    0.7622   -0.0108 </r>
       <r>    0.8213   -0.0012 </r>
       <r>    0.8965   -0.0000 </r>
       <r>    0.9427   -0.0000 </r>
       <r>    0.9864   -0.0000 </r>
       <r>    1.0232   -0.0000 </r>
       <r>    1.0621   -0.0000 </r>
       <r>    1.0951   -0.0000 </r>
       <r>    1.1236   -0.0000 </r>
       <r>    1.1646   -0.0000 </r>
       <r>    1.1853   -0.0000 </r>
       <r>    1.2510   -0.0000 </r>
       <r>    1.2685   -0.0000 </r>
       <r>    1.3079   -0.0000 </r>
       <r>    1.3748   -0.0000 </r>
       <r>    1.3962   -0.0000 </r>
       <r>    1.4101   -0.0000 </r>
       <r>    1.4660   -0.0000 </r>
       <r>    1.5154   -0.0000 </r>
       <r>    1.5433   -0.0000 </r>
       <r>    1.6417   -0.0000 </r>
       <r>    1.6783   -0.0000 </r>
       <r>    1.6979   -0.0000 </r>
       <r>    1.7460   -0.0000 </r>
       <r>    1.8154   -0.0000 </r>
       <r>    1.8584   -0.0000 </r>
       <r>    1.8917   -0.0000 </r>
       <r>    1.9228   -0.0000 </r>
       <r>    1.9964   -0.0000 </r>
       <r>    2.0126   -0.0000 </r>
       <r>    2.0812   -0.0000 </r>
       <r>    2.1131   -0.0000 </r>
       <r>    2.1371   -0.0000 </r>
       <r>    2.1578   -0.0000 </r>
       <r>    2.2161   -0.0000 </r>
       <r>    2.2435   -0.0000 </r>
       <r>    2.3013   -0.0000 </r>
       <r>    2.3515   -0.0000 </r>
       <r>    2.3942   -0.0000 </r>
       <r>    2.4577   -0.0000 </r>
       <r>    2.5210   -0.0000 </r>
       <r>    2.5750    0.0000 </r>
       <r>    2.6322    0.0000 </r>
       <r>    2.6388    0.0000 </r>
       <r>    2.7004    0.0000 </r>
       <r>    2.7230    0.0000 </r>
       <r>    2.8768    0.0000 </r>
       <r>    2.9147    0.0000 </r>
       <r>    3.0038    0.0000 </r>
       <r>    3.1010    0.0000 </r>
       <r>    3.1443    0.0000 </r>
       <r>    3.2920    0.0000 </r>
       <r>    3.3617    0.0000 </r>
       <r>    3.4047    0.0000 </r>
      </set>
      <set comment="kpoint 4">
       <r>  -56.9769    1.0000 </r>
       <r>  -56.9353    1.0000 </r>
       <r>  -56.9170    1.0000 </r>
       <r>  -56.8257    1.0000 </r>
       <r>  -56.6109    1.0000 </r>
       <r>  -56.5811    1.0000 </r>
       <r>  -56.4306    1.0000 </r>
       <r>  -56.3802    1.0000 </r>
       <r>  -56.3686    1.0000 </r>
       <r>  -56.3295    1.0000 </r>
       <r>  -56.1690    1.0000 </r>
       <r>  -56.1370    1.0000 </r>
       <r>  -56.0806    1.0000 </r>
       <r>  -56.0722    1.0000 </r>
       <r>  -56.0254    1.0000 </r>
       <r>  -55.9901    1.0000 </r>
       <r>  -33.3546    1.0000 </r>
       <r>  -33.3352    1.0000 </r>
       <r>  -33.2651    1.0000 </r>
       <r>  -33.2444    1.0000 </r>
       <r>  -33.2221    1.0000 </r>
       <r>  -33.1660    1.0000 </r>
       <r>  -33.1593    1.0000 </r>
       <r>  -33.1470    1.0000 </r>
       <r>  -33.1236    1.0000 </r>
       <r>  -33.0943    1.0000 </r>
       <r>  -33.0905    1.0000 </r>
       <r>  -32.9871    1.0000 </r>
       <r>  -32.9790    1.0000 </r>
       <r>  -32.9482    1.0000 </r>
       <r>  -32.8658    1.0000 </r>
       <r>  -32.8049    1.0000 </r>
       <r>  -32.7899    1.0000 </r>
       <r>  -32.7722    1.0000 </r>
       <r>  -32.7613    1.0000 </r>
       <r>  -32.7577    1.0000 </r>
       <r>  -32.7281    1.0000 </r>
       <r>  -32.7022    1.0000 </r>
       <r>  -32.6889    1.0000 </r>
       <r>  -32.6798    1.0000 </r>
       <r>  -32.6681    1.0000 </r>
       <r>  -32.6534    1.0000 </r>
       <r>  -32.6397    1.0000 </r>
       <r>  -32.5610    1.0000 </r>
       <r>  -32.5561    1.0000 </r>
       <r>  -32.5532    1.0000 </r>
       <r>  -32.5218    1.0000 </r>
       <r>  -32.5119    1.0000 </r>
       <r>  -32.5031    1.0000 </r>
       <r>  -32.4472    1.0000 </r>
       <r>  -32.4192    1.0000 </r>
       <r>  -32.4133    1.0000 </r>
       <r>  -32.4044    1.0000 </r>
       <r>  -32.3822    1.0000 </r>
       <r>  -32.3812    1.0000 </r>
       <r>  -32.3657    1.0000 </r>
       <r>  -32.3246    1.0000 </r>
       <r>  -32.3238    1.0000 </r>
       <r>  -32.2910    1.0000 </r>
       <r>  -32.2789    1.0000 </r>
       <r>  -32.2618    1.0000 </r>
       <r>  -32.2208    1.0000 </r>
       <r>  -32.1975    1.0000 </r>
       <r>  -32.1576    1.0000 </r>
       <r>  -14.5701    1.0000 </r>
       <r>  -14.4726    1.0000 </r>
       <r>  -14.4555    1.0000 </r>
       <r>  -14.4452    1.0000 </r>
       <r>  -14.3583    1.0000 </r>
       <r>  -14.1940    1.0000 </r>
       <r>  -14.1486    1.0000 </r>
       <r>  -14.1090    1.0000 </r>
       <r>  -14.1013    1.0000 </r>
       <r>  -14.0496    1.0000 </r>
       <r>   -8.3520    1.0000 </r>
       <r>   -7.6382    1.0000 </r>
       <r>   -6.9393    1.0000 </r>
       <r>   -6.6354    1.0000 </r>
       <r>   -6.0818    1.0000 </r>
       <r>   -5.8579    1.0000 </r>
       <r>   -5.5281    1.0000 </r>
       <r>   -5.0226    1.0000 </r>
       <r>   -4.9082    1.0000 </r>
       <r>   -4.7912    1.0000 </r>
       <r>   -4.3754    1.0000 </r>
       <r>   -4.1868    1.0000 </r>
       <r>   -3.9562    1.0000 </r>
       <r>   -3.7575    1.0000 </r>
       <r>   -3.4157    1.0000 </r>
       <r>   -3.3533    1.0000 </r>
       <r>   -3.0645    1.0000 </r>
       <r>   -2.9314    1.0000 </r>
       <r>   -2.8229    1.0000 </r>
       <r>   -2.6872    1.0000 </r>
       <r>   -2.6207    1.0000 </r>
       <r>   -2.3636    1.0000 </r>
       <r>   -2.1948    1.0000 </r>
       <r>   -2.1206    1.0000 </r>
       <r>   -1.9526    1.0000 </r>
       <r>   -1.8839    1.0000 </r>
       <r>   -1.8141    1.0000 </r>
       <r>   -1.6106    1.0000 </r>
       <r>   -1.5733    1.0000 </r>
       <r>   -1.4422    1.0000 </r>
       <r>   -1.2981    1.0000 </r>
       <r>   -1.2826    1.0000 </r>
       <r>   -1.1414    1.0000 </r>
       <r>   -1.0784    1.0000 </r>
       <r>   -0.9454    1.0000 </r>
       <r>   -0.9246    1.0000 </r>
       <r>   -0.8272    1.0000 </r>
       <r>   -0.7333    1.0000 </r>
       <r>   -0.6702    1.0000 </r>
       <r>   -0.6050    1.0000 </r>
       <r>   -0.4672    1.0000 </r>
       <r>   -0.4108    1.0000 </r>
       <r>   -0.3216    1.0000 </r>
       <r>   -0.2783    1.0000 </r>
       <r>   -0.1746    1.0000 </r>
       <r>   -0.1350    1.0000 </r>
       <r>   -0.1060    1.0000 </r>
       <r>   -0.0015    1.0000 </r>
       <r>    0.0566    1.0000 </r>
       <r>    0.0759    1.0000 </r>
       <r>    0.1240    1.0000 </r>
       <r>    0.1879    1.0000 </r>
       <r>    0.2457    1.0000 </r>
       <r>    0.2750    1.0001 </r>
       <r>    0.3150    1.0009 </r>
       <r>    0.3389    1.0024 </r>
       <r>    0.4068    1.0208 </r>
       <r>    0.4315    1.0317 </r>
       <r>    0.4888    0.9973 </r>
       <r>    0.5368    0.7773 </r>
       <r>    0.6227    0.1251 </r>
       <r>    0.6713   -0.0246 </r>
       <r>    0.7182   -0.0292 </r>
       <r>    0.7777   -0.0066 </r>
       <r>    0.8088   -0.0020 </r>
       <r>    0.9033   -0.0000 </r>
       <r>    0.9310   -0.0000 </r>
       <r>    0.9551   -0.0000 </r>
       <r>    0.9946   -0.0000 </r>
       <r>    1.0197   -0.0000 </r>
       <r>    1.0658   -0.0000 </r>
       <r>    1.0913   -0.0000 </r>
       <r>    1.1328   -0.0000 </r>
       <r>    1.1799   -0.0000 </r>
       <r>    1.2071   -0.0000 </r>
       <r>    1.2323   -0.0000 </r>
       <r>    1.2646   -0.0000 </r>
       <r>    1.3152   -0.0000 </r>
       <r>    1.3608   -0.0000 </r>
       <r>    1.3848   -0.0000 </r>
       <r>    1.4467   -0.0000 </r>
       <r>    1.4880   -0.0000 </r>
       <r>    1.5169   -0.0000 </r>
       <r>    1.5578   -0.0000 </r>
       <r>    1.6258   -0.0000 </r>
       <r>    1.6478   -0.0000 </r>
       <r>    1.7267   -0.0000 </r>
       <r>    1.7993   -0.0000 </r>
       <r>    1.8105   -0.0000 </r>
       <r>    1.8730   -0.0000 </r>
       <r>    1.9152   -0.0000 </r>
       <r>    1.9514   -0.0000 </r>
       <r>    2.0100   -0.0000 </r>
       <r>    2.0256   -0.0000 </r>
       <r>    2.0777   -0.0000 </r>
       <r>    2.0989   -0.0000 </r>
       <r>    2.1389   -0.0000 </r>
       <r>    2.1757   -0.0000 </r>
       <r>    2.2153   -0.0000 </r>
       <r>    2.2481   -0.0000 </r>
       <r>    2.3052   -0.0000 </r>
       <r>    2.3292   -0.0000 </r>
       <r>    2.3680   -0.0000 </r>
       <r>    2.4081   -0.0000 </r>
       <r>    2.4478   -0.0000 </r>
       <r>    2.5372   -0.0000 </r>
       <r>    2.5730    0.0000 </r>
       <r>    2.6260    0.0000 </r>
       <r>    2.6616    0.0000 </r>
       <r>    2.7340    0.0000 </r>
       <r>    2.7946    0.0000 </r>
       <r>    2.8600    0.0000 </r>
       <r>    2.9499    0.0000 </r>
       <r>    2.9785    0.0000 </r>
       <r>    3.0577    0.0000 </r>
       <r>    3.0971    0.0000 </r>
       <r>    3.2546    0.0000 </r>
       <r>    3.3310    0.0000 </r>
      </set>
      <set comment="kpoint 5">
       <r>  -56.9769    1.0000 </r>
       <r>  -56.9353    1.0000 </r>
       <r>  -56.9170    1.0000 </r>
       <r>  -56.8257    1.0000 </r>
       <r>  -56.6106    1.0000 </r>
       <r>  -56.5809    1.0000 </r>
       <r>  -56.4302    1.0000 </r>
       <r>  -56.3798    1.0000 </r>
       <r>  -56.3682    1.0000 </r>
       <r>  -56.3288    1.0000 </r>
       <r>  -56.1693    1.0000 </r>
       <r>  -56.1373    1.0000 </r>
       <r>  -56.0810    1.0000 </r>
       <r>  -56.0729    1.0000 </r>
       <r>  -56.0259    1.0000 </r>
       <r>  -55.9906    1.0000 </r>
       <r>  -33.3546    1.0000 </r>
       <r>  -33.3352    1.0000 </r>
       <r>  -33.2651    1.0000 </r>
       <r>  -33.2444    1.0000 </r>
       <r>  -33.2221    1.0000 </r>
       <r>  -33.1660    1.0000 </r>
       <r>  -33.1594    1.0000 </r>
       <r>  -33.1470    1.0000 </r>
       <r>  -33.1236    1.0000 </r>
       <r>  -33.0943    1.0000 </r>
       <r>  -33.0905    1.0000 </r>
       <r>  -32.9871    1.0000 </r>
       <r>  -32.9790    1.0000 </r>
       <r>  -32.9484    1.0000 </r>
       <r>  -32.8656    1.0000 </r>
       <r>  -32.8044    1.0000 </r>
       <r>  -32.7641    1.0000 </r>
       <r>  -32.7609    1.0000 </r>
       <r>  -32.7578    1.0000 </r>
       <r>  -32.7474    1.0000 </r>
       <r>  -32.7278    1.0000 </r>
       <r>  -32.7012    1.0000 </r>
       <r>  -32.6800    1.0000 </r>
       <r>  -32.6677    1.0000 </r>
       <r>  -32.6605    1.0000 </r>
       <r>  -32.6529    1.0000 </r>
       <r>  -32.6392    1.0000 </r>
       <r>  -32.5212    1.0000 </r>
       <r>  -32.5202    1.0000 </r>
       <r>  -32.5179    1.0000 </r>
       <r>  -32.5135    1.0000 </r>
       <r>  -32.5103    1.0000 </r>
       <r>  -32.5023    1.0000 </r>
       <r>  -32.4469    1.0000 </r>
       <r>  -32.4192    1.0000 </r>
       <r>  -32.4144    1.0000 </r>
       <r>  -32.4048    1.0000 </r>
       <r>  -32.3930    1.0000 </r>
       <r>  -32.3818    1.0000 </r>
       <r>  -32.3818    1.0000 </r>
       <r>  -32.3504    1.0000 </r>
       <r>  -32.3248    1.0000 </r>
       <r>  -32.3087    1.0000 </r>
       <r>  -32.2914    1.0000 </r>
       <r>  -32.2682    1.0000 </r>
       <r>  -32.2623    1.0000 </r>
       <r>  -32.2395    1.0000 </r>
       <r>  -32.1957    1.0000 </r>
       <r>  -14.5699    1.0000 </r>
       <r>  -14.4727    1.0000 </r>
       <r>  -14.4559    1.0000 </r>
       <r>  -14.4454    1.0000 </r>
       <r>  -14.3579    1.0000 </r>
       <r>  -14.1939    1.0000 </r>
       <r>  -14.1486    1.0000 </r>
       <r>  -14.1092    1.0000 </r>
       <r>  -14.1016    1.0000 </r>
       <r>  -14.0493    1.0000 </r>
       <r>   -8.1267    1.0000 </r>
       <r>   -7.2643    1.0000 </r>
       <r>   -6.6930    1.0000 </r>
       <r>   -6.4982    1.0000 </r>
       <r>   -6.0971    1.0000 </r>
       <r>   -6.0314    1.0000 </r>
       <r>   -5.4907    1.0000 </r>
       <r>   -5.4343    1.0000 </r>
       <r>   -5.1793    1.0000 </r>
       <r>   -4.9723    1.0000 </r>
       <r>   -4.7298    1.0000 </r>
       <r>   -4.6475    1.0000 </r>
       <r>   -4.5067    1.0000 </r>
       <r>   -4.2298    1.0000 </r>
       <r>   -3.8773    1.0000 </r>
       <r>   -3.5395    1.0000 </r>
       <r>   -3.2683    1.0000 </r>
       <r>   -3.2214    1.0000 </r>
       <r>   -2.6633    1.0000 </r>
       <r>   -2.2884    1.0000 </r>
       <r>   -2.1973    1.0000 </r>
       <r>   -2.0186    1.0000 </r>
       <r>   -1.9084    1.0000 </r>
       <r>   -1.7124    1.0000 </r>
       <r>   -1.6862    1.0000 </r>
       <r>   -1.5761    1.0000 </r>
       <r>   -1.4821    1.0000 </r>
       <r>   -1.4016    1.0000 </r>
       <r>   -1.3359    1.0000 </r>
       <r>   -1.2119    1.0000 </r>
       <r>   -1.1668    1.0000 </r>
       <r>   -1.1041    1.0000 </r>
       <r>   -0.9991    1.0000 </r>
       <r>   -0.9698    1.0000 </r>
       <r>   -0.8289    1.0000 </r>
       <r>   -0.8083    1.0000 </r>
       <r>   -0.7576    1.0000 </r>
       <r>   -0.6714    1.0000 </r>
       <r>   -0.5988    1.0000 </r>
       <r>   -0.4835    1.0000 </r>
       <r>   -0.4069    1.0000 </r>
       <r>   -0.3337    1.0000 </r>
       <r>   -0.2503    1.0000 </r>
       <r>   -0.2085    1.0000 </r>
       <r>   -0.1343    1.0000 </r>
       <r>   -0.1000    1.0000 </r>
       <r>    0.0084    1.0000 </r>
       <r>    0.0366    1.0000 </r>
       <r>    0.1329    1.0000 </r>
       <r>    0.1980    1.0000 </r>
       <r>    0.2446    1.0000 </r>
       <r>    0.3142    1.0008 </r>
       <r>    0.3521    1.0040 </r>
       <r>    0.3727    1.0082 </r>
       <r>    0.3963    1.0162 </r>
       <r>    0.4283    1.0304 </r>
       <r>    0.4615    1.0328 </r>
       <r>    0.5099    0.9286 </r>
       <r>    0.5554    0.6368 </r>
       <r>    0.5745    0.4769 </r>
       <r>    0.5932    0.3235 </r>
       <r>    0.6737   -0.0270 </r>
       <r>    0.6838   -0.0335 </r>
       <r>    0.7659   -0.0096 </r>
       <r>    0.8146   -0.0016 </r>
       <r>    0.8559   -0.0002 </r>
       <r>    0.8968   -0.0000 </r>
       <r>    0.9523   -0.0000 </r>
       <r>    0.9711   -0.0000 </r>
       <r>    0.9932   -0.0000 </r>
       <r>    1.0328   -0.0000 </r>
       <r>    1.1016   -0.0000 </r>
       <r>    1.1176   -0.0000 </r>
       <r>    1.1432   -0.0000 </r>
       <r>    1.1560   -0.0000 </r>
       <r>    1.1747   -0.0000 </r>
       <r>    1.1854   -0.0000 </r>
       <r>    1.2336   -0.0000 </r>
       <r>    1.2911   -0.0000 </r>
       <r>    1.3256   -0.0000 </r>
       <r>    1.3499   -0.0000 </r>
       <r>    1.3769   -0.0000 </r>
       <r>    1.3990   -0.0000 </r>
       <r>    1.4718   -0.0000 </r>
       <r>    1.4948   -0.0000 </r>
       <r>    1.5488   -0.0000 </r>
       <r>    1.5627   -0.0000 </r>
       <r>    1.5850   -0.0000 </r>
       <r>    1.6222   -0.0000 </r>
       <r>    1.6664   -0.0000 </r>
       <r>    1.6826   -0.0000 </r>
       <r>    1.7443   -0.0000 </r>
       <r>    1.7956   -0.0000 </r>
       <r>    1.8130   -0.0000 </r>
       <r>    1.8509   -0.0000 </r>
       <r>    1.9130   -0.0000 </r>
       <r>    1.9634   -0.0000 </r>
       <r>    2.0792   -0.0000 </r>
       <r>    2.0870   -0.0000 </r>
       <r>    2.1409   -0.0000 </r>
       <r>    2.1617   -0.0000 </r>
       <r>    2.2376   -0.0000 </r>
       <r>    2.2529   -0.0000 </r>
       <r>    2.2991   -0.0000 </r>
       <r>    2.3902   -0.0000 </r>
       <r>    2.4393   -0.0000 </r>
       <r>    2.4995   -0.0000 </r>
       <r>    2.6278    0.0000 </r>
       <r>    2.6781    0.0000 </r>
       <r>    2.8420    0.0000 </r>
       <r>    2.9335    0.0000 </r>
       <r>    2.9970    0.0000 </r>
       <r>    3.1005    0.0000 </r>
       <r>    3.1924    0.0000 </r>
       <r>    3.2197    0.0000 </r>
       <r>    3.3013    0.0000 </r>
       <r>    3.3911    0.0000 </r>
       <r>    3.5045    0.0000 </r>
      </set>
      <set comment="kpoint 6">
       <r>  -56.9769    1.0000 </r>
       <r>  -56.9353    1.0000 </r>
       <r>  -56.9170    1.0000 </r>
       <r>  -56.8257    1.0000 </r>
       <r>  -56.6106    1.0000 </r>
       <r>  -56.5809    1.0000 </r>
       <r>  -56.4302    1.0000 </r>
       <r>  -56.3798    1.0000 </r>
       <r>  -56.3682    1.0000 </r>
       <r>  -56.3288    1.0000 </r>
       <r>  -56.1693    1.0000 </r>
       <r>  -56.1373    1.0000 </r>
       <r>  -56.0810    1.0000 </r>
       <r>  -56.0729    1.0000 </r>
       <r>  -56.0259    1.0000 </r>
       <r>  -55.9906    1.0000 </r>
       <r>  -33.3546    1.0000 </r>
       <r>  -33.3352    1.0000 </r>
       <r>  -33.2651    1.0000 </r>
       <r>  -33.2444    1.0000 </r>
       <r>  -33.2221    1.0000 </r>
       <r>  -33.1660    1.0000 </r>
       <r>  -33.1594    1.0000 </r>
       <r>  -33.1470    1.0000 </r>
       <r>  -33.1236    1.0000 </r>
       <r>  -33.0943    1.0000 </r>
       <r>  -33.0905    1.0000 </r>
       <r>  -32.9871    1.0000 </r>
       <r>  -32.9790    1.0000 </r>
       <r>  -32.9484    1.0000 </r>
       <r>  -32.8656    1.0000 </r>
       <r>  -32.8044    1.0000 </r>
       <r>  -32.7641    1.0000 </r>
       <r>  -32.7609    1.0000 </r>
       <r>  -32.7578    1.0000 </r>
       <r>  -32.7474    1.0000 </r>
       <r>  -32.7278    1.0000 </r>
       <r>  -32.7012    1.0000 </r>
       <r>  -32.6800    1.0000 </r>
       <r>  -32.6676    1.0000 </r>
       <r>  -32.6605    1.0000 </r>
       <r>  -32.6529    1.0000 </r>
       <r>  -32.6392    1.0000 </r>
       <r>  -32.5218    1.0000 </r>
       <r>  -32.5202    1.0000 </r>
       <r>  -32.5180    1.0000 </r>
       <r>  -32.5120    1.0000 </r>
       <r>  -32.5103    1.0000 </r>
       <r>  -32.5032    1.0000 </r>
       <r>  -32.4468    1.0000 </r>
       <r>  -32.4192    1.0000 </r>
       <r>  -32.4144    1.0000 </r>
       <r>  -32.4048    1.0000 </r>
       <r>  -32.3930    1.0000 </r>
       <r>  -32.3819    1.0000 </r>
       <r>  -32.3817    1.0000 </r>
       <r>  -32.3504    1.0000 </r>
[...]
       <r>    0.8475   -0.0003 </r>
       <r>    0.8840   -0.0000 </r>
       <r>    0.8859   -0.0000 </r>
       <r>    0.9512   -0.0000 </r>
       <r>    0.9670   -0.0000 </r>
       <r>    1.0323   -0.0000 </r>
       <r>    1.0707   -0.0000 </r>
       <r>    1.0946   -0.0000 </r>
       <r>    1.1092   -0.0000 </r>
       <r>    1.1414   -0.0000 </r>
       <r>    1.1925   -0.0000 </r>
       <r>    1.2023   -0.0000 </r>
       <r>    1.2199   -0.0000 </r>
       <r>    1.2804   -0.0000 </r>
       <r>    1.2965   -0.0000 </r>
       <r>    1.3062   -0.0000 </r>
       <r>    1.3472   -0.0000 </r>
       <r>    1.3874   -0.0000 </r>
       <r>    1.3918   -0.0000 </r>
       <r>    1.4233   -0.0000 </r>
       <r>    1.4720   -0.0000 </r>
       <r>    1.5212   -0.0000 </r>
       <r>    1.5312   -0.0000 </r>
       <r>    1.5708   -0.0000 </r>
       <r>    1.5892   -0.0000 </r>
       <r>    1.6507   -0.0000 </r>
       <r>    1.6655   -0.0000 </r>
       <r>    1.7472   -0.0000 </r>
       <r>    1.7495   -0.0000 </r>
       <r>    1.8103   -0.0000 </r>
       <r>    1.8291   -0.0000 </r>
       <r>    1.9035   -0.0000 </r>
       <r>    1.9210   -0.0000 </r>
       <r>    1.9704   -0.0000 </r>
       <r>    1.9822   -0.0000 </r>
       <r>    2.0729   -0.0000 </r>
       <r>    2.0873   -0.0000 </r>
       <r>    2.1804   -0.0000 </r>
       <r>    2.2489   -0.0000 </r>
       <r>    2.3058   -0.0000 </r>
       <r>    2.3229   -0.0000 </r>
       <r>    2.4024   -0.0000 </r>
       <r>    2.5268   -0.0000 </r>
       <r>    2.6333    0.0000 </r>
       <r>    2.6784    0.0000 </r>
       <r>    2.7801    0.0000 </r>
       <r>    2.7922    0.0000 </r>
       <r>    3.0191    0.0000 </r>
       <r>    3.0784    0.0000 </r>
       <r>    3.1429    0.0000 </r>
       <r>    3.3398    0.0000 </r>
       <r>    3.4112    0.0000 </r>
       <r>    3.4418    0.0000 </r>
      </set>
     </set>
    </set>
   </array>
  </eigenvalues>
  <separator name="orbital magnetization" >
   <v name="MAGDIPOLOUT">      0.00000000      0.00000000      0.00000000</v>
  </separator>
  <dos>
   <i name="efermi">      0.57181184 </i>
   <total>
    <array>
     <dimension dim="1">gridpoints</dimension>
     <dimension dim="2">spin</dimension>
     <field>energy</field>
     <field>total</field>
     <field>integrated</field>
     <set>
      <set comment="spin 1">
       <r>   -60.0039     0.0000     0.0000 </r>
       <r>   -59.7819     0.0000     0.0000 </r>
       <r>   -59.5600     0.0000     0.0000 </r>
       <r>   -59.3380     0.0000     0.0000 </r>
       <r>   -59.1160     0.0000     0.0000 </r>
       <r>   -58.8940     0.0000     0.0000 </r>
       <r>   -58.6720     0.0000     0.0000 </r>
       <r>   -58.4500     0.0000     0.0000 </r>
       <r>   -58.2280     0.0000     0.0000 </r>
       <r>   -58.0061     0.0000     0.0000 </r>
       <r>   -57.7841    -0.0000    -0.0000 </r>
       <r>   -57.5621    -0.0000    -0.0000 </r>
       <r>   -57.3401    -0.0000    -0.0000 </r>
       <r>   -57.1181    -0.4732    -0.1050 </r>
       <r>   -56.8961    23.0645     5.0149 </r>
       <r>   -56.6742    14.1362     8.1529 </r>
       <r>   -56.4522    20.7267    12.7539 </r>
       <r>   -56.2302    33.4567    20.1808 </r>
       <r>   -56.0082    43.8871    29.9231 </r>
       <r>   -55.7862     9.4384    32.0183 </r>
       <r>   -55.5642    -0.0823    32.0000 </r>
       <r>   -55.3422    -0.0000    32.0000 </r>
       <r>   -55.1203     0.0000    32.0000 </r>
       <r>   -54.8983     0.0000    32.0000 </r>
       <r>   -54.6763     0.0000    32.0000 </r>
       <r>   -54.4543     0.0000    32.0000 </r>
       <r>   -54.2323     0.0000    32.0000 </r>
       <r>   -54.0103     0.0000    32.0000 </r>
       <r>   -53.7884     0.0000    32.0000 </r>
       <r>   -53.5664     0.0000    32.0000 </r>
       <r>   -53.3444     0.0000    32.0000 </r>
       <r>   -53.1224     0.0000    32.0000 </r>
       <r>   -52.9004     0.0000    32.0000 </r>
       <r>   -52.6784     0.0000    32.0000 </r>
       <r>   -52.4564     0.0000    32.0000 </r>
       <r>   -52.2345     0.0000    32.0000 </r>
       <r>   -52.0125     0.0000    32.0000 </r>
       <r>   -51.7905     0.0000    32.0000 </r>
       <r>   -51.5685     0.0000    32.0000 </r>
       <r>   -51.3465     0.0000    32.0000 </r>
       <r>   -51.1245     0.0000    32.0000 </r>
       <r>   -50.9026     0.0000    32.0000 </r>
       <r>   -50.6806     0.0000    32.0000 </r>
       <r>   -50.4586     0.0000    32.0000 </r>
       <r>   -50.2366     0.0000    32.0000 </r>
       <r>   -50.0146     0.0000    32.0000 </r>
       <r>   -49.7926     0.0000    32.0000 </r>
       <r>   -49.5706     0.0000    32.0000 </r>
       <r>   -49.3487     0.0000    32.0000 </r>
       <r>   -49.1267     0.0000    32.0000 </r>
       <r>   -48.9047     0.0000    32.0000 </r>
       <r>   -48.6827     0.0000    32.0000 </r>
       <r>   -48.4607     0.0000    32.0000 </r>
       <r>   -48.2387     0.0000    32.0000 </r>
       <r>   -48.0168     0.0000    32.0000 </r>
       <r>   -47.7948     0.0000    32.0000 </r>
       <r>   -47.5728     0.0000    32.0000 </r>
       <r>   -47.3508     0.0000    32.0000 </r>
       <r>   -47.1288     0.0000    32.0000 </r>
       <r>   -46.9068     0.0000    32.0000 </r>
       <r>   -46.6848     0.0000    32.0000 </r>
       <r>   -46.4629     0.0000    32.0000 </r>
       <r>   -46.2409     0.0000    32.0000 </r>
       <r>   -46.0189     0.0000    32.0000 </r>
       <r>   -45.7969     0.0000    32.0000 </r>
       <r>   -45.5749     0.0000    32.0000 </r>
       <r>   -45.3529     0.0000    32.0000 </r>
       <r>   -45.1310     0.0000    32.0000 </r>
       <r>   -44.9090     0.0000    32.0000 </r>
       <r>   -44.6870     0.0000    32.0000 </r>
       <r>   -44.4650     0.0000    32.0000 </r>
       <r>   -44.2430     0.0000    32.0000 </r>
       <r>   -44.0210     0.0000    32.0000 </r>
       <r>   -43.7990     0.0000    32.0000 </r>
       <r>   -43.5771     0.0000    32.0000 </r>
       <r>   -43.3551     0.0000    32.0000 </r>
       <r>   -43.1331     0.0000    32.0000 </r>
       <r>   -42.9111     0.0000    32.0000 </r>
       <r>   -42.6891     0.0000    32.0000 </r>
       <r>   -42.4671     0.0000    32.0000 </r>
       <r>   -42.2452     0.0000    32.0000 </r>
       <r>   -42.0232     0.0000    32.0000 </r>
       <r>   -41.8012     0.0000    32.0000 </r>
       <r>   -41.5792     0.0000    32.0000 </r>
       <r>   -41.3572     0.0000    32.0000 </r>
       <r>   -41.1352     0.0000    32.0000 </r>
       <r>   -40.9132     0.0000    32.0000 </r>
       <r>   -40.6913     0.0000    32.0000 </r>
       <r>   -40.4693     0.0000    32.0000 </r>
       <r>   -40.2473     0.0000    32.0000 </r>
       <r>   -40.0253     0.0000    32.0000 </r>
       <r>   -39.8033     0.0000    32.0000 </r>
       <r>   -39.5813     0.0000    32.0000 </r>
       <r>   -39.3594     0.0000    32.0000 </r>
       <r>   -39.1374     0.0000    32.0000 </r>
       <r>   -38.9154     0.0000    32.0000 </r>
       <r>   -38.6934     0.0000    32.0000 </r>
       <r>   -38.4714     0.0000    32.0000 </r>
       <r>   -38.2494     0.0000    32.0000 </r>
       <r>   -38.0274     0.0000    32.0000 </r>
       <r>   -37.8055     0.0000    32.0000 </r>
       <r>   -37.5835     0.0000    32.0000 </r>
       <r>   -37.3615     0.0000    32.0000 </r>
       <r>   -37.1395     0.0000    32.0000 </r>
       <r>   -36.9175     0.0000    32.0000 </r>
       <r>   -36.6955     0.0000    32.0000 </r>
       <r>   -36.4736     0.0000    32.0000 </r>
       <r>   -36.2516     0.0000    32.0000 </r>
       <r>   -36.0296     0.0000    32.0000 </r>
       <r>   -35.8076     0.0000    32.0000 </r>
       <r>   -35.5856     0.0000    32.0000 </r>
       <r>   -35.3636     0.0000    32.0000 </r>
       <r>   -35.1416     0.0000    32.0000 </r>
       <r>   -34.9197     0.0000    32.0000 </r>
       <r>   -34.6977     0.0000    32.0000 </r>
       <r>   -34.4757     0.0000    32.0000 </r>
       <r>   -34.2537    -0.0000    32.0000 </r>
       <r>   -34.0317    -0.0000    32.0000 </r>
       <r>   -33.8097    -0.0000    32.0000 </r>
       <r>   -33.5878    -0.0310    31.9931 </r>
       <r>   -33.3658     4.9623    33.0947 </r>
       <r>   -33.1438    61.9733    46.8518 </r>
       <r>   -32.9218    55.3223    59.1325 </r>
       <r>   -32.6998    76.0742    76.0198 </r>
       <r>   -32.4778    92.4115    96.5337 </r>
       <r>   -32.2558   114.4477   121.9393 </r>
       <r>   -32.0339    27.7919   128.1087 </r>
       <r>   -31.8119    -0.4897   128.0000 </r>
       <r>   -31.5899    -0.0000   128.0000 </r>
       <r>   -31.3679    -0.0000   128.0000 </r>
       <r>   -31.1459     0.0000   128.0000 </r>
       <r>   -30.9239     0.0000   128.0000 </r>
       <r>   -30.7020     0.0000   128.0000 </r>
       <r>   -30.4800     0.0000   128.0000 </r>
       <r>   -30.2580     0.0000   128.0000 </r>
       <r>   -30.0360     0.0000   128.0000 </r>
       <r>   -29.8140     0.0000   128.0000 </r>
       <r>   -29.5920     0.0000   128.0000 </r>
       <r>   -29.3700     0.0000   128.0000 </r>
       <r>   -29.1481     0.0000   128.0000 </r>
       <r>   -28.9261     0.0000   128.0000 </r>
       <r>   -28.7041     0.0000   128.0000 </r>
       <r>   -28.4821     0.0000   128.0000 </r>
       <r>   -28.2601     0.0000   128.0000 </r>
       <r>   -28.0381     0.0000   128.0000 </r>
       <r>   -27.8162     0.0000   128.0000 </r>
       <r>   -27.5942     0.0000   128.0000 </r>
       <r>   -27.3722     0.0000   128.0000 </r>
       <r>   -27.1502     0.0000   128.0000 </r>
       <r>   -26.9282     0.0000   128.0000 </r>
       <r>   -26.7062     0.0000   128.0000 </r>
       <r>   -26.4842     0.0000   128.0000 </r>
       <r>   -26.2623     0.0000   128.0000 </r>
       <r>   -26.0403     0.0000   128.0000 </r>
       <r>   -25.8183     0.0000   128.0000 </r>
       <r>   -25.5963     0.0000   128.0000 </r>
       <r>   -25.3743     0.0000   128.0000 </r>
       <r>   -25.1523     0.0000   128.0000 </r>
       <r>   -24.9304     0.0000   128.0000 </r>
       <r>   -24.7084     0.0000   128.0000 </r>
       <r>   -24.4864     0.0000   128.0000 </r>
       <r>   -24.2644     0.0000   128.0000 </r>
       <r>   -24.0424     0.0000   128.0000 </r>
       <r>   -23.8204     0.0000   128.0000 </r>
       <r>   -23.5984     0.0000   128.0000 </r>
       <r>   -23.3765     0.0000   128.0000 </r>
       <r>   -23.1545     0.0000   128.0000 </r>
       <r>   -22.9325     0.0000   128.0000 </r>
       <r>   -22.7105     0.0000   128.0000 </r>
       <r>   -22.4885     0.0000   128.0000 </r>
       <r>   -22.2665     0.0000   128.0000 </r>
       <r>   -22.0446     0.0000   128.0000 </r>
       <r>   -21.8226     0.0000   128.0000 </r>
       <r>   -21.6006     0.0000   128.0000 </r>
       <r>   -21.3786     0.0000   128.0000 </r>
       <r>   -21.1566     0.0000   128.0000 </r>
       <r>   -20.9346     0.0000   128.0000 </r>
       <r>   -20.7126     0.0000   128.0000 </r>
       <r>   -20.4907     0.0000   128.0000 </r>
       <r>   -20.2687     0.0000   128.0000 </r>
       <r>   -20.0467     0.0000   128.0000 </r>
       <r>   -19.8247     0.0000   128.0000 </r>
       <r>   -19.6027     0.0000   128.0000 </r>
       <r>   -19.3807     0.0000   128.0000 </r>
       <r>   -19.1588     0.0000   128.0000 </r>
       <r>   -18.9368     0.0000   128.0000 </r>
       <r>   -18.7148     0.0000   128.0000 </r>
       <r>   -18.4928     0.0000   128.0000 </r>
       <r>   -18.2708     0.0000   128.0000 </r>
       <r>   -18.0488     0.0000   128.0000 </r>
       <r>   -17.8268     0.0000   128.0000 </r>
       <r>   -17.6049     0.0000   128.0000 </r>
       <r>   -17.3829     0.0000   128.0000 </r>
       <r>   -17.1609     0.0000   128.0000 </r>
       <r>   -16.9389     0.0000   128.0000 </r>
       <r>   -16.7169     0.0000   128.0000 </r>
       <r>   -16.4949     0.0000   128.0000 </r>
       <r>   -16.2730     0.0000   128.0000 </r>
       <r>   -16.0510     0.0000   128.0000 </r>
       <r>   -15.8290     0.0000   128.0000 </r>
       <r>   -15.6070     0.0000   128.0000 </r>
       <r>   -15.3850    -0.0000   128.0000 </r>
       <r>   -15.1630    -0.0000   128.0000 </r>
       <r>   -14.9410    -0.0000   128.0000 </r>
       <r>   -14.7191    -0.2742   127.9391 </r>
       <r>   -14.4971    14.1391   131.0778 </r>
       <r>   -14.2751    30.9136   137.9401 </r>
       <r>   -14.0531    38.8533   146.5650 </r>
       <r>   -13.8311     6.5098   148.0100 </r>
       <r>   -13.6091    -0.0452   148.0000 </r>
       <r>   -13.3872    -0.0000   148.0000 </r>
       <r>   -13.1652     0.0000   148.0000 </r>
       <r>   -12.9432     0.0000   148.0000 </r>
       <r>   -12.7212     0.0000   148.0000 </r>
       <r>   -12.4992     0.0000   148.0000 </r>
       <r>   -12.2772     0.0000   148.0000 </r>
       <r>   -12.0552     0.0000   148.0000 </r>
       <r>   -11.8333     0.0000   148.0000 </r>
       <r>   -11.6113     0.0000   148.0000 </r>
       <r>   -11.3893     0.0000   148.0000 </r>
       <r>   -11.1673     0.0000   148.0000 </r>
       <r>   -10.9453     0.0000   148.0000 </r>
       <r>   -10.7233     0.0000   148.0000 </r>
       <r>   -10.5014     0.0000   148.0000 </r>
       <r>   -10.2794     0.0000   148.0000 </r>
       <r>   -10.0574     0.0000   148.0000 </r>
       <r>    -9.8354     0.0000   148.0000 </r>
       <r>    -9.6134     0.0000   148.0000 </r>
       <r>    -9.3914    -0.0000   148.0000 </r>
       <r>    -9.1694    -0.0000   148.0000 </r>
       <r>    -8.9475    -0.0000   148.0000 </r>
       <r>    -8.7255    -0.0046   147.9990 </r>
       <r>    -8.5035     0.4265   148.0937 </r>
       <r>    -8.2815     4.0182   148.9856 </r>
       <r>    -8.0595     2.2672   149.4889 </r>
       <r>    -7.8375     1.6451   149.8541 </r>
       <r>    -7.6156     3.2783   150.5818 </r>
       <r>    -7.3936     2.0677   151.0408 </r>
       <r>    -7.1716     3.2451   151.7612 </r>
       <r>    -6.9496     3.4232   152.5211 </r>
       <r>    -6.7276     5.0768   153.6481 </r>
       <r>    -6.5056     8.0996   155.4460 </r>
       <r>    -6.2836     4.2288   156.3848 </r>
       <r>    -6.0617     5.3931   157.5819 </r>
       <r>    -5.8397     7.9216   159.3404 </r>
       <r>    -5.6177     4.5497   160.3504 </r>
       <r>    -5.3957    10.3117   162.6394 </r>
       <r>    -5.1737     4.7468   163.6931 </r>
       <r>    -4.9517    10.3012   165.9798 </r>
       <r>    -4.7298     8.6782   167.9063 </r>
       <r>    -4.5078     8.7038   169.8384 </r>
       <r>    -4.2858     8.9726   171.8301 </r>
       <r>    -4.0638     8.8017   173.7840 </r>
       <r>    -3.8418     8.6875   175.7125 </r>
       <r>    -3.6198     6.6767   177.1946 </r>
       <r>    -3.3978     7.2281   178.7991 </r>
       <r>    -3.1759    11.4487   181.3406 </r>
       <r>    -2.9539     8.0508   183.1277 </r>
       <r>    -2.7319     9.8381   185.3116 </r>
       <r>    -2.5099    12.9319   188.1823 </r>
       <r>    -2.2879    10.5822   190.5314 </r>
       <r>    -2.0659    13.2076   193.4633 </r>
       <r>    -1.8440    18.5598   197.5833 </r>
       <r>    -1.6220    16.7273   201.2965 </r>
       <r>    -1.4000    20.4089   205.8269 </r>
       <r>    -1.1780    21.1054   210.5120 </r>
       <r>    -0.9560    23.4013   215.7067 </r>
       <r>    -0.7340    25.8700   221.4495 </r>
       <r>    -0.5120    25.2444   227.0534 </r>
       <r>    -0.2901    26.4504   232.9249 </r>
       <r>    -0.0681    34.3019   240.5394 </r>
       <r>     0.1539    32.3384   247.7181 </r>
       <r>     0.3759    42.8904   257.2391 </r>
       <r>     0.5979    45.1782   267.2679 </r>
       <r>     0.8199    43.9863   277.0322 </r>
       <r>     1.0418    52.5376   288.6948 </r>
       <r>     1.2638    61.2914   302.3005 </r>
       <r>     1.4858    53.5534   314.1885 </r>
       <r>     1.7078    48.6280   324.9832 </r>
       <r>     1.9298    43.6096   334.6639 </r>
       <r>     2.1518    44.6147   344.5676 </r>
       <r>     2.3738    47.7849   355.1752 </r>
       <r>     2.5957    32.4978   362.3892 </r>
       <r>     2.8177    31.2993   369.3371 </r>
       <r>     3.0397    23.7343   374.6058 </r>
       <r>     3.2617    21.2962   379.3332 </r>
       <r>     3.4837    19.4820   383.6579 </r>
       <r>     3.7057     1.5695   384.0063 </r>
       <r>     3.9276    -0.0284   384.0000 </r>
       <r>     4.1496    -0.0000   384.0000 </r>
       <r>     4.3716     0.0000   384.0000 </r>
       <r>     4.5936     0.0000   384.0000 </r>
       <r>     4.8156     0.0000   384.0000 </r>
       <r>     5.0376     0.0000   384.0000 </r>
       <r>     5.2596     0.0000   384.0000 </r>
       <r>     5.4815     0.0000   384.0000 </r>
       <r>     5.7035     0.0000   384.0000 </r>
       <r>     5.9255     0.0000   384.0000 </r>
       <r>     6.1475     0.0000   384.0000 </r>
       <r>     6.3695     0.0000   384.0000 </r>
       <r>     6.5915     0.0000   384.0000 </r>
      </set>
     </set>
    </array>
   </total>
  </dos>
 </calculation>
 <structure name="finalpos" >
  <crystal>
   <varray name="basis" >
    <v>      10.15952995       0.00000000       0.00000000 </v>
    <v>       0.00000000       5.85845550       0.00000000 </v>
    <v>      -3.40301641       0.00000000      27.82536060 </v>
   </varray>
   <i name="volume">   1656.14192705 </i>
   <varray name="rec_basis" >
    <v>       0.09842975      -0.00000000       0.01203787 </v>
    <v>       0.00000000       0.17069345      -0.00000000 </v>
    <v>       0.00000000       0.00000000       0.03593844 </v>
   </varray>
  </crystal>
  <varray name="positions" >
   <v>       0.99066316       0.00000000       0.33119916 </v>
   <v>       0.49066316       0.00000000       0.50321211 </v>
   <v>       0.75933684       0.00000000       0.41078141 </v>
   <v>       0.25933684       0.00000000       0.58279436 </v>
   <v>       0.00224643       0.50000000       0.67124012 </v>
   <v>       0.50224643       0.50000000       0.49922717 </v>
   <v>       0.74775357       0.50000000       0.41476636 </v>
   <v>       0.24775357       0.50000000       0.58677931 </v>
   <v>       0.25224643       0.00000000       0.41322069 </v>
   <v>       0.75224643       0.00000000       0.58523364 </v>
   <v>       0.99775357       0.00000000       0.50077283 </v>
   <v>       0.49775357       0.00000000       0.32875988 </v>
   <v>       0.22680859       0.50000000       0.42197197 </v>
   <v>       0.72680859       0.50000000       0.59398492 </v>
   <v>       0.02319141       0.50000000       0.49202155 </v>
   <v>       0.52319141       0.50000000       0.66403451 </v>
   <v>       0.99634265       0.24268531       0.41273530 </v>
   <v>       0.49634265       0.24268531       0.58474825 </v>
   <v>       0.73195841       0.21391683       0.49379323 </v>
   <v>       0.23195841       0.21391683       0.66580618 </v>
   <v>       0.99634265       0.75731469       0.41273530 </v>
   <v>       0.49634265       0.75731469       0.58474825 </v>
   <v>       0.73195841       0.78608317       0.49379323 </v>
   <v>       0.23195841       0.78608317       0.66580618 </v>
   <v>       0.25365735       0.24268531       0.50125822 </v>
   <v>       0.75365735       0.24268531       0.32924527 </v>
   <v>       0.01804159       0.21391683       0.59221325 </v>
   <v>       0.51804159       0.21391683       0.42020030 </v>
   <v>       0.25365735       0.75731469       0.50125822 </v>
   <v>       0.75365735       0.75731469       0.32924527 </v>
   <v>       0.01804159       0.78608317       0.59221325 </v>
   <v>       0.51804159       0.78608317       0.42020030 </v>
   <v>       0.87500000       0.50000000       0.54300324 </v>
   <v>       0.37500000       0.50000000       0.37099029 </v>
  </varray>
 </structure>
</modeling>
