unknown system                          
           1
    10.159530    0.000000    0.000000
     0.000000    5.858456    0.000000
    -3.403016    0.000000   27.825361
   Ti   Al   Ga
    16    16     2
Direct configuration=     1
   0.99066316  0.00000000  0.33119916
   0.49066316  0.00000000  0.50321211
   0.75933684  0.00000000  0.41078141
   0.25933684  0.00000000  0.58279436
   0.00224643  0.50000000  0.67124012
   0.50224643  0.50000000  0.49922717
   0.74775357  0.50000000  0.41476636
   0.24775357  0.50000000  0.58677931
   0.25224643  0.00000000  0.41322069
   0.75224643  0.00000000  0.58523364
   0.99775357  0.00000000  0.50077283
   0.49775357  0.00000000  0.32875988
   0.22680859  0.50000000  0.42197197
   0.72680859  0.50000000  0.59398492
   0.02319141  0.50000000  0.49202155
   0.52319141  0.50000000  0.66403451
   0.99634265  0.24268531  0.41273530
   0.49634265  0.24268531  0.58474825
   0.73195841  0.21391683  0.49379323
   0.23195841  0.21391683  0.66580618
   0.99634265  0.75731469  0.41273530
   0.49634265  0.75731469  0.58474825
   0.73195841  0.78608317  0.49379323
   0.23195841  0.78608317  0.66580618
   0.25365735  0.24268531  0.50125822
   0.75365735  0.24268531  0.32924527
   0.01804159  0.21391683  0.59221325
   0.51804159  0.21391683  0.42020030
   0.25365735  0.75731469  0.50125822
   0.75365735  0.75731469  0.32924527
   0.01804159  0.78608317  0.59221325
   0.51804159  0.78608317  0.42020030
   0.87500000  0.50000000  0.54300324
   0.37500000  0.50000000  0.37099029
