  24  24   0   0
  0.1041704E+02  0.5582428E-09  0.5582428E-09  0.8022492E-09  0.1500000E-16
  1.000000000000000E-004
  CAR 
 unknown system                          
     12.38947295    -50.96137447  301      8.46289547      1.00000000
    -50.961  0.0000E+00  0.0000E+00
    -50.750  0.0000E+00  0.0000E+00
    -50.539  0.0000E+00  0.0000E+00
    -50.328  0.0000E+00  0.0000E+00
    -50.117  0.0000E+00  0.0000E+00
    -49.906  0.0000E+00  0.0000E+00
    -49.694 -0.2045E-29 -0.4318E-30
    -49.483 -0.1711E-22 -0.3614E-23
    -49.272 -0.1553E-16 -0.3279E-17
    -49.061 -0.1471E-11 -0.3107E-12
    -48.850 -0.1539E-07 -0.3250E-08
    -48.639 -0.1683E-04 -0.3558E-05
    -48.427 -0.1703E-02 -0.3632E-03
    -48.216 -0.2252E-02 -0.8387E-03
    -48.005  0.1309E+00  0.2681E-01
    -47.794  0.1125E+00  0.5056E-01
    -47.583 -0.5105E-02  0.4948E-01
    -47.371 -0.1188E-02  0.4923E-01
    -47.160 -0.8988E-05  0.4923E-01
    -46.949 -0.6431E-08  0.4923E-01
    -46.738 -0.4824E-12  0.4923E-01
    -46.527 -0.1797E-17  0.4923E-01
    -46.316  0.0000E+00  0.4923E-01
    -46.104  0.0000E+00  0.4923E-01
    -45.893  0.0000E+00  0.4923E-01
    -45.682  0.0000E+00  0.4923E-01
    -45.471  0.0000E+00  0.4923E-01
    -45.260  0.0000E+00  0.4923E-01
    -45.049  0.0000E+00  0.4923E-01
    -44.837  0.0000E+00  0.4923E-01
    -44.626  0.0000E+00  0.4923E-01
    -44.415  0.0000E+00  0.4923E-01
    -44.204  0.0000E+00  0.4923E-01
    -43.993  0.0000E+00  0.4923E-01
    -43.782  0.0000E+00  0.4923E-01
    -43.570  0.0000E+00  0.4923E-01
    -43.359  0.0000E+00  0.4923E-01
    -43.148  0.0000E+00  0.4923E-01
    -42.937  0.0000E+00  0.4923E-01
    -42.726  0.0000E+00  0.4923E-01
    -42.515  0.0000E+00  0.4923E-01
    -42.303  0.0000E+00  0.4923E-01
    -42.092  0.0000E+00  0.4923E-01
    -41.881  0.0000E+00  0.4923E-01
    -41.670  0.0000E+00  0.4923E-01
    -41.459  0.0000E+00  0.4923E-01
    -41.248  0.0000E+00  0.4923E-01
    -41.036  0.0000E+00  0.4923E-01
    -40.825  0.0000E+00  0.4923E-01
    -40.614  0.0000E+00  0.4923E-01
    -40.403  0.0000E+00  0.4923E-01
    -40.192  0.0000E+00  0.4923E-01
    -39.981  0.0000E+00  0.4923E-01
    -39.769  0.0000E+00  0.4923E-01
    -39.558  0.0000E+00  0.4923E-01
    -39.347  0.0000E+00  0.4923E-01
    -39.136  0.0000E+00  0.4923E-01
    -38.925  0.0000E+00  0.4923E-01
    -38.714  0.0000E+00  0.4923E-01
    -38.502  0.0000E+00  0.4923E-01
    -38.291  0.0000E+00  0.4923E-01
    -38.080  0.0000E+00  0.4923E-01
    -37.869  0.0000E+00  0.4923E-01
    -37.658  0.0000E+00  0.4923E-01
    -37.447  0.0000E+00  0.4923E-01
    -37.235  0.0000E+00  0.4923E-01
    -37.024  0.0000E+00  0.4923E-01
    -36.813  0.0000E+00  0.4923E-01
    -36.602  0.0000E+00  0.4923E-01
    -36.391  0.0000E+00  0.4923E-01
    -36.180  0.0000E+00  0.4923E-01
    -35.968  0.0000E+00  0.4923E-01
    -35.757  0.0000E+00  0.4923E-01
    -35.546  0.0000E+00  0.4923E-01
    -35.335  0.0000E+00  0.4923E-01
    -35.124  0.0000E+00  0.4923E-01
    -34.912  0.0000E+00  0.4923E-01
    -34.701  0.0000E+00  0.4923E-01
    -34.490  0.0000E+00  0.4923E-01
    -34.279  0.0000E+00  0.4923E-01
    -34.068  0.0000E+00  0.4923E-01
    -33.857  0.0000E+00  0.4923E-01
    -33.645  0.0000E+00  0.4923E-01
    -33.434  0.0000E+00  0.4923E-01
    -33.223  0.0000E+00  0.4923E-01
    -33.012  0.0000E+00  0.4923E-01
    -32.801  0.0000E+00  0.4923E-01
    -32.590  0.0000E+00  0.4923E-01
    -32.378  0.0000E+00  0.4923E-01
    -32.167  0.0000E+00  0.4923E-01
    -31.956  0.0000E+00  0.4923E-01
    -31.745  0.0000E+00  0.4923E-01
    -31.534  0.0000E+00  0.4923E-01
    -31.323  0.0000E+00  0.4923E-01
    -31.111  0.0000E+00  0.4923E-01
    -30.900  0.0000E+00  0.4923E-01
    -30.689  0.0000E+00  0.4923E-01
    -30.478  0.0000E+00  0.4923E-01
    -30.267  0.0000E+00  0.4923E-01
    -30.056  0.0000E+00  0.4923E-01
    -29.844  0.0000E+00  0.4923E-01
    -29.633  0.0000E+00  0.4923E-01
    -29.422  0.0000E+00  0.4923E-01
    -29.211  0.0000E+00  0.4923E-01
    -29.000  0.0000E+00  0.4923E-01
    -28.789  0.0000E+00  0.4923E-01
    -28.577  0.0000E+00  0.4923E-01
    -28.366  0.0000E+00  0.4923E-01
    -28.155  0.0000E+00  0.4923E-01
    -27.944  0.0000E+00  0.4923E-01
    -27.733  0.0000E+00  0.4923E-01
    -27.522  0.0000E+00  0.4923E-01
    -27.310  0.0000E+00  0.4923E-01
    -27.099  0.0000E+00  0.4923E-01
    -26.888  0.0000E+00  0.4923E-01
    -26.677  0.0000E+00  0.4923E-01
    -26.466  0.0000E+00  0.4923E-01
    -26.255 -0.5321E-33  0.4923E-01
    -26.043 -0.1164E-25  0.4923E-01
    -25.832 -0.2765E-19  0.4923E-01
    -25.621 -0.6945E-14  0.4923E-01
    -25.410 -0.1952E-09  0.4923E-01
    -25.199 -0.6030E-06  0.4923E-01
    -24.988 -0.2035E-03  0.4919E-01
    -24.776 -0.6454E-02  0.4782E-01
    -24.565  0.2847E-01  0.5384E-01
    -24.354  0.2920E+00  0.1155E+00
    -24.143  0.2401E+00  0.1662E+00
    -23.932  0.1308E+00  0.1938E+00
    -23.721  0.1851E-01  0.1977E+00
    -23.509 -0.3633E-02  0.1969E+00
    -23.298 -0.1201E-03  0.1969E+00
    -23.087 -0.3137E-06  0.1969E+00
    -22.876 -0.8265E-10  0.1969E+00
    -22.665 -0.2305E-14  0.1969E+00
    -22.453  0.0000E+00  0.1969E+00
    -22.242  0.0000E+00  0.1969E+00
    -22.031  0.0000E+00  0.1969E+00
    -21.820  0.0000E+00  0.1969E+00
    -21.609  0.0000E+00  0.1969E+00
    -21.398  0.0000E+00  0.1969E+00
    -21.186  0.0000E+00  0.1969E+00
    -20.975  0.0000E+00  0.1969E+00
    -20.764  0.0000E+00  0.1969E+00
    -20.553  0.0000E+00  0.1969E+00
    -20.342  0.0000E+00  0.1969E+00
    -20.131  0.0000E+00  0.1969E+00
    -19.919  0.0000E+00  0.1969E+00
    -19.708  0.0000E+00  0.1969E+00
    -19.497  0.0000E+00  0.1969E+00
    -19.286  0.0000E+00  0.1969E+00
    -19.075  0.0000E+00  0.1969E+00
    -18.864  0.0000E+00  0.1969E+00
    -18.652  0.0000E+00  0.1969E+00
    -18.441  0.0000E+00  0.1969E+00
    -18.230  0.0000E+00  0.1969E+00
    -18.019  0.0000E+00  0.1969E+00
    -17.808  0.0000E+00  0.1969E+00
    -17.597  0.0000E+00  0.1969E+00
    -17.385  0.0000E+00  0.1969E+00
    -17.174  0.0000E+00  0.1969E+00
    -16.963  0.0000E+00  0.1969E+00
    -16.752  0.0000E+00  0.1969E+00
    -16.541  0.0000E+00  0.1969E+00
    -16.330  0.0000E+00  0.1969E+00
    -16.118  0.0000E+00  0.1969E+00
    -15.907  0.0000E+00  0.1969E+00
    -15.696  0.0000E+00  0.1969E+00
    -15.485  0.0000E+00  0.1969E+00
    -15.274  0.0000E+00  0.1969E+00
    -15.063  0.0000E+00  0.1969E+00
    -14.851  0.0000E+00  0.1969E+00
    -14.640  0.0000E+00  0.1969E+00
    -14.429  0.0000E+00  0.1969E+00
    -14.218  0.0000E+00  0.1969E+00
    -14.007  0.0000E+00  0.1969E+00
    -13.796  0.0000E+00  0.1969E+00
    -13.584  0.0000E+00  0.1969E+00
    -13.373  0.0000E+00  0.1969E+00
    -13.162  0.0000E+00  0.1969E+00
    -12.951  0.0000E+00  0.1969E+00
    -12.740  0.0000E+00  0.1969E+00
    -12.529  0.0000E+00  0.1969E+00
    -12.317  0.0000E+00  0.1969E+00
    -12.106  0.0000E+00  0.1969E+00
    -11.895  0.0000E+00  0.1969E+00
    -11.684  0.0000E+00  0.1969E+00
    -11.473  0.0000E+00  0.1969E+00
    -11.262  0.0000E+00  0.1969E+00
    -11.050  0.0000E+00  0.1969E+00
    -10.839  0.0000E+00  0.1969E+00
    -10.628  0.0000E+00  0.1969E+00
    -10.417  0.0000E+00  0.1969E+00
    -10.206  0.0000E+00  0.1969E+00
     -9.994  0.0000E+00  0.1969E+00
     -9.783  0.0000E+00  0.1969E+00
     -9.572  0.0000E+00  0.1969E+00
     -9.361  0.0000E+00  0.1969E+00
     -9.150  0.0000E+00  0.1969E+00
     -8.939  0.0000E+00  0.1969E+00
     -8.727  0.0000E+00  0.1969E+00
     -8.516  0.0000E+00  0.1969E+00
     -8.305  0.0000E+00  0.1969E+00
     -8.094  0.0000E+00  0.1969E+00
     -7.883  0.0000E+00  0.1969E+00
     -7.672  0.0000E+00  0.1969E+00
     -7.460  0.0000E+00  0.1969E+00
     -7.249  0.0000E+00  0.1969E+00
     -7.038  0.0000E+00  0.1969E+00
     -6.827  0.0000E+00  0.1969E+00
     -6.616  0.0000E+00  0.1969E+00
     -6.405  0.0000E+00  0.1969E+00
     -6.193  0.0000E+00  0.1969E+00
     -5.982  0.0000E+00  0.1969E+00
     -5.771  0.0000E+00  0.1969E+00
     -5.560  0.0000E+00  0.1969E+00
     -5.349  0.0000E+00  0.1969E+00
     -5.138  0.0000E+00  0.1969E+00
     -4.926  0.0000E+00  0.1969E+00
     -4.715  0.0000E+00  0.1969E+00
     -4.504  0.0000E+00  0.1969E+00
     -4.293  0.0000E+00  0.1969E+00
     -4.082  0.0000E+00  0.1969E+00
     -3.871  0.0000E+00  0.1969E+00
     -3.659  0.0000E+00  0.1969E+00
     -3.448  0.0000E+00  0.1969E+00
     -3.237  0.0000E+00  0.1969E+00
     -3.026  0.0000E+00  0.1969E+00
     -2.815  0.0000E+00  0.1969E+00
     -2.604  0.0000E+00  0.1969E+00
     -2.392  0.0000E+00  0.1969E+00
     -2.181 -0.2772E-36  0.1969E+00
     -1.970 -0.8473E-29  0.1969E+00
     -1.759 -0.2734E-22  0.1969E+00
     -1.548 -0.8966E-17  0.1969E+00
     -1.337 -0.3109E-12  0.1969E+00
     -1.125 -0.1099E-08  0.1969E+00
     -0.914 -0.3931E-06  0.1969E+00
     -0.703 -0.1467E-04  0.1969E+00
     -0.492 -0.1113E-04  0.1969E+00
     -0.281  0.9332E-03  0.1971E+00
     -0.070  0.2775E-02  0.1977E+00
      0.142  0.2682E-02  0.1983E+00
      0.353  0.5877E-02  0.1995E+00
      0.564  0.4334E-02  0.2004E+00
      0.775  0.5058E-02  0.2015E+00
      0.986  0.8778E-02  0.2033E+00
      1.197  0.7140E-02  0.2049E+00
      1.409  0.1066E-01  0.2071E+00
      1.620  0.6853E-02  0.2086E+00
      1.831  0.9772E-02  0.2106E+00
      2.042  0.1068E-01  0.2129E+00
      2.253  0.1095E-01  0.2152E+00
      2.465  0.8726E-02  0.2170E+00
      2.676  0.7741E-02  0.2187E+00
      2.887  0.1038E-01  0.2209E+00
      3.098  0.1221E-01  0.2234E+00
      3.309  0.1158E-01  0.2259E+00
      3.520  0.1373E-01  0.2288E+00
      3.732  0.1004E-01  0.2309E+00
      3.943  0.1263E-01  0.2336E+00
      4.154  0.1576E-01  0.2369E+00
      4.365  0.1388E-01  0.2398E+00
      4.576  0.1255E-01  0.2425E+00
      4.787  0.1508E-01  0.2457E+00
      4.999  0.1140E-01  0.2481E+00
      5.210  0.1417E-01  0.2511E+00
      5.421  0.1645E-01  0.2545E+00
      5.632  0.2197E-01  0.2592E+00
      5.843  0.2134E-01  0.2637E+00
      6.054  0.2317E-01  0.2686E+00
      6.266  0.3140E-01  0.2752E+00
      6.477  0.3690E-01  0.2830E+00
      6.688  0.3910E-01  0.2912E+00
      6.899  0.4048E-01  0.2998E+00
      7.110  0.5942E-01  0.3123E+00
      7.321  0.4501E-01  0.3219E+00
      7.533  0.2624E-01  0.3274E+00
      7.744  0.3005E-01  0.3337E+00
      7.955  0.4618E-01  0.3435E+00
      8.166  0.6344E-01  0.3569E+00
      8.377  0.6807E-01  0.3713E+00
      8.588  0.6201E-01  0.3844E+00
      8.800  0.5714E-01  0.3964E+00
      9.011  0.8742E-01  0.4149E+00
      9.222  0.2041E+00  0.4580E+00
      9.433  0.3029E+00  0.5219E+00
      9.644  0.1034E+00  0.5438E+00
      9.855 -0.9682E-02  0.5417E+00
     10.067 -0.8841E-03  0.5415E+00
     10.278 -0.5218E-05  0.5415E+00
     10.489 -0.3422E-08  0.5415E+00
     10.700 -0.2685E-12  0.5415E+00
     10.911 -0.1887E-17  0.5415E+00
     11.122  0.0000E+00  0.5415E+00
     11.334  0.0000E+00  0.5415E+00
     11.545  0.0000E+00  0.5415E+00
     11.756  0.0000E+00  0.5415E+00
     11.967  0.0000E+00  0.5415E+00
     12.178  0.0000E+00  0.5415E+00
     12.389  0.0000E+00  0.5415E+00
