   24   24  325    1
  0.1041704E+02  0.5582428E-09  0.5582428E-09  0.8022492E-09  0.1500000E-16
  1.000000000000000E-004
  CAR 
 unknown system                          
    122     30     88
 
  0.1276756E-14  0.1276756E-14  0.1276756E-14  0.6944444E-02
      1        -48.081790   1.000000
      2        -48.080985   1.000000
      3        -48.015578   1.000000
      4        -48.015578   1.000000
      5        -48.014936   1.000000
      6        -48.014936   1.000000
      7        -47.951944   1.000000
      8        -47.951304   1.000000
      9        -24.548415   1.000000
     10        -24.548390   1.000000
     11        -24.545356   1.000000
     12        -24.545338   1.000000
     13        -24.472358   1.000000
     14        -24.472358   1.000000
     15        -24.470774   1.000000
     16        -24.470774   1.000000
     17        -24.465334   1.000000
     18        -24.445250   1.000000
     19        -24.395205   1.000000
     20        -24.395205   1.000000
     21        -24.380633   1.000000
     22        -24.380633   1.000000
     23        -24.333337   1.000000
     24        -24.320858   1.000000
     25        -24.022210   1.000000
     26        -24.022210   1.000000
     27        -24.021509   1.000000
     28        -24.021509   1.000000
     29        -23.975600   1.000000
     30        -23.975563   1.000000
     31        -23.974794   1.000000
     32        -23.974790   1.000000
     33         -0.431087   1.000000
     34          1.141775   1.000000
     35          3.275603   1.000000
     36          3.716483   1.000000
     37          3.716674   1.000000
     38          4.064201   1.000000
     39          4.064201   1.000000
     40          4.153489   1.000000
     41          4.153710   1.000000
     42          5.279609   1.000000
     43          5.750496   1.000000
     44          5.750496   1.000000
     45          5.927825   1.000000
     46          6.299901   1.000000
     47          6.299901   1.000000
     48          6.540912   1.000000
     49          6.840011   1.000000
     50          6.840096   1.000000
     51          7.173130   1.000000
     52          7.173130   1.000000
     53          7.504678   1.000000
     54          7.504817   1.000000
     55          7.541420   1.000000
     56          7.693450   1.000000
     57          7.796747   1.000013
     58          7.963792   1.001181
     59          7.963792   1.001181
     60          8.261289   1.025941
     61          8.261289   1.025941
     62          8.266714   1.023031
     63          8.266714   1.023031
     64          8.393400   0.775305
     65          8.786961  -0.022128
     66          9.138592  -0.000010
     67          9.138592  -0.000010
     68          9.139265  -0.000009
     69          9.139265  -0.000009
     70          9.155270  -0.000006
     71          9.197274  -0.000001
     72          9.198442  -0.000001
     73          9.235521  -0.000000
     74          9.235521  -0.000000
     75          9.238495  -0.000000
     76          9.298617  -0.000000
     77          9.300025  -0.000000
     78          9.304572  -0.000000
     79          9.305754  -0.000000
     80          9.306314  -0.000000
     81          9.315278  -0.000000
     82          9.324952  -0.000000
     83          9.324952  -0.000000
     84          9.332178  -0.000000
     85          9.332179  -0.000000
     86          9.345343  -0.000000
     87          9.393420  -0.000000
     88          9.394004  -0.000000
 
  0.1666667E+00  0.1276756E-14  0.1276756E-14  0.2777778E-01
      1        -48.077385   1.000000
      2        -48.076592   1.000000
      3        -48.020049   1.000000
      4        -48.019390   1.000000
      5        -48.011353   1.000000
      6        -48.010703   1.000000
      7        -47.956230   1.000000
      8        -47.955599   1.000000
      9        -24.543349   1.000000
     10        -24.540385   1.000000
     11        -24.514147   1.000000
     12        -24.511232   1.000000
     13        -24.477486   1.000000
     14        -24.475803   1.000000
     15        -24.460668   1.000000
     16        -24.440950   1.000000
     17        -24.439932   1.000000
     18        -24.438398   1.000000
     19        -24.399919   1.000000
     20        -24.391081   1.000000
     21        -24.384983   1.000000
     22        -24.376653   1.000000
     23        -24.337516   1.000000
     24        -24.324884   1.000000
     25        -24.058498   1.000000
     26        -24.057634   1.000000
     27        -24.019099   1.000000
     28        -24.018392   1.000000
     29        -24.009765   1.000000
     30        -24.008916   1.000000
     31        -23.978731   1.000000
     32        -23.977940   1.000000
     33         -0.291471   1.000000
     34          1.240986   1.000000
     35          2.820635   1.000000
     36          3.322857   1.000000
     37          3.432498   1.000000
     38          3.827727   1.000000
     39          4.201353   1.000000
     40          4.225310   1.000000
     41          5.210322   1.000000
     42          5.478812   1.000000
     43          5.792982   1.000000
     44          5.988279   1.000000
     45          6.012186   1.000000
     46          6.235064   1.000000
     47          6.273102   1.000000
     48          6.421366   1.000000
     49          6.650416   1.000000
     50          6.908536   1.000000
     51          6.920890   1.000000
     52          6.983954   1.000000
     53          7.360877   1.000000
     54          7.362969   1.000000
     55          7.591838   1.000000
     56          7.870522   1.000115
     57          7.886094   1.000176
     58          8.008065   1.002991
     59          8.053950   1.006900
     60          8.128940   1.019882
     61          8.243366   1.032518
     62          8.248729   1.031002
     63          8.411068   0.711350
     64          8.718163  -0.035076
     65          8.821617  -0.014678
     66          9.086914  -0.000047
     67          9.089763  -0.000043
     68          9.103091  -0.000029
     69          9.124515  -0.000015
     70          9.149498  -0.000007
     71          9.150103  -0.000007
     72          9.224603  -0.000001
     73          9.224840  -0.000000
     74          9.245018  -0.000000
     75          9.281018  -0.000000
     76          9.292569  -0.000000
     77          9.297034  -0.000000
     78          9.298851  -0.000000
     79          9.309636  -0.000000
     80          9.310985  -0.000000
     81          9.315082  -0.000000
     82          9.316818  -0.000000
     83          9.338816  -0.000000
     84          9.341388  -0.000000
     85          9.349866  -0.000000
     86          9.356050  -0.000000
     87          9.399465  -0.000000
     88          9.406050  -0.000000
 
  0.3333333E+00  0.1276756E-14  0.1276756E-14  0.2777778E-01
      1        -48.065334   1.000000
      2        -48.064572   1.000000
      3        -48.032236   1.000000
      4        -48.031547   1.000000
      5        -47.999764   1.000000
      6        -47.999128   1.000000
      7        -47.967938   1.000000
      8        -47.967308   1.000000
      9        -24.529502   1.000000
     10        -24.526813   1.000000
     11        -24.491474   1.000000
     12        -24.489520   1.000000
     13        -24.447886   1.000000
     14        -24.429179   1.000000
     15        -24.419858   1.000000
     16        -24.417362   1.000000
     17        -24.412822   1.000000
     18        -24.396864   1.000000
     19        -24.379810   1.000000
     20        -24.365756   1.000000
     21        -24.350758   1.000000
     22        -24.349358   1.000000
     23        -24.348872   1.000000
     24        -24.335870   1.000000
     25        -24.156850   1.000000
     26        -24.155540   1.000000
     27        -24.102446   1.000000
     28        -24.101454   1.000000
     29        -24.010600   1.000000
     30        -24.009877   1.000000
     31        -23.987277   1.000000
     32        -23.986516   1.000000
     33          0.121648   1.000000
     34          1.534816   1.000000
     35          1.701885   1.000000
     36          2.636156   1.000000
     37          3.885925   1.000000
     38          4.154978   1.000000
     39          4.426795   1.000000
     40          4.601398   1.000000
     41          5.005649   1.000000
     42          5.335168   1.000000
     43          5.467016   1.000000
     44          5.907143   1.000000
     45          6.053263   1.000000
     46          6.189382   1.000000
     47          6.252397   1.000000
     48          6.713542   1.000000
     49          6.940384   1.000000
     50          7.014309   1.000000
     51          7.101718   1.000000
     52          7.151527   1.000000
     53          7.168239   1.000000
     54          7.670616   1.000000
     55          7.677907   1.000000
     56          7.807828   1.000018
     57          7.876947   1.000138
     58          7.893687   1.000215
     59          8.056751   1.007230
     60          8.284461   1.010018
     61          8.302130   0.991020
     62          8.317772   0.968499
     63          8.769812  -0.026087
     64          8.808252  -0.017396
     65          8.888053  -0.005214
     66          8.904658  -0.003846
     67          8.922528  -0.002719
     68          8.924424  -0.002618
     69          8.997880  -0.000512
     70          9.179928  -0.000002
     71          9.180752  -0.000002
     72          9.199784  -0.000001
     73          9.201792  -0.000001
     74          9.204667  -0.000001
     75          9.272948  -0.000000
     76          9.276815  -0.000000
     77          9.281919  -0.000000
     78          9.294592  -0.000000
     79          9.325640  -0.000000
     80          9.336214  -0.000000
     81          9.341294  -0.000000
     82          9.366042  -0.000000
     83          9.369910  -0.000000
     84          9.378198  -0.000000
     85          9.381861  -0.000000
     86          9.416130  -0.000000
     87          9.421049  -0.000000
     88          9.430302  -0.000000
 
  0.5000000E+00  0.1276756E-14  0.1276756E-14  0.1388889E-01
      1        -48.048825   1.000000
      2        -48.048815   1.000000
      3        -48.048093   1.000000
      4        -48.048084   1.000000
      5        -47.983894   1.000000
      6        -47.983885   1.000000
      7        -47.983258   1.000000
      8        -47.983249   1.000000
      9        -24.510530   1.000000
     10        -24.510521   1.000000
     11        -24.508214   1.000000
     12        -24.508204   1.000000
     13        -24.430395   1.000000
     14        -24.430385   1.000000
     15        -24.413053   1.000000
     16        -24.413043   1.000000
     17        -24.364373   1.000000
     18        -24.364364   1.000000
     19        -24.350839   1.000000
     20        -24.350829   1.000000
     21        -24.289375   1.000000
     22        -24.289366   1.000000
     23        -24.287462   1.000000
     24        -24.287453   1.000000
     25        -24.227490   1.000000
     26        -24.227481   1.000000
     27        -24.226289   1.000000
     28        -24.226280   1.000000
     29        -23.998955   1.000000
     30        -23.998945   1.000000
     31        -23.998219   1.000000
     32        -23.998210   1.000000
     33          0.793049   1.000000
     34          0.793217   1.000000
     35          2.010149   1.000000
     36          2.010351   1.000000
     37          4.588025   1.000000
     38          4.588142   1.000000
     39          4.675997   1.000000
     40          4.676096   1.000000
     41          4.713445   1.000000
     42          4.713587   1.000000
     43          5.233669   1.000000
     44          5.233826   1.000000
     45          6.055529   1.000000
     46          6.055713   1.000000
     47          6.609211   1.000000
     48          6.609300   1.000000
     49          7.264827   1.000000
     50          7.264946   1.000000
     51          7.379586   1.000000
     52          7.379704   1.000000
     53          7.496360   1.000000
     54          7.496481   1.000000
     55          7.596461   1.000000
     56          7.596532   1.000000
     57          8.110867   1.016009
     58          8.111100   1.016057
     59          8.249103   1.030883
     60          8.249150   1.030868
     61          8.497086   0.357645
     62          8.497141   0.357424
     63          8.560124   0.137609
     64          8.560240   0.137282
     65          8.633550  -0.002449
     66          8.633557  -0.002456
     67          9.024319  -0.000264
     68          9.024831  -0.000260
     69          9.065607  -0.000087
     70          9.066398  -0.000085
     71          9.193177  -0.000002
     72          9.193542  -0.000002
     73          9.224068  -0.000001
     74          9.224872  -0.000000
     75          9.226495  -0.000000
     76          9.226799  -0.000000
     77          9.286336  -0.000000
     78          9.286955  -0.000000
     79          9.366767  -0.000000
     80          9.367923  -0.000000
     81          9.376348  -0.000000
     82          9.376455  -0.000000
     83          9.382163  -0.000000
     84          9.382982  -0.000000
     85          9.397586  -0.000000
     86          9.398990  -0.000000
     87          9.400258  -0.000000
     88          9.400579  -0.000000
 
  0.1666667E+00  0.1666667E+00  0.1276756E-14  0.2777778E-01
      1        -48.072995   1.000000
      2        -48.072213   1.000000
      3        -48.015807   1.000000
      4        -48.015807   1.000000
      5        -48.015151   1.000000
      6        -48.015151   1.000000
      7        -47.960532   1.000000
      8        -47.959901   1.000000
      9        -24.509232   1.000000
     10        -24.509207   1.000000
     11        -24.506405   1.000000
     12        -24.506388   1.000000
     13        -24.456031   1.000000
     14        -24.446952   1.000000
     15        -24.445226   1.000000
     16        -24.442923   1.000000
     17        -24.441400   1.000000
     18        -24.436672   1.000000
     19        -24.395766   1.000000
     20        -24.395766   1.000000
     21        -24.380981   1.000000
     22        -24.380981   1.000000
     23        -24.341709   1.000000
     24        -24.328935   1.000000
     25        -24.057389   1.000000
     26        -24.056423   1.000000
     27        -24.053110   1.000000
     28        -24.052346   1.000000
     29        -24.013062   1.000000
     30        -24.013026   1.000000
     31        -24.012194   1.000000
     32        -24.012188   1.000000
     33         -0.152790   1.000000
     34          1.340352   1.000000
     35          2.937350   1.000000
     36          2.937464   1.000000
     37          3.428467   1.000000
     38          3.428629   1.000000
     39          3.587016   1.000000
     40          4.977349   1.000000
     41          5.535259   1.000000
     42          5.566383   1.000000
     43          5.566480   1.000000
     44          6.077864   1.000000
     45          6.277254   1.000000
     46          6.277287   1.000000
     47          6.486990   1.000000
     48          6.495637   1.000000
     49          6.495730   1.000000
     50          6.756222   1.000000
     51          6.817212   1.000000
     52          6.986496   1.000000
     53          6.986582   1.000000
     54          7.647505   1.000000
     55          7.876324   1.000135
     56          7.948177   1.000828
     57          8.021139   1.003847
     58          8.021176   1.003849
     59          8.082051   1.010759
     60          8.140934   1.022613
     61          8.247931   1.031251
     62          8.247936   1.031249
     63          8.289184   1.005567
     64          8.834705  -0.012267
     65          8.839343  -0.011477
     66          9.062581  -0.000094
     67          9.065155  -0.000088
     68          9.100075  -0.000032
     69          9.100169  -0.000032
     70          9.133343  -0.000011
     71          9.206148  -0.000001
     72          9.207085  -0.000001
     73          9.217981  -0.000001
     74          9.257521  -0.000000
     75          9.258105  -0.000000
     76          9.269136  -0.000000
     77          9.275199  -0.000000
     78          9.275240  -0.000000
     79          9.287856  -0.000000
     80          9.320058  -0.000000
     81          9.320800  -0.000000
     82          9.339840  -0.000000
     83          9.340581  -0.000000
     84          9.353850  -0.000000
     85          9.369351  -0.000000
     86          9.372951  -0.000000
     87          9.411434  -0.000000
     88          9.411954  -0.000000
 
  0.3333333E+00  0.1666667E+00  0.1276756E-14  0.5555556E-01
      1        -48.060978   1.000000
      2        -48.060219   1.000000
      3        -48.027961   1.000000
      4        -48.027272   1.000000
      5        -48.004191   1.000000
      6        -48.003542   1.000000
      7        -47.972283   1.000000
      8        -47.971645   1.000000
      9        -24.495731   1.000000
     10        -24.493163   1.000000
     11        -24.458707   1.000000
     12        -24.456822   1.000000
     13        -24.443356   1.000000
     14        -24.424963   1.000000
     15        -24.415293   1.000000
     16        -24.412861   1.000000
     17        -24.408564   1.000000
     18        -24.392802   1.000000
     19        -24.384399   1.000000
     20        -24.370030   1.000000
     21        -24.355297   1.000000
     22        -24.353845   1.000000
     23        -24.353192   1.000000
     24        -24.339977   1.000000
     25        -24.153350   1.000000
     26        -24.152049   1.000000
     27        -24.106086   1.000000
     28        -24.105069   1.000000
     29        -24.046237   1.000000
     30        -24.045391   1.000000
     31        -24.021953   1.000000
     32        -24.021111   1.000000
     33          0.257594   1.000000
     34          1.634675   1.000000
     35          1.826984   1.000000
     36          2.738285   1.000000
     37          3.275296   1.000000
     38          3.739440   1.000000
     39          4.032481   1.000000
     40          4.418366   1.000000
     41          4.865256   1.000000
     42          5.572138   1.000000
     43          5.811060   1.000000
     44          6.253248   1.000000
     45          6.386778   1.000000
     46          6.515395   1.000000
     47          6.574293   1.000000
     48          6.575105   1.000000
     49          6.778187   1.000000
     50          7.031893   1.000000
     51          7.171023   1.000000
     52          7.197542   1.000000
     53          7.206557   1.000000
     54          7.703234   1.000001
     55          7.751018   1.000003
     56          7.870570   1.000116
     57          7.914752   1.000370
     58          8.144896   1.023529
     59          8.187006   1.032497
     60          8.304085   0.988510
     61          8.322154   0.961162
     62          8.353891   0.893817
     63          8.478010   0.436245
     64          8.791900  -0.020999
     65          8.909920  -0.003480
     66          8.911283  -0.003390
     67          8.931764  -0.002256
     68          9.038642  -0.000181
     69          9.126993  -0.000014
     70          9.129980  -0.000013
     71          9.152465  -0.000006
     72          9.189039  -0.000002
     73          9.203286  -0.000001
     74          9.209886  -0.000001
     75          9.233698  -0.000000
     76          9.239783  -0.000000
     77          9.248709  -0.000000
     78          9.262278  -0.000000
     79          9.320740  -0.000000
     80          9.343163  -0.000000
     81          9.347288  -0.000000
     82          9.375825  -0.000000
     83          9.382553  -0.000000
     84          9.387974  -0.000000
     85          9.398792  -0.000000
     86          9.426346  -0.000000
     87          9.427861  -0.000000
     88          9.440577  -0.000000
 
  0.5000000E+00  0.1666667E+00  0.1276756E-14  0.2777778E-01
      1        -48.044506   1.000000
      2        -48.044497   1.000000
      3        -48.043785   1.000000
      4        -48.043775   1.000000
      5        -47.988272   1.000000
      6        -47.988262   1.000000
      7        -47.987634   1.000000
      8        -47.987624   1.000000
      9        -24.477253   1.000000
     10        -24.477243   1.000000
     11        -24.475032   1.000000
     12        -24.475022   1.000000
     13        -24.426004   1.000000
     14        -24.425994   1.000000
     15        -24.408909   1.000000
     16        -24.408900   1.000000
     17        -24.368831   1.000000
     18        -24.368821   1.000000
     19        -24.355034   1.000000
     20        -24.355024   1.000000
     21        -24.285320   1.000000
     22        -24.285311   1.000000
     23        -24.283452   1.000000
     24        -24.283443   1.000000
     25        -24.231590   1.000000
     26        -24.231581   1.000000
     27        -24.230355   1.000000
     28        -24.230346   1.000000
     29        -24.034121   1.000000
     30        -24.034111   1.000000
     31        -24.033287   1.000000
     32        -24.033277   1.000000
     33          0.924506   1.000000
     34          0.924674   1.000000
     35          2.110836   1.000000
     36          2.111037   1.000000
     37          3.795388   1.000000
     38          3.795553   1.000000
     39          4.234042   1.000000
     40          4.234184   1.000000
     41          4.718763   1.000000
     42          4.718873   1.000000
     43          6.157073   1.000000
     44          6.157185   1.000000
     45          6.465535   1.000000
     46          6.465623   1.000000
     47          6.512139   1.000000
     48          6.512261   1.000000
     49          7.312816   1.000000
     50          7.312933   1.000000
     51          7.433999   1.000000
     52          7.434115   1.000000
     53          7.525734   1.000000
     54          7.525847   1.000000
     55          7.713140   1.000001
     56          7.713218   1.000001
     57          8.117748   1.017440
     58          8.117973   1.017488
     59          8.344332   0.916766
     60          8.344374   0.916669
     61          8.455778   0.530096
     62          8.455897   0.529594
     63          8.580490   0.085456
     64          8.580507   0.085417
     65          8.635768  -0.004731
     66          8.635777  -0.004740
     67          9.048576  -0.000139
     68          9.049322  -0.000136
     69          9.115078  -0.000020
     70          9.115702  -0.000020
     71          9.176583  -0.000003
     72          9.177025  -0.000003
     73          9.191824  -0.000002
     74          9.192052  -0.000002
     75          9.197683  -0.000001
     76          9.198122  -0.000001
     77          9.246145  -0.000000
     78          9.246784  -0.000000
     79          9.370991  -0.000000
     80          9.372224  -0.000000
     81          9.384633  -0.000000
     82          9.385573  -0.000000
     83          9.387603  -0.000000
     84          9.387885  -0.000000
     85          9.406933  -0.000000
     86          9.407713  -0.000000
     87          9.420918  -0.000000
     88          9.421517  -0.000000
 
  0.3333333E+00  0.3333333E+00  0.1276756E-14  0.2777778E-01
      1        -48.049041   1.000000
      2        -48.048306   1.000000
      3        -48.016260   1.000000
      4        -48.016260   1.000000
      5        -48.015586   1.000000
      6        -48.015586   1.000000
      7        -47.984115   1.000000
      8        -47.983468   1.000000
      9        -24.430958   1.000000
     10        -24.413403   1.000000
     11        -24.402822   1.000000
     12        -24.402795   1.000000
     13        -24.400581   1.000000
     14        -24.400565   1.000000
     15        -24.396917   1.000000
     16        -24.396917   1.000000
     17        -24.381694   1.000000
     18        -24.381694   1.000000
     19        -24.374252   1.000000
     20        -24.372279   1.000000
     21        -24.364947   1.000000
     22        -24.361999   1.000000
     23        -24.360624   1.000000
     24        -24.351194   1.000000
     25        -24.149641   1.000000
     26        -24.148102   1.000000
     27        -24.136970   1.000000
     28        -24.136047   1.000000
     29        -24.115984   1.000000
     30        -24.115951   1.000000
     31        -24.114912   1.000000
     32        -24.114902   1.000000
     33          0.659749   1.000000
     34          1.930407   1.000000
     35          2.194460   1.000000
     36          2.194579   1.000000
     37          3.039722   1.000000
     38          3.039859   1.000000
     39          3.550587   1.000000
     40          4.157826   1.000000
     41          4.450284   1.000000
     42          5.827527   1.000000
     43          5.827640   1.000000
     44          6.221629   1.000000
     45          6.934775   1.000000
     46          6.934804   1.000000
     47          6.974346   1.000000
     48          7.024303   1.000000
     49          7.253507   1.000000
     50          7.254476   1.000000
     51          7.254560   1.000000
     52          7.356793   1.000000
     53          7.356889   1.000000
     54          7.699575   1.000000
     55          7.778405   1.000007
     56          7.914733   1.000369
     57          8.151712   1.025106
     58          8.151769   1.025119
     59          8.304461   0.988018
     60          8.372442   0.842766
     61          8.401397   0.747085
     62          8.546537   0.178069
     63          8.546554   0.178018
     64          8.629245   0.002270
     65          8.907734  -0.003629
     66          8.918559  -0.002942
     67          8.958515  -0.001276
     68          8.958756  -0.001270
     69          9.092748  -0.000040
     70          9.127404  -0.000014
     71          9.147846  -0.000007
     72          9.148484  -0.000007
     73          9.160631  -0.000005
     74          9.160667  -0.000005
     75          9.179719  -0.000002
     76          9.180116  -0.000002
     77          9.184890  -0.000002
     78          9.297684  -0.000000
     79          9.297872  -0.000000
     80          9.361742  -0.000000
     81          9.362626  -0.000000
     82          9.391019  -0.000000
     83          9.399142  -0.000000
     84          9.413210  -0.000000
     85          9.418998  -0.000000
     86          9.461354  -0.000000
     87          9.472174  -0.000000
     88          9.472933  -0.000000
 
  0.5000000E+00  0.3333333E+00  0.1276756E-14  0.2777778E-01
      1        -48.032691   1.000000
      2        -48.032682   1.000000
      3        -48.031986   1.000000
      4        -48.031976   1.000000
      5        -48.000222   1.000000
      6        -48.000212   1.000000
      7        -47.999566   1.000000
      8        -47.999556   1.000000
      9        -24.413978   1.000000
     10        -24.413968   1.000000
     11        -24.397573   1.000000
     12        -24.397564   1.000000
     13        -24.385791   1.000000
     14        -24.385781   1.000000
     15        -24.383810   1.000000
     16        -24.383801   1.000000
     17        -24.380958   1.000000
     18        -24.380949   1.000000
     19        -24.366472   1.000000
     20        -24.366462   1.000000
     21        -24.274338   1.000000
     22        -24.274329   1.000000
     23        -24.272568   1.000000
     24        -24.272559   1.000000
     25        -24.242676   1.000000
     26        -24.242667   1.000000
     27        -24.241327   1.000000
     28        -24.241318   1.000000
     29        -24.129363   1.000000
     30        -24.129354   1.000000
     31        -24.128250   1.000000
     32        -24.128240   1.000000
     33          1.312639   1.000000
     34          1.312808   1.000000
     35          2.408739   1.000000
     36          2.408936   1.000000
     37          2.782016   1.000000
     38          2.782186   1.000000
     39          3.524276   1.000000
     40          3.524449   1.000000
     41          5.078562   1.000000
     42          5.078672   1.000000
     43          6.083892   1.000000
     44          6.083986   1.000000
     45          7.069145   1.000000
     46          7.069172   1.000000
     47          7.241262   1.000000
     48          7.241289   1.000000
     49          7.418925   1.000000
     50          7.419027   1.000000
     51          7.553112   1.000000
     52          7.553216   1.000000
     53          7.591000   1.000000
     54          7.591095   1.000000
     55          7.988863   1.002028
     56          7.988973   1.002032
     57          8.080587   1.010527
     58          8.080782   1.010558
     59          8.288378   1.006358
     60          8.288528   1.006212
     61          8.598558   0.047926
     62          8.598586   0.047876
     63          8.670559  -0.028660
     64          8.670582  -0.028669
     65          8.780113  -0.023710
     66          8.780197  -0.023690
     67          9.014447  -0.000339
     68          9.015126  -0.000333
     69          9.020616  -0.000290
     70          9.020726  -0.000289
     71          9.107884  -0.000025
     72          9.108227  -0.000025
     73          9.130197  -0.000013
     74          9.130894  -0.000012
     75          9.148907  -0.000007
     76          9.148969  -0.000007
     77          9.243290  -0.000000
     78          9.244133  -0.000000
     79          9.373027  -0.000000
     80          9.374074  -0.000000
     81          9.379366  -0.000000
     82          9.380668  -0.000000
     83          9.387995  -0.000000
     84          9.389009  -0.000000
     85          9.433776  -0.000000
     86          9.434203  -0.000000