       N       E                     dE             d eps       ncg     rms          rms(c)
DAV:   1     0.137636895950E+04    0.13764E+04   -0.67749E+04  5280   0.169E+03
DAV:   2     0.265438628214E+03   -0.11109E+04   -0.11040E+04  5280   0.436E+02
DAV:   3     0.161032969947E+03   -0.10441E+03   -0.10381E+03 10560   0.110E+02
DAV:   4     0.156189921370E+03   -0.48430E+01   -0.48372E+01  6556   0.228E+01
DAV:   5     0.155887858647E+03   -0.30206E+00   -0.30205E+00  9240   0.433E+00    0.302E+01
DAV:   6     0.215533964235E+03    0.59646E+02   -0.79971E+01  8932   0.339E+01    0.985E+00
DAV:   7     0.873783742471E+02   -0.12816E+03   -0.14256E+03 10560   0.112E+01    0.132E+02
DAV:   8     0.240603055485E+03    0.15322E+03   -0.17687E+03 10560   0.244E+01    0.102E+01
DAV:   9     0.223159918847E+03   -0.17443E+02   -0.18231E+02  6908   0.211E+01    0.370E+00
DAV:  10     0.217517058072E+03   -0.56429E+01   -0.64821E+01  9988   0.658E+00    0.243E+01
DAV:  11     0.216179088649E+03   -0.13380E+01   -0.54443E+00  8756   0.299E+00    0.273E+01
DAV:  12     0.216790746182E+03    0.61166E+00   -0.52961E+00  8184   0.212E+00    0.269E+01
DAV:  13     0.200874707998E+03   -0.15916E+02   -0.66215E+01 10384   0.367E+00    0.647E+01
DAV:  14     0.219462523069E+03    0.18588E+02   -0.10738E+02  9724   0.731E+00    0.299E+01
DAV:  15     0.218051260997E+03   -0.14113E+01   -0.94813E+00  8712   0.530E+00    0.274E+01
DAV:  16     0.205833801729E+03   -0.12217E+02   -0.23224E+01  7876   0.808E+00    0.432E+01
DAV:  17     0.218961699024E+03    0.13128E+02   -0.28199E+01  8008   0.101E+01    0.254E+01
DAV:  18     0.219721064739E+03    0.75937E+00   -0.14166E+02  8976   0.106E+01    0.788E+00
DAV:  19     0.219540728210E+03   -0.18034E+00   -0.58602E+00  8712   0.486E+00    0.683E+00
DAV:  20     0.220405072159E+03    0.86434E+00   -0.18230E+00  8448   0.155E+00    0.442E+00
DAV:  21     0.220418085156E+03    0.13013E-01   -0.36805E-01  7612   0.166E+00    0.450E+00
DAV:  22     0.220458681427E+03    0.40596E-01   -0.23149E-01 10208   0.630E-01    0.376E+00
DAV:  23     0.220442856843E+03   -0.15825E-01   -0.37319E-02  7744   0.287E-01    0.369E+00
DAV:  24     0.220466136373E+03    0.23280E-01   -0.65680E-02  8096   0.429E-01    0.327E+00
DAV:  25     0.220489704690E+03    0.23568E-01   -0.21765E-01  7260   0.122E+00    0.260E+00
DAV:  26     0.220583707679E+03    0.94003E-01   -0.24235E-01  7964   0.823E-01    0.167E+00
DAV:  27     0.220616123479E+03    0.32416E-01   -0.75491E-02  7260   0.403E-01    0.168E+00
DAV:  28     0.220642945255E+03    0.26822E-01   -0.33850E-02  8360   0.219E-01    0.132E+00
DAV:  29     0.220664252625E+03    0.21307E-01   -0.41234E-02  8888   0.232E-01    0.120E+00
DAV:  30     0.220678116845E+03    0.13864E-01   -0.14778E-02  9372   0.147E-01    0.106E+00
DAV:  31     0.220686293027E+03    0.81762E-02   -0.64406E-03  9504   0.943E-02    0.962E-01
DAV:  32     0.220702702600E+03    0.16410E-01   -0.41441E-02  9900   0.141E-01    0.476E-01
DAV:  33     0.220706051179E+03    0.33486E-02   -0.69884E-03  8492   0.109E-01    0.418E-01
DAV:  34     0.220709096860E+03    0.30457E-02   -0.29513E-02 10384   0.956E-02    0.637E-02
DAV:  35     0.220709067417E+03   -0.29443E-04   -0.12133E-03  6556   0.538E-02    0.510E-02
DAV:  36     0.220708940463E+03   -0.12695E-03   -0.22794E-03  8844   0.445E-02    0.860E-02
DAV:  37     0.220708947381E+03    0.69180E-05   -0.27470E-04  9152   0.166E-02    0.685E-02
DAV:  38     0.220709039790E+03    0.92409E-04   -0.20731E-04  8976   0.102E-02    0.399E-02
DAV:  39     0.220709061872E+03    0.22082E-04   -0.40158E-05  6688   0.549E-03    0.312E-02
DAV:  40     0.220709105508E+03    0.43635E-04   -0.12932E-04  9636   0.115E-02    0.131E-02
DAV:  41     0.220709110520E+03    0.50121E-05   -0.19446E-05  6380   0.419E-03    0.843E-03
DAV:  42     0.220709112450E+03    0.19307E-05   -0.95689E-06  6732   0.317E-03    0.525E-03
DAV:  43     0.220709112424E+03   -0.26323E-07   -0.30015E-06  6336   0.183E-03
   1 F= 0.22070911E+03 E0= 0.22070637E+03  d E =0.822044E-02
 Found     6 degrees of freedom:
 Adding 6 more for cell shape distortion
       N       E                     dE             d eps       ncg     rms          rms(c)
DAV:   1     0.220586833524E+03   -0.12228E+00   -0.14549E+01  8448   0.224E+01    0.517E+00
DAV:   2     0.219600404887E+03   -0.98643E+00   -0.18265E+01 13112   0.881E+00    0.124E+01
DAV:   3     0.218780400578E+03   -0.82000E+00   -0.10382E+02 15752   0.756E+00    0.724E+00
DAV:   4     0.219955737352E+03    0.11753E+01   -0.26263E+00 13596   0.386E+00    0.535E+00
DAV:   5     0.220974111629E+03    0.10184E+01   -0.46301E+00 16544   0.203E+00    0.160E+00
DAV:   6     0.221011043085E+03    0.36931E-01   -0.55299E-01 15224   0.115E+00    0.723E-01
DAV:   7     0.221009408020E+03   -0.16351E-02   -0.10703E-01 13112   0.771E-01    0.310E-01
DAV:   8     0.221007656298E+03   -0.17517E-02   -0.40972E-02 16676   0.186E-01    0.295E-01
DAV:   9     0.221006364400E+03   -0.12919E-02   -0.40802E-02 15312   0.194E-01    0.284E-01
DAV:  10     0.221008018364E+03    0.16540E-02   -0.12994E-02 16544   0.110E-01    0.457E-02
DAV:  11     0.221007843537E+03   -0.17483E-03   -0.28273E-03 15400   0.451E-02    0.989E-02
DAV:  12     0.221007951547E+03    0.10801E-03   -0.23482E-03 15620   0.455E-02    0.356E-02
DAV:  13     0.221007983831E+03    0.32283E-04   -0.25261E-04 12980   0.236E-02    0.112E-02
DAV:  14     0.221007950371E+03   -0.33460E-04   -0.44827E-04 16016   0.139E-02    0.431E-02
DAV:  15     0.221007983843E+03    0.33472E-04   -0.20452E-04 13816   0.904E-03    0.871E-03
DAV:  16     0.221007979391E+03   -0.44520E-05   -0.19112E-05 10032   0.567E-03    0.127E-02
DAV:  17     0.221007981900E+03    0.25094E-05   -0.12984E-05 10516   0.244E-03    0.419E-03
DAV:  18     0.221007981986E+03    0.85422E-07   -0.62107E-06 10384   0.200E-03
   2 F= 0.22100798E+03 E0= 0.22100566E+03  d E =0.696308E-02
       N       E                     dE             d eps       ncg     rms          rms(c)
DAV:   1     0.218719029017E+03   -0.22890E+01   -0.52572E+01  9636   0.416E+01    0.108E+01
DAV:   2     0.216233652854E+03   -0.24854E+01   -0.63624E+01 13156   0.182E+01    0.930E+00
DAV:   3     0.213272895912E+03   -0.29608E+01   -0.12245E+02 13904   0.848E+00    0.360E+01
DAV:   4     0.215658134573E+03    0.23852E+01   -0.51444E+02 15532   0.156E+01    0.778E+00
DAV:   5     0.214570857911E+03   -0.10873E+01   -0.10006E+01 14168   0.468E+00    0.782E+00
DAV:   6     0.215147533432E+03    0.57668E+00   -0.33550E-01 11924   0.124E+00    0.775E+00
DAV:   7     0.217332478231E+03    0.21849E+01   -0.77841E-01 15840   0.103E+00    0.665E+00
DAV:   8     0.219057644399E+03    0.17252E+01   -0.11760E+00 14872   0.101E+00    0.533E+00
DAV:   9     0.219753783683E+03    0.69614E+00   -0.55001E-01 15048   0.572E-01    0.430E+00
DAV:  10     0.220477019655E+03    0.72324E+00   -0.39005E+00 15180   0.126E+00    0.475E-01
DAV:  11     0.220469432324E+03   -0.75873E-02   -0.40282E-02 12628   0.322E-01    0.568E-01
DAV:  12     0.220434349582E+03   -0.35083E-01   -0.55269E-01 16588   0.436E-01    0.187E+00
DAV:  13     0.219670441669E+03   -0.76391E+00   -0.49159E+00 16060   0.105E+00    0.930E+00
DAV:  14     0.220075404543E+03    0.40496E+00   -0.72032E-01 15004   0.567E-01    0.667E+00
DAV:  15     0.220470275760E+03    0.39487E+00   -0.35315E+00 16412   0.101E+00    0.104E+00
DAV:  16     0.220433519771E+03   -0.36756E-01   -0.98744E-02 13244   0.359E-01    0.158E+00
DAV:  17     0.220440969077E+03    0.74493E-02   -0.95961E-03 14872   0.137E-01    0.154E+00
DAV:  18     0.220469057990E+03    0.28089E-01   -0.78634E-02 16060   0.151E-01    0.763E-01
DAV:  19     0.220476435533E+03    0.73775E-02   -0.18545E-02 14564   0.135E-01    0.465E-01
DAV:  20     0.220476981739E+03    0.54621E-03   -0.23934E-03 14696   0.598E-02    0.418E-01
DAV:  21     0.220475817970E+03   -0.11638E-02   -0.71307E-04 12540   0.425E-02    0.454E-01
DAV:  22     0.220479057461E+03    0.32395E-02   -0.36971E-02 15532   0.103E-01    0.223E-01
DAV:  23     0.220478887536E+03   -0.16992E-03   -0.15079E-03 14168   0.568E-02    0.236E-01
DAV:  24     0.220475572647E+03   -0.33149E-02   -0.15752E-02 16544   0.859E-02    0.500E-01
DAV:  25     0.220479588735E+03    0.40161E-02   -0.34254E-02 16368   0.130E-01    0.713E-02
DAV:  26     0.220479622387E+03    0.33652E-04   -0.13535E-03 12056   0.720E-02    0.522E-02
DAV:  27     0.220479514235E+03   -0.10815E-03   -0.14249E-03 13112   0.720E-02    0.824E-02
DAV:  28     0.220479667856E+03    0.15362E-03   -0.95140E-04 13420   0.368E-02    0.283E-02
DAV:  29     0.220479337382E+03   -0.33047E-03   -0.25104E-03 15488   0.442E-02    0.136E-01
DAV:  30     0.220479497252E+03    0.15987E-03   -0.19482E-04 13596   0.130E-02    0.106E-01
DAV:  31     0.220479673351E+03    0.17610E-03   -0.10180E-03 14740   0.184E-02    0.267E-02
DAV:  32     0.220479651341E+03   -0.22010E-04   -0.48067E-05 11572   0.765E-03    0.401E-02
DAV:  33     0.220479685187E+03    0.33846E-04   -0.23284E-04 15092   0.940E-03    0.225E-03
DAV:  34     0.220479684603E+03   -0.58364E-06   -0.51742E-06  9768   0.431E-03
   3 F= 0.22047968E+03 E0= 0.22047781E+03  d E =0.563245E-02
       N       E                     dE             d eps       ncg     rms          rms(c)
DAV:   1     0.219574139618E+03   -0.90555E+00   -0.45086E+01 10208   0.391E+01    0.104E+01
DAV:   2     0.212000853208E+03   -0.75733E+01   -0.10994E+02 13288   0.178E+01    0.370E+01
DAV:   3     0.214645560301E+03    0.26447E+01   -0.60764E+02 15180   0.189E+01    0.935E+00
DAV:   4     0.213224399147E+03   -0.14212E+01   -0.13794E+01 13948   0.812E+00    0.814E+00
DAV:   5     0.216549212461E+03    0.33248E+01   -0.11687E+00 12804   0.301E+00    0.734E+00
DAV:   6     0.220905398053E+03    0.43562E+01   -0.11617E+01 16192   0.231E+00    0.159E+00
DAV:   7     0.220922099383E+03    0.16701E-01   -0.85771E-02 11748   0.576E-01    0.144E+00
DAV:   8     0.220897998881E+03   -0.24101E-01   -0.21556E+00 15752   0.857E-01    0.314E+00
DAV:   9     0.220351010471E+03   -0.54699E+00   -0.11935E+01 16016   0.204E+00    0.408E+00
DAV:  10     0.220426882871E+03    0.75872E-01   -0.87281E-02 13464   0.485E-01    0.413E+00
DAV:  11     0.220994226920E+03    0.56734E+00   -0.25420E+00 15092   0.917E-01    0.102E+00
DAV:  12     0.220989039989E+03   -0.51869E-02   -0.20211E-02 13288   0.239E-01    0.103E+00
DAV:  13     0.220952144413E+03   -0.36896E-01   -0.11016E+00 15928   0.601E-01    0.204E+00
DAV:  14     0.220959165302E+03    0.70209E-02   -0.11377E-02 12540   0.159E-01    0.193E+00
DAV:  15     0.221000947642E+03    0.41782E-01   -0.17966E-01 15400   0.218E-01    0.743E-01
DAV:  16     0.220972864782E+03   -0.28083E-01   -0.89357E-02 16676   0.206E-01    0.151E+00
DAV:  17     0.220992974284E+03    0.20110E-01   -0.34954E-02 16368   0.141E-01    0.101E+00
DAV:  18     0.221004520304E+03    0.11546E-01   -0.42674E-02 15576   0.120E-01    0.462E-01
DAV:  19     0.221006861580E+03    0.23413E-02   -0.62833E-03 16060   0.648E-02    0.291E-01
DAV:  20     0.221007927128E+03    0.10655E-02   -0.75619E-03 16280   0.554E-02    0.843E-02
DAV:  21     0.221007993360E+03    0.66232E-04   -0.93497E-04 16280   0.284E-02    0.353E-02
DAV:  22     0.221007987904E+03   -0.54564E-05   -0.33482E-04 15884   0.141E-02    0.955E-03
DAV:  23     0.221007977538E+03   -0.10366E-04   -0.13744E-04 13552   0.998E-03    0.175E-02
DAV:  24     0.221007982065E+03    0.45272E-05   -0.41181E-05 10912   0.594E-03    0.566E-03
DAV:  25     0.221007982060E+03   -0.52914E-08   -0.65805E-06  9680   0.271E-03
   4 F= 0.22100798E+03 E0= 0.22100567E+03  d E =0.693837E-02
       N       E                     dE             d eps       ncg     rms          rms(c)
DAV:   1     0.218714357008E+03   -0.22936E+01   -0.52325E+01  9240   0.416E+01    0.108E+01
DAV:   2     0.215597786547E+03   -0.31166E+01   -0.72457E+01 13332   0.185E+01    0.963E+00
DAV:   3     0.215293160508E+03   -0.30463E+00   -0.10147E+02 13948   0.840E+00    0.304E+01
DAV:   4     0.214787018331E+03   -0.50614E+00   -0.45244E+02 15400   0.152E+01    0.804E+00
DAV:   5     0.214409353391E+03   -0.37766E+00   -0.57214E+00 14124   0.381E+00    0.792E+00
DAV:   6     0.215468833324E+03    0.10595E+01   -0.24573E-01 11792   0.107E+00    0.770E+00
DAV:   7     0.218019032029E+03    0.25502E+01   -0.12814E+00 15752   0.113E+00    0.629E+00
DAV:   8     0.219208306958E+03    0.11893E+01   -0.75765E-01 15180   0.791E-01    0.524E+00
DAV:   9     0.220123868752E+03    0.91556E+00   -0.14042E+00 14916   0.781E-01    0.338E+00
DAV:  10     0.220483161476E+03    0.35929E+00   -0.20988E+00 15884   0.943E-01    0.440E-01
DAV:  11     0.220477417752E+03   -0.57437E-02   -0.31402E-02 12936   0.296E-01    0.584E-01
DAV:  12     0.219533805472E+03   -0.94361E+00   -0.96167E+00 15092   0.139E+00    0.102E+01
DAV:  13     0.220493280211E+03    0.95947E+00   -0.97454E+00 15004   0.152E+00    0.997E-01
DAV:  14     0.220460553457E+03   -0.32727E-01   -0.89738E-01 16104   0.735E-01    0.106E+00
DAV:  15     0.220469124471E+03    0.85710E-02   -0.73614E-02 11220   0.381E-01    0.798E-01
DAV:  16     0.220479175205E+03    0.10051E-01   -0.65932E-02 16368   0.170E-01    0.220E-01
DAV:  17     0.220474611085E+03   -0.45641E-02   -0.17282E-02 15884   0.939E-02    0.509E-01
DAV:  18     0.220473238750E+03   -0.13723E-02   -0.22872E-03 13508   0.545E-02    0.567E-01
DAV:  19     0.220479294010E+03    0.60553E-02   -0.26064E-02 15664   0.884E-02    0.154E-01
DAV:  20     0.220479306686E+03    0.12676E-04   -0.30370E-04 12100   0.275E-02    0.149E-01
DAV:  21     0.220479664968E+03    0.35828E-03   -0.21742E-03 14960   0.266E-02    0.327E-02
DAV:  22     0.220479683019E+03    0.18051E-04   -0.93498E-05 14740   0.111E-02    0.156E-02
DAV:  23     0.220479664979E+03   -0.18040E-04   -0.39508E-04 14916   0.111E-02    0.338E-02
DAV:  24     0.220479676213E+03    0.11233E-04   -0.25298E-05  9548   0.505E-03    0.241E-02
DAV:  25     0.220479684442E+03    0.82290E-05   -0.11168E-04 14168   0.577E-03    0.316E-03
DAV:  26     0.220479684488E+03    0.46517E-07   -0.19308E-06  9460   0.184E-03
   5 F= 0.22047968E+03 E0= 0.22047781E+03  d E =0.561553E-02
       N       E                     dE             d eps       ncg     rms          rms(c)
DAV:   1     0.219167855677E+03   -0.13118E+01   -0.43801E+01  7524   0.371E+01    0.120E+01
DAV:   2     0.194653017803E+03   -0.24515E+02   -0.29628E+02  8448   0.208E+01    0.701E+01
DAV:   3     0.216483201184E+03    0.21830E+02   -0.13975E+03  9636   0.273E+01    0.848E+00
DAV:   4     0.211747344332E+03   -0.47359E+01   -0.47781E+01  8756   0.115E+01    0.863E+00
DAV:   5     0.213145781954E+03    0.13984E+01   -0.11902E+00  7744   0.243E+00    0.817E+00
DAV:   6     0.216260674964E+03    0.31149E+01   -0.99291E-01  9196   0.179E+00    0.684E+00
DAV:   7     0.218761701904E+03    0.25010E+01   -0.13397E+00  9680   0.143E+00    0.557E+00
DAV:   8     0.220276076938E+03    0.15144E+01   -0.17575E+00  9416   0.969E-01    0.381E+00
DAV:   9     0.220543364578E+03    0.26729E+00   -0.16122E-01  9152   0.423E-01    0.327E+00
DAV:  10     0.220959942549E+03    0.41658E+00   -0.13619E+00  8536   0.982E-01    0.131E+00
DAV:  11     0.220860318799E+03   -0.99624E-01   -0.29358E+00 10252   0.110E+00    0.353E+00
DAV:  12     0.220887418968E+03    0.27100E-01   -0.58349E-02  7788   0.358E-01    0.329E+00
DAV:  13     0.220998117454E+03    0.11070E+00   -0.65120E-01  9284   0.632E-01    0.860E-01
DAV:  14     0.220884259711E+03   -0.11386E+00   -0.48453E-01 10340   0.432E-01    0.290E+00
DAV:  15     0.221000262223E+03    0.11600E+00   -0.84777E-01 10340   0.524E-01    0.431E-01
DAV:  16     0.220957242915E+03   -0.43019E-01   -0.67459E-01  9724   0.608E-01    0.150E+00
DAV:  17     0.220994179383E+03    0.36936E-01   -0.98913E-02  9284   0.269E-01    0.934E-01
DAV:  18     0.220987109500E+03   -0.70699E-02   -0.11495E-02  7832   0.179E-01    0.957E-01
DAV:  19     0.221000869224E+03    0.13760E-01   -0.49484E-02 10472   0.153E-01    0.404E-01
DAV:  20     0.221003214274E+03    0.23451E-02   -0.32904E-02 10472   0.107E-01    0.784E-02
DAV:  21     0.221003284912E+03    0.70638E-04   -0.27198E-03  9548   0.434E-02    0.461E-02
DAV:  22     0.221002697581E+03   -0.58733E-03   -0.38048E-03  9768   0.439E-02    0.182E-01
DAV:  23     0.221003303894E+03    0.60631E-03   -0.59768E-03 10120   0.438E-02    0.194E-02
DAV:  24     0.221003283616E+03   -0.20279E-04   -0.49255E-04  9900   0.211E-02    0.268E-02
DAV:  25     0.221003282523E+03   -0.10924E-05   -0.37604E-05  7744   0.891E-03    0.277E-02
DAV:  26     0.221003295226E+03    0.12703E-04   -0.13434E-04  8624   0.676E-03    0.106E-02
DAV:  27     0.221003294071E+03   -0.11545E-05   -0.37484E-05  6600   0.432E-03    0.133E-02
DAV:  28     0.221003294295E+03    0.22373E-06   -0.23713E-06  6248   0.219E-03
   6 F= 0.22100329E+03 E0= 0.22100056E+03  d E =0.818827E-02
       N       E                     dE             d eps       ncg     rms          rms(c)
DAV:   1     0.218190828463E+03   -0.28125E+01   -0.64494E+01  5368   0.442E+01    0.130E+01
DAV:   2     0.205442237384E+03   -0.12749E+02   -0.25539E+02  8580   0.286E+01    0.136E+01
DAV:   3     0.219684719688E+03    0.14242E+02   -0.28256E+01  8228   0.120E+01    0.583E+00
DAV:   4     0.209835907218E+03   -0.98488E+01   -0.14019E+02  9768   0.510E+00    0.438E+01
DAV:   5     0.221362943839E+03    0.11527E+02   -0.24472E+02  9988   0.989E+00    0.297E+00
DAV:   6     0.220171477841E+03   -0.11915E+01   -0.12890E+01  8756   0.427E+00    0.344E+00
DAV:   7     0.220282404701E+03    0.11093E+00   -0.15649E+00  8668   0.136E+00    0.266E+00
DAV:   8     0.220338376655E+03    0.55972E-01   -0.35903E-01  9548   0.703E-01    0.239E+00
DAV:   9     0.220376216591E+03    0.37840E-01   -0.34594E+00 10516   0.111E+00    0.278E+00
DAV:  10     0.220409976525E+03    0.33760E-01   -0.84378E-02  7876   0.392E-01    0.231E+00
DAV:  11     0.220420510735E+03    0.10534E-01   -0.27917E-02  9856   0.146E-01    0.199E+00
DAV:  12     0.220430114500E+03    0.96038E-02   -0.14325E-02  7348   0.225E-01    0.173E+00
DAV:  13     0.220455810833E+03    0.25696E-01   -0.71469E-02 10340   0.168E-01    0.946E-01
DAV:  14     0.220463508994E+03    0.76982E-02   -0.15583E-02  9504   0.915E-02    0.641E-01
DAV:  15     0.220469470075E+03    0.59611E-02   -0.88609E-02 10252   0.180E-01    0.177E-01
DAV:  16     0.220469848820E+03    0.37874E-03   -0.55235E-03  7260   0.126E-01    0.471E-02
DAV:  17     0.220469662026E+03   -0.18679E-03   -0.85186E-04  8668   0.334E-02    0.977E-02
DAV:  18     0.220469773485E+03    0.11146E-03   -0.27960E-04  9460   0.140E-02    0.590E-02
DAV:  19     0.220469806522E+03    0.33037E-04   -0.11102E-04  9592   0.753E-03    0.345E-02
DAV:  20     0.220469823076E+03    0.16554E-04   -0.11387E-04  9416   0.740E-03    0.759E-03
DAV:  21     0.220469821827E+03   -0.12494E-05   -0.28207E-05  6468   0.442E-03    0.471E-03
DAV:  22     0.220469821397E+03   -0.42924E-06   -0.52182E-06  6248   0.302E-03
   7 F= 0.22046982E+03 E0= 0.22046708E+03  d E =0.821441E-02
       N       E                     dE             d eps       ncg     rms          rms(c)
DAV:   1     0.220131999353E+03   -0.33782E+00   -0.20901E+01 10560   0.258E+01    0.615E+00
DAV:   2     0.212825068745E+03   -0.73069E+01   -0.88984E+01 17820   0.111E+01    0.361E+01
DAV:   3     0.218185501146E+03    0.53604E+01   -0.37950E+02 18964   0.132E+01    0.760E+00
DAV:   4     0.216126379491E+03   -0.20591E+01   -0.11957E+01 18040   0.696E+00    0.715E+00
DAV:   5     0.217363641833E+03    0.12373E+01   -0.48108E-01 14300   0.180E+00    0.682E+00
DAV:   6     0.220194079062E+03    0.28304E+01   -0.47818E+00 19844   0.198E+00    0.350E+00
DAV:   7     0.220545480487E+03    0.35140E+00   -0.71300E-01 19888   0.717E-01    0.205E+00
DAV:   8     0.220590047032E+03    0.44567E-01   -0.44972E-02 18480   0.275E-01    0.185E+00
DAV:   9     0.220654093945E+03    0.64047E-01   -0.25075E+00 19404   0.117E+00    0.207E+00
DAV:  10     0.220676560812E+03    0.22467E-01   -0.69080E-02 15488   0.408E-01    0.179E+00
DAV:  11     0.220706342660E+03    0.29782E-01   -0.87492E-01 20548   0.492E-01    0.699E-01
DAV:  12     0.220707334137E+03    0.99148E-03   -0.30629E-01 20416   0.345E-01    0.677E-01
DAV:  13     0.220711197670E+03    0.38635E-02   -0.16664E-02 18436   0.136E-01    0.525E-01
DAV:  14     0.220714948284E+03    0.37506E-02   -0.20344E-02 20944   0.979E-02    0.167E-01
DAV:  15     0.220715766126E+03    0.81784E-03   -0.55887E-03 15180   0.869E-02    0.647E-02
DAV:  16     0.220715762636E+03   -0.34905E-05   -0.12643E-03 20152   0.367E-02    0.108E-02
DAV:  17     0.220715716932E+03   -0.45704E-04   -0.50725E-04 18568   0.208E-02    0.416E-02
DAV:  18     0.220715755658E+03    0.38726E-04   -0.47022E-04 20196   0.172E-02    0.782E-03
DAV:  19     0.220715755313E+03   -0.34449E-06   -0.24842E-05 12584   0.730E-03    0.578E-03
DAV:  20     0.220715755077E+03   -0.23609E-06   -0.36524E-06 13068   0.220E-03
   8 F= 0.22071576E+03 E0= 0.22071379E+03  d E =0.589589E-02
       N       E                     dE             d eps       ncg     rms          rms(c)
DAV:   1     0.220495800700E+03   -0.21995E+00   -0.10926E+01 12452   0.143E+01    0.367E+00
DAV:   2     0.220643658613E+03    0.14786E+00   -0.49241E-01 14124   0.280E+00    0.203E+00
DAV:   3     0.220660778964E+03    0.17120E-01   -0.69021E-01 16148   0.226E+00    0.198E+00
DAV:   4     0.220716179940E+03    0.55401E-01   -0.40732E-01 17424   0.713E-01    0.310E-01
DAV:   5     0.220714495877E+03   -0.16841E-02   -0.65776E-02 19668   0.405E-01    0.261E-01
DAV:   6     0.220715725984E+03    0.12301E-02   -0.97914E-03 16324   0.169E-01    0.116E-01
DAV:   7     0.220715729340E+03    0.33568E-05   -0.45723E-03 19448   0.703E-02    0.491E-02
DAV:   8     0.220715750689E+03    0.21349E-04   -0.27180E-04 16764   0.336E-02    0.254E-02
DAV:   9     0.220715745001E+03   -0.56878E-05   -0.40975E-04 20284   0.159E-02    0.243E-02
DAV:  10     0.220715756569E+03    0.11568E-04   -0.73900E-05 15048   0.701E-03    0.538E-03
DAV:  11     0.220715755692E+03   -0.87692E-06   -0.13114E-05 13024   0.461E-03    0.111E-03
DAV:  12     0.220715755481E+03   -0.21166E-06   -0.28670E-06 12276   0.212E-03
   9 F= 0.22071576E+03 E0= 0.22071378E+03  d E =0.592365E-02
       N       E                     dE             d eps       ncg     rms          rms(c)
DAV:   1     0.220627121495E+03   -0.88634E-01   -0.96670E+00  9856   0.167E+01    0.243E+00
DAV:   2     0.220682946805E+03    0.55825E-01   -0.47431E-01 12364   0.308E+00    0.142E+00
DAV:   3     0.220727706276E+03    0.44759E-01   -0.15350E-01 15092   0.187E+00    0.427E-01
DAV:   4     0.220724521811E+03   -0.31845E-02   -0.12122E-01 16148   0.583E-01    0.597E-01
DAV:   5     0.220730254289E+03    0.57325E-02   -0.50374E-02 16984   0.328E-01    0.120E-01
DAV:   6     0.220730177770E+03   -0.76519E-04   -0.42482E-03 16676   0.228E-01    0.813E-02
DAV:   7     0.220730335263E+03    0.15749E-03   -0.19720E-03 16456   0.659E-02    0.198E-02
DAV:   8     0.220730329037E+03   -0.62257E-05   -0.12440E-04 17248   0.181E-02    0.171E-02
DAV:   9     0.220730332129E+03    0.30918E-05   -0.87141E-05 16104   0.105E-02    0.766E-03
DAV:  10     0.220730332274E+03    0.14590E-06   -0.61201E-06 11748   0.496E-03
  10 F= 0.22073033E+03 E0= 0.22072766E+03  d E =0.800951E-02
       N       E                     dE             d eps       ncg     rms          rms(c)
DAV:   1     0.220454345761E+03   -0.27599E+00   -0.15465E+01 10032   0.200E+01    0.382E+00
DAV:   2     0.220635445358E+03    0.18110E+00   -0.83144E-01 11176   0.388E+00    0.211E+00
DAV:   3     0.220594835957E+03   -0.40609E-01   -0.15333E+00 16016   0.263E+00    0.326E+00
DAV:   4     0.220732527542E+03    0.13769E+00   -0.13447E+00 16632   0.106E+00    0.306E-01
DAV:   5     0.220729906878E+03   -0.26207E-02   -0.52305E-02 17556   0.604E-01    0.179E-01
DAV:   6     0.220730329335E+03    0.42246E-03   -0.10699E-02 16588   0.191E-01    0.823E-02
DAV:   7     0.220730354306E+03    0.24970E-04   -0.13608E-03 16060   0.708E-02    0.192E-02
DAV:   8     0.220730326964E+03   -0.27342E-04   -0.26328E-04 18304   0.248E-02    0.223E-02
DAV:   9     0.220730333737E+03    0.67730E-05   -0.91839E-05 16500   0.101E-02    0.448E-03
DAV:  10     0.220730332075E+03   -0.16620E-05   -0.33572E-05 13332   0.557E-03    0.778E-03
DAV:  11     0.220730332901E+03    0.82607E-06   -0.63284E-06 11616   0.268E-03
  11 F= 0.22073033E+03 E0= 0.22072769E+03  d E =0.793899E-02
       N       E                     dE             d eps       ncg     rms          rms(c)
DAV:   1     0.220592128491E+03   -0.13820E+00   -0.71069E+00 11264   0.124E+01    0.247E+00
DAV:   2     0.220670135681E+03    0.78007E-01   -0.43889E-01 12936   0.266E+00    0.145E+00
DAV:   3     0.220331711821E+03   -0.33842E+00   -0.40368E+00 18260   0.248E+00    0.393E+00
DAV:   4     0.220735906441E+03    0.40419E+00   -0.29602E+00 17996   0.146E+00    0.338E-01
DAV:   5     0.220730191583E+03   -0.57149E-02   -0.85735E-02 15664   0.668E-01    0.171E-01
DAV:   6     0.220727301008E+03   -0.28906E-02   -0.51257E-02 18304   0.233E-01    0.413E-01
DAV:   7     0.220729366063E+03    0.20651E-02   -0.62374E-02 19624   0.193E-01    0.250E-01
DAV:   8     0.220730433260E+03    0.10672E-02   -0.12818E-02 16588   0.974E-02    0.267E-02
DAV:   9     0.220730169927E+03   -0.26333E-03   -0.22959E-03 19272   0.492E-02    0.889E-02
DAV:  10     0.220730339656E+03    0.16973E-03   -0.10490E-03 19316   0.299E-02    0.152E-02
DAV:  11     0.220730337036E+03   -0.26203E-05   -0.12755E-04 17116   0.116E-02    0.463E-03
DAV:  12     0.220730335749E+03   -0.12872E-05   -0.24722E-05 11968   0.621E-03    0.623E-03
DAV:  13     0.220730336684E+03    0.93521E-06   -0.98139E-06 11968   0.327E-03
  12 F= 0.22073034E+03 E0= 0.22072768E+03  d E =0.797847E-02
       N       E                     dE             d eps       ncg     rms          rms(c)
DAV:   1     0.220457607867E+03   -0.27273E+00   -0.15220E+01  9988   0.200E+01    0.380E+00
DAV:   2     0.220634130361E+03    0.17652E+00   -0.84144E-01 11044   0.392E+00    0.212E+00
DAV:   3     0.220561858823E+03   -0.72272E-01   -0.18369E+00 16236   0.271E+00    0.369E+00
DAV:   4     0.220732749689E+03    0.17089E+00   -0.18350E+00 16764   0.117E+00    0.327E-01
DAV:   5     0.220730203425E+03   -0.25463E-02   -0.52536E-02 16324   0.649E-01    0.160E-01
DAV:   6     0.220729856514E+03   -0.34691E-03   -0.16719E-02 16896   0.197E-01    0.177E-01
DAV:   7     0.220730373769E+03    0.51726E-03   -0.50144E-03 17952   0.771E-02    0.247E-02
DAV:   8     0.220730324197E+03   -0.49573E-04   -0.52201E-04 18348   0.396E-02    0.297E-02
DAV:   9     0.220730323235E+03   -0.96147E-06   -0.10002E-04 16324   0.171E-02    0.258E-02
DAV:  10     0.220730337133E+03    0.13897E-04   -0.92386E-05 16764   0.788E-03    0.363E-03
DAV:  11     0.220730336895E+03   -0.23755E-06   -0.11138E-05 11836   0.347E-03    0.335E-03
DAV:  12     0.220730336790E+03   -0.10474E-06   -0.16990E-06 11044   0.224E-03
  13 F= 0.22073034E+03 E0= 0.22072769E+03  d E =0.792913E-02
       N       E                     dE             d eps       ncg     rms          rms(c)
DAV:   1     0.220665564387E+03   -0.64773E-01   -0.58825E+00  8448   0.155E+01    0.155E+00
DAV:   2     0.220660579481E+03   -0.49849E-02   -0.60268E-01 12672   0.269E+00    0.132E+00
DAV:   3     0.220298918326E+03   -0.36166E+00   -0.51411E+00 15752   0.130E+00    0.538E+00
DAV:   4     0.220311652271E+03    0.12734E-01   -0.81689E+00 16016   0.199E+00    0.383E+00
DAV:   5     0.220689331335E+03    0.37768E+00   -0.14015E+00 16060   0.120E+00    0.128E+00
DAV:   6     0.220696733900E+03    0.74026E-02   -0.80098E-01 16676   0.757E-01    0.946E-01
DAV:   7     0.220712038383E+03    0.15304E-01   -0.14070E-01 14432   0.505E-01    0.202E-01
DAV:   8     0.220709773879E+03   -0.22645E-02   -0.35387E-02 15312   0.291E-01    0.154E-01
DAV:   9     0.220709940028E+03    0.16615E-03   -0.37652E-03 13728   0.139E-01    0.960E-02
DAV:  10     0.220710105492E+03    0.16546E-03   -0.16599E-03 15532   0.811E-02    0.387E-02
DAV:  11     0.220710102898E+03   -0.25946E-05   -0.55087E-04 14476   0.644E-02    0.386E-02
DAV:  12     0.220710122336E+03    0.19438E-04   -0.40817E-04 14872   0.317E-02    0.211E-02
DAV:  13     0.220710120912E+03   -0.14240E-05   -0.35491E-05 14432   0.236E-02    0.229E-02
DAV:  14     0.220710123737E+03    0.28249E-05   -0.10659E-04 14520   0.116E-02    0.190E-02
DAV:  15     0.220710129741E+03    0.60042E-05   -0.30020E-05 10604   0.830E-03    0.749E-03
DAV:  16     0.220710130385E+03    0.64372E-06   -0.72909E-06 10736   0.715E-03
  14 F= 0.22071013E+03 E0= 0.22070738E+03  d E =0.824274E-02
       N       E                     dE             d eps       ncg     rms          rms(c)
DAV:   1     0.220726477295E+03    0.16348E-01   -0.40598E+00  9328   0.157E+01    0.339E-01
DAV:   2     0.220658298004E+03   -0.68179E-01   -0.73896E-01 12672   0.152E+00    0.191E+00
DAV:   3     0.220706003169E+03    0.47705E-01   -0.82910E-01 13288   0.518E-01    0.565E-01
DAV:   4     0.220697212597E+03   -0.87906E-02   -0.15845E-01 16500   0.327E-01    0.973E-01
DAV:   5     0.220710082453E+03    0.12870E-01   -0.11881E-01 15268   0.273E-01    0.239E-01
DAV:   6     0.220709676640E+03   -0.40581E-03   -0.19203E-02 15004   0.291E-01    0.178E-01
DAV:   7     0.220709280711E+03   -0.39593E-03   -0.11241E-02 15708   0.185E-01    0.229E-01
DAV:   8     0.220709822760E+03    0.54205E-03   -0.71249E-03 16456   0.104E-01    0.142E-01
DAV:   9     0.220709951995E+03    0.12923E-03   -0.15409E-03 14828   0.874E-02    0.106E-01
DAV:  10     0.220710130355E+03    0.17836E-03   -0.14618E-03 16456   0.494E-02    0.221E-02
DAV:  11     0.220710130242E+03   -0.11215E-06   -0.15457E-04 14696   0.314E-02    0.110E-02
DAV:  12     0.220710129587E+03   -0.65581E-06   -0.30210E-05 14652   0.211E-02    0.928E-03
DAV:  13     0.220710129987E+03    0.40001E-06   -0.55235E-06 10868   0.978E-03
  15 F= 0.22071013E+03 E0= 0.22070737E+03  d E =0.827225E-02
       N       E                     dE             d eps       ncg     rms          rms(c)
DAV:   1     0.220718998097E+03    0.88685E-02   -0.24810E+00  5500   0.125E+01    0.218E-01
DAV:   2     0.220671104254E+03   -0.47894E-01   -0.50015E-01  7920   0.123E+00    0.173E+00
DAV:   3     0.220709119162E+03    0.38015E-01   -0.49869E-01  7656   0.399E-01    0.325E-01
DAV:   4     0.220704887610E+03   -0.42316E-02   -0.68064E-02 10472   0.230E-01    0.602E-01
DAV:   5     0.220708994510E+03    0.41069E-02   -0.29326E-02  9152   0.179E-01    0.283E-01
DAV:   6     0.220709612713E+03    0.61820E-03   -0.20475E-02  9988   0.178E-01    0.126E-01
DAV:   7     0.220708768848E+03   -0.84387E-03   -0.71967E-03 10076   0.124E-01    0.274E-01
DAV:   8     0.220709613873E+03    0.84503E-03   -0.76905E-03 10472   0.820E-02    0.123E-01
DAV:   9     0.220709776333E+03    0.16246E-03   -0.98371E-04  9284   0.681E-02    0.659E-02
DAV:  10     0.220709844905E+03    0.68572E-04   -0.82602E-04 10384   0.368E-02    0.139E-02
DAV:  11     0.220709848141E+03    0.32362E-05   -0.51895E-05  8580   0.205E-02    0.699E-03
DAV:  12     0.220709849332E+03    0.11906E-05   -0.11222E-05  7700   0.133E-02    0.375E-03
DAV:  13     0.220709850447E+03    0.11157E-05   -0.32920E-06  6204   0.654E-03    0.246E-03
DAV:  14     0.220709850901E+03    0.45326E-06   -0.15745E-06  6556   0.517E-03
  16 F= 0.22070985E+03 E0= 0.22070710E+03  d E =0.824163E-02
       N       E                     dE             d eps       ncg     rms          rms(c)
DAV:   1     0.220732130685E+03    0.22280E-01   -0.49472E+00  5808   0.172E+01    0.389E-01
DAV:   2     0.220545618615E+03   -0.18651E+00   -0.19184E+00  7920   0.183E+00    0.372E+00
DAV:   3     0.220703218208E+03    0.15760E+00   -0.22141E+00  8228   0.808E-01    0.896E-01
DAV:   4     0.220700178220E+03   -0.30400E-02   -0.28095E-01 10340   0.415E-01    0.914E-01
DAV:   5     0.220707383977E+03    0.72058E-02   -0.53719E-02  8052   0.278E-01    0.470E-01
DAV:   6     0.220707236596E+03   -0.14738E-03   -0.89536E-02 10384   0.238E-01    0.403E-01
DAV:   7     0.220707698847E+03    0.46225E-03   -0.11009E-02  9108   0.207E-01    0.407E-01
DAV:   8     0.220708588095E+03    0.88925E-03   -0.17487E-02 10384   0.153E-01    0.291E-01
DAV:   9     0.220709770472E+03    0.11824E-02   -0.95327E-03 10384   0.837E-02    0.816E-02
DAV:  10     0.220709829081E+03    0.58610E-04   -0.70118E-04  9108   0.658E-02    0.486E-02
DAV:  11     0.220709846667E+03    0.17586E-04   -0.61831E-04 10164   0.413E-02    0.176E-02
DAV:  12     0.220709845628E+03   -0.10394E-05   -0.38191E-05  8976   0.235E-02    0.178E-02
DAV:  13     0.220709848589E+03    0.29609E-05   -0.10297E-05  7744   0.136E-02    0.133E-02
DAV:  14     0.220709850800E+03    0.22114E-05   -0.94949E-06  6424   0.831E-03    0.735E-03
DAV:  15     0.220709851023E+03    0.22273E-06   -0.18590E-05  7040   0.723E-03    0.595E-03
DAV:  16     0.220709851522E+03    0.49955E-06   -0.23307E-06  6336   0.357E-03
  17 F= 0.22070985E+03 E0= 0.22070711E+03  d E =0.821986E-02
       N       E                     dE             d eps       ncg     rms          rms(c)
DAV:   1     0.130502296558E+04    0.10843E+04   -0.12632E+00  8844   0.860E+00    0.214E-01
DAV:   2     0.130498460949E+04   -0.38356E-01   -0.40879E-01 12672   0.119E+00    0.151E+00
DAV:   3     0.130501466549E+04    0.30056E-01   -0.43123E-01 11704   0.430E-01    0.406E-01
DAV:   4     0.130501198969E+04   -0.26758E-02   -0.74354E-02 16104   0.353E-01    0.515E-01
DAV:   5     0.130501481693E+04    0.28272E-02   -0.50474E-02 15576   0.244E-01    0.302E-01
DAV:   6     0.130501299446E+04   -0.18225E-02   -0.41628E-02 16456   0.176E-01    0.412E-01
DAV:   7     0.130501589790E+04    0.29034E-02   -0.26319E-02 16192   0.155E-01    0.713E-02
DAV:   8     0.130501469493E+04   -0.12030E-02   -0.13099E-02 16896   0.956E-02    0.274E-01
DAV:   9     0.130501560173E+04    0.90680E-03   -0.98365E-03 16588   0.601E-02    0.151E-01
DAV:  10     0.130501569881E+04    0.97084E-04   -0.31266E-03 16808   0.389E-02    0.112E-01
DAV:  11     0.130501587635E+04    0.17753E-03   -0.21076E-03 16808   0.297E-02    0.398E-02
DAV:  12     0.130501586551E+04   -0.10835E-04   -0.66694E-04 16632   0.176E-02    0.449E-02
DAV:  13     0.130501588790E+04    0.22387E-04   -0.32934E-04 16412   0.100E-02    0.245E-02
DAV:  14     0.130501588777E+04   -0.12529E-06   -0.16475E-04 15048   0.925E-03    0.231E-02
DAV:  15     0.130501589588E+04    0.81083E-05   -0.10158E-04 12760   0.626E-03    0.698E-03
DAV:  16     0.130501589458E+04   -0.12976E-05   -0.26243E-05 10648   0.395E-03    0.110E-02
DAV:  17     0.130501589644E+04    0.18618E-05   -0.19262E-05 10560   0.332E-03    0.354E-03
DAV:  18     0.130501589664E+04    0.19571E-06   -0.30262E-06 10516   0.201E-03
  18 F= 0.13050159E+04 E0= 0.13050131E+04  d E =0.827123E-02
       N       E                     dE             d eps       ncg     rms          rms(c)
DAV:   1     0.130501519337E+04   -0.70308E-03   -0.18558E-01  8448   0.100E+00    0.190E-01
DAV:   2     0.130501282499E+04   -0.23684E-02   -0.57231E-02 14124   0.105E+00    0.461E-01
DAV:   3     0.130501587027E+04    0.30453E-02   -0.37314E-02 14432   0.730E-01    0.876E-02
DAV:   4     0.130501422915E+04   -0.16411E-02   -0.18587E-02 14476   0.146E-01    0.352E-01
DAV:   5     0.130501595012E+04    0.17210E-02   -0.17649E-02 13200   0.733E-02    0.463E-02
DAV:   6     0.130501535719E+04   -0.59293E-03   -0.70114E-03 16896   0.573E-02    0.188E-01
DAV:   7     0.130501573425E+04    0.37706E-03   -0.62777E-03 16764   0.482E-02    0.113E-01
DAV:   8     0.130501582034E+04    0.86096E-04   -0.16008E-03 16500   0.269E-02    0.754E-02
DAV:   9     0.130501586944E+04    0.49091E-04   -0.16331E-03 16764   0.206E-02    0.439E-02
DAV:  10     0.130501587539E+04    0.59584E-05   -0.29025E-04 16324   0.109E-02    0.403E-02
DAV:  11     0.130501587389E+04   -0.15042E-05   -0.38763E-04 16148   0.114E-02    0.373E-02
DAV:  12     0.130501589532E+04    0.21429E-04   -0.19148E-04 15092   0.756E-03    0.102E-02
DAV:  13     0.130501589505E+04   -0.26925E-06   -0.31330E-05 10472   0.461E-03    0.105E-02
DAV:  14     0.130501589652E+04    0.14720E-05   -0.14198E-05 10560   0.255E-03    0.390E-03
DAV:  15     0.130501589615E+04   -0.37384E-06   -0.74649E-06 10560   0.198E-03
  19 F= 0.13050159E+04 E0= 0.13050131E+04  d E =0.827594E-02
       N       E                     dE             d eps       ncg     rms          rms(c)
DAV:   1     0.130501580136E+04   -0.95159E-04   -0.11228E-01  5280   0.800E-01    0.116E-01
DAV:   2     0.130501425840E+04   -0.15430E-02   -0.27977E-02  8932   0.412E-01    0.312E-01
DAV:   3     0.130501451669E+04    0.25829E-03   -0.41471E-02  9636   0.247E-01    0.321E-01
DAV:   4     0.130501582267E+04    0.13060E-02   -0.20327E-02  9680   0.889E-02    0.945E-02
DAV:   5     0.130501446785E+04   -0.13548E-02   -0.16746E-02 10252   0.984E-02    0.310E-01
DAV:   6     0.130501598151E+04    0.15137E-02   -0.15491E-02 10208   0.712E-02    0.594E-02
DAV:   7     0.130501568363E+04   -0.29787E-03   -0.48527E-03 10428   0.436E-02    0.145E-01
DAV:   8     0.130501593687E+04    0.25323E-03   -0.41308E-03 10384   0.434E-02    0.860E-02
DAV:   9     0.130501597318E+04    0.36311E-04   -0.61691E-04 10076   0.201E-02    0.676E-02
DAV:  10     0.130501603166E+04    0.58484E-04   -0.71766E-04 10296   0.198E-02    0.311E-02
DAV:  11     0.130501604261E+04    0.10949E-04   -0.18567E-04  9812   0.889E-03    0.158E-02
DAV:  12     0.130501604318E+04    0.56141E-06   -0.13513E-04  9548   0.115E-02    0.206E-02
DAV:  13     0.130501604914E+04    0.59661E-05   -0.66846E-05  6600   0.563E-03    0.115E-02
DAV:  14     0.130501605277E+04    0.36293E-05   -0.28673E-05  8008   0.780E-03    0.559E-03
DAV:  15     0.130501605379E+04    0.10160E-05   -0.14865E-05  6952   0.660E-03    0.432E-03
DAV:  16     0.130501605428E+04    0.49778E-06   -0.51078E-06  6600   0.404E-03
  20 F= 0.13050161E+04 E0= 0.13050133E+04  d E =0.826686E-02
       N       E                     dE             d eps       ncg     rms          rms(c)
DAV:   1     0.130501567924E+04   -0.37455E-03   -0.22999E-01  5280   0.112E+00    0.189E-01
DAV:   2     0.130501065022E+04   -0.50290E-02   -0.93468E-02  8888   0.691E-01    0.562E-01
DAV:   3     0.130501602207E+04    0.53718E-02   -0.61805E-02  9416   0.451E-01    0.982E-02
DAV:   4     0.130501209065E+04   -0.39314E-02   -0.44802E-02  9944   0.138E-01    0.533E-01
DAV:   5     0.130501607176E+04    0.39811E-02   -0.43399E-02  9988   0.110E-01    0.605E-02
DAV:   6     0.130501527230E+04   -0.79946E-03   -0.10439E-02  9944   0.623E-02    0.242E-01
DAV:   7     0.130501595743E+04    0.68513E-03   -0.69055E-03  8492   0.512E-02    0.908E-02
DAV:   8     0.130501605035E+04    0.92915E-04   -0.20146E-03 10428   0.337E-02    0.270E-02
DAV:   9     0.130501596301E+04   -0.87334E-04   -0.12460E-03 10472   0.235E-02    0.747E-02
DAV:  10     0.130501604908E+04    0.86068E-04   -0.83227E-04 10516   0.165E-02    0.235E-02
DAV:  11     0.130501604376E+04   -0.53195E-05   -0.18579E-04  9724   0.896E-03    0.264E-02
DAV:  12     0.130501605269E+04    0.89252E-05   -0.14324E-04  8448   0.692E-03    0.117E-02
DAV:  13     0.130501605272E+04    0.37659E-07   -0.36853E-05  6600   0.393E-03    0.987E-03
DAV:  14     0.130501605421E+04    0.14890E-05   -0.20794E-05  6600   0.281E-03    0.418E-03
DAV:  15     0.130501605425E+04    0.39368E-07   -0.49630E-06  6512   0.175E-03
  21 F= 0.13050161E+04 E0= 0.13050133E+04  d E =0.827153E-02
       N       E                     dE             d eps       ncg     rms          rms(c)
DAV:   1     0.130501506222E+04   -0.99199E-03   -0.30837E-01  8448   0.124E+00    0.975E-02
DAV:   2     0.130501451842E+04   -0.54381E-03   -0.67459E-03 13376   0.145E-01    0.164E-01
DAV:   3     0.130501469737E+04    0.17895E-03   -0.93683E-03 16852   0.591E-02    0.119E-01
DAV:   4     0.130501344811E+04   -0.12493E-02   -0.15793E-02 15884   0.115E-01    0.313E-01
DAV:   5     0.130501484468E+04    0.13966E-02   -0.18458E-02 15928   0.761E-02    0.100E-01
DAV:   6     0.130501487038E+04    0.25702E-04   -0.35677E-03 15840   0.714E-02    0.821E-02
DAV:   7     0.130501495534E+04    0.84958E-04   -0.17144E-03 15532   0.527E-02    0.430E-02
DAV:   8     0.130501495492E+04   -0.41443E-06   -0.90558E-04 16808   0.204E-02    0.458E-02
DAV:   9     0.130501499113E+04    0.36204E-04   -0.50345E-04 16192   0.243E-02    0.259E-02
DAV:  10     0.130501499575E+04    0.46286E-05   -0.14022E-04 14168   0.834E-03    0.215E-02
DAV:  11     0.130501500630E+04    0.10541E-04   -0.13913E-04 14256   0.108E-02    0.176E-02
DAV:  12     0.130501501259E+04    0.62938E-05   -0.53917E-05 10736   0.525E-03    0.728E-03
DAV:  13     0.130501502446E+04    0.11869E-04   -0.55206E-05 14168   0.132E-02    0.849E-03
DAV:  14     0.130501502554E+04    0.10861E-05   -0.18445E-05 10560   0.430E-03    0.978E-03
DAV:  15     0.130501503060E+04    0.50544E-05   -0.22514E-05 12584   0.678E-03    0.228E-03
DAV:  16     0.130501503251E+04    0.19099E-05   -0.50584E-06 10516   0.528E-03    0.196E-03
DAV:  17     0.130501503318E+04    0.67442E-06   -0.51613E-06 10560   0.390E-03
  22 F= 0.13050150E+04 E0= 0.13050123E+04  d E =0.826115E-02
       N       E                     dE             d eps       ncg     rms          rms(c)
DAV:   1     0.130501540117E+04    0.36866E-03   -0.82077E-01  8448   0.189E+00    0.147E-01
DAV:   2     0.130501458825E+04   -0.81292E-03   -0.78655E-03 13420   0.164E-01    0.210E-01
DAV:   3     0.130501459685E+04    0.86005E-05   -0.19997E-02 16456   0.867E-02    0.201E-01
DAV:   4     0.130501285029E+04   -0.17466E-02   -0.25460E-02 15620   0.181E-01    0.380E-01
DAV:   5     0.130501463470E+04    0.17844E-02   -0.33628E-02 15532   0.978E-02    0.175E-01
DAV:   6     0.130501466257E+04    0.27863E-04   -0.94628E-03 15400   0.122E-01    0.158E-01
DAV:   7     0.130501496845E+04    0.30588E-03   -0.46712E-03 15532   0.751E-02    0.681E-02
DAV:   8     0.130501493478E+04   -0.33665E-04   -0.21396E-03 16852   0.282E-02    0.783E-02
DAV:   9     0.130501501982E+04    0.85041E-04   -0.14272E-03 16720   0.297E-02    0.347E-02
DAV:  10     0.130501501909E+04   -0.73086E-06   -0.19660E-04 15444   0.101E-02    0.326E-02
DAV:  11     0.130501503170E+04    0.12608E-04   -0.18201E-04 14916   0.930E-03    0.129E-02
DAV:  12     0.130501503322E+04    0.15200E-05   -0.37111E-05 10604   0.401E-03    0.818E-03
DAV:  13     0.130501503378E+04    0.55712E-06   -0.20355E-05 10208   0.309E-03    0.471E-03
DAV:  14     0.130501503332E+04   -0.45299E-06   -0.10347E-05 10560   0.202E-03    0.711E-03
DAV:  15     0.130501503409E+04    0.76981E-06   -0.72944E-06 10472   0.174E-03
  23 F= 0.13050150E+04 E0= 0.13050123E+04  d E =0.825722E-02
       N       E                     dE             d eps       ncg     rms          rms(c)
DAV:   1     0.130501515547E+04    0.12215E-03   -0.48964E-01  5280   0.148E+00    0.105E-01
DAV:   2     0.130501499020E+04   -0.16527E-03   -0.15637E-03  5280   0.122E-01    0.788E-02
DAV:   3     0.130501411316E+04   -0.87704E-03   -0.11406E-02 10032   0.871E-02    0.254E-01
DAV:   4     0.130501448125E+04    0.36809E-03   -0.17737E-02  9900   0.865E-02    0.192E-01
DAV:   5     0.130501473425E+04    0.25300E-03   -0.10461E-02  9812   0.758E-02    0.127E-01
DAV:   6     0.130501499343E+04    0.25918E-03   -0.25317E-03  9812   0.588E-02    0.348E-02
DAV:   7     0.130501497646E+04   -0.16976E-04   -0.65352E-04 10340   0.195E-02    0.381E-02
DAV:   8     0.130501499072E+04    0.14259E-04   -0.28271E-04  9944   0.136E-02    0.213E-02
DAV:   9     0.130501499168E+04    0.96369E-06   -0.10477E-04  8844   0.631E-03    0.194E-02
DAV:  10     0.130501499656E+04    0.48795E-05   -0.98041E-05  8580   0.615E-03    0.110E-02
DAV:  11     0.130501499578E+04   -0.77774E-06   -0.30036E-05  6644   0.337E-03    0.125E-02
DAV:  12     0.130501499798E+04    0.21981E-05   -0.26330E-05  6600   0.344E-03    0.473E-03
DAV:  13     0.130501499779E+04   -0.19133E-06   -0.69112E-06  6600   0.188E-03
  24 F= 0.13050150E+04 E0= 0.13050122E+04  d E =0.824959E-02
       N       E                     dE             d eps       ncg     rms          rms(c)
DAV:   1     0.130501538982E+04    0.39184E-03   -0.99088E-01  5280   0.205E+00    0.137E-01
DAV:   2     0.130501433373E+04   -0.10561E-02   -0.10490E-02  8448   0.172E-01    0.243E-01
DAV:   3     0.130501480116E+04    0.46743E-03   -0.18281E-02  9724   0.754E-02    0.156E-01
DAV:   4     0.130501325617E+04   -0.15450E-02   -0.21527E-02 10296   0.136E-01    0.344E-01
DAV:   5     0.130501450218E+04    0.12460E-02   -0.31943E-02 10296   0.935E-02    0.193E-01
DAV:   6     0.130501454760E+04    0.45425E-04   -0.11910E-02 10208   0.870E-02    0.177E-01
DAV:   7     0.130501493388E+04    0.38627E-03   -0.57597E-03 10120   0.569E-02    0.667E-02
DAV:   8     0.130501487926E+04   -0.54618E-04   -0.22963E-03 10560   0.290E-02    0.856E-02
DAV:   9     0.130501499158E+04    0.11233E-03   -0.15307E-03 10560   0.281E-02    0.249E-02
DAV:  10     0.130501498773E+04   -0.38547E-05   -0.18415E-04  9812   0.104E-02    0.256E-02
DAV:  11     0.130501499835E+04    0.10621E-04   -0.94734E-05  7700   0.844E-03    0.456E-03
DAV:  12     0.130501499707E+04   -0.12753E-05   -0.21204E-05  6952   0.469E-03    0.874E-03
DAV:  13     0.130501499781E+04    0.73856E-06   -0.14358E-05  6600   0.241E-03    0.527E-03
DAV:  14     0.130501499821E+04    0.39384E-06   -0.48594E-06  6600   0.160E-03
  25 F= 0.13050150E+04 E0= 0.13050122E+04  d E =0.825940E-02
