<?xml version="1.0" encoding="ISO-8859-1"?>
<modeling>
 <generator>
  <i name="program" type="string">vasp </i>
  <i name="version" type="string">6.5.0  </i>
  <i name="subversion" type="string">16Dec24 (build Apr 17 2025 17:55:45) complex                          parallel </i>
  <i name="platform" type="string">LinuxIFC </i>
  <i name="date" type="string">2025 06 06 </i>
  <i name="time" type="string">19:16:26 </i>
 </generator>
 <incar>
  <i type="int" name="ISTART">     0</i>
  <i type="string" name="PREC">N</i>
  <i type="string" name="ALGO">N</i>
  <i type="int" name="ICHARG">     2</i>
  <i type="int" name="NELM">   500</i>
  <i type="int" name="IBRION">     6</i>
  <i type="int" name="NFREE">     2</i>
  <i name="EDIFF">      0.00000100</i>
  <i name="EDIFFG">     -0.00100000</i>
  <i type="int" name="NSW">     1</i>
  <i type="int" name="ISIF">     3</i>
  <i name="SYMPREC">      0.00000100</i>
  <i name="ENCUT">    600.00000000</i>
  <i name="POTIM">      0.01500000</i>
  <v name="VCA">      1.00000000      0.97000000      0.03000000</v>
  <i type="logical" name="LREAL"> F  </i>
  <i type="int" name="ISMEAR">     1</i>
  <i name="SIGMA">      0.20000000</i>
  <i type="int" name="LMAXMIX">     4</i>
 </incar>
 <primitive_cell>
  <structure name="primitive_cell" >
   <crystal>
    <varray name="basis" >
     <v>       2.79121392       0.00000000       0.00000000 </v>
     <v>       0.00000000       2.79121392       0.00000000 </v>
     <v>       0.00000000       0.00000000       4.01124609 </v>
    </varray>
    <i name="volume">     31.25111755 </i>
    <varray name="rec_basis" >
     <v>       0.35826706       0.00000000       0.00000000 </v>
     <v>       0.00000000       0.35826706       0.00000000 </v>
     <v>       0.00000000       0.00000000       0.24929909 </v>
    </varray>
   </crystal>
   <varray name="positions" >
    <v>       0.00000000       0.00000000       0.00000000 </v>
    <v>       0.50000000       0.50000000       0.50000000 </v>
    <v>       0.50000000       0.50000000       0.50000000 </v>
   </varray>
  </structure>
  <varray name="primitive_index" >
   <v type="int" >        1 </v>
   <v type="int" >        9 </v>
   <v type="int" >       17 </v>
  </varray>
 </primitive_cell>
 <kpoints>
  <generation param="Gamma">
   <v type="int" name="divisions">       6        6        4 </v>
   <v name="usershift">      0.00000000       0.00000000       0.00000000 </v>
   <v name="genvec1">      0.16666667       0.00000000       0.00000000 </v>
   <v name="genvec2">      0.00000000       0.16666667       0.00000000 </v>
   <v name="genvec3">      0.00000000       0.00000000       0.25000000 </v>
   <v name="shift">      0.00000000       0.00000000       0.00000000 </v>
  </generation>
  <varray name="kpointlist" >
   <v>       0.00000000       0.00000000       0.00000000 </v>
   <v>       0.16666667       0.00000000       0.00000000 </v>
   <v>       0.33333333       0.00000000       0.00000000 </v>
   <v>       0.50000000       0.00000000       0.00000000 </v>
   <v>       0.16666667       0.16666667       0.00000000 </v>
   <v>       0.33333333       0.16666667       0.00000000 </v>
   <v>       0.50000000       0.16666667       0.00000000 </v>
   <v>       0.33333333       0.33333333       0.00000000 </v>
   <v>       0.50000000       0.33333333       0.00000000 </v>
   <v>       0.50000000       0.50000000       0.00000000 </v>
   <v>       0.00000000       0.00000000       0.25000000 </v>
   <v>       0.16666667       0.00000000       0.25000000 </v>
   <v>       0.33333333       0.00000000       0.25000000 </v>
   <v>       0.50000000       0.00000000       0.25000000 </v>
   <v>       0.16666667       0.16666667       0.25000000 </v>
   <v>       0.33333333       0.16666667       0.25000000 </v>
   <v>       0.50000000       0.16666667       0.25000000 </v>
   <v>       0.33333333       0.33333333       0.25000000 </v>
   <v>       0.50000000       0.33333333       0.25000000 </v>
   <v>       0.50000000       0.50000000       0.25000000 </v>
   <v>       0.00000000       0.00000000       0.50000000 </v>
   <v>       0.16666667       0.00000000       0.50000000 </v>
   <v>       0.33333333       0.00000000       0.50000000 </v>
   <v>       0.50000000       0.00000000       0.50000000 </v>
   <v>       0.16666667       0.16666667       0.50000000 </v>
   <v>       0.33333333       0.16666667       0.50000000 </v>
   <v>       0.50000000       0.16666667       0.50000000 </v>
   <v>       0.33333333       0.33333333       0.50000000 </v>
   <v>       0.50000000       0.33333333       0.50000000 </v>
   <v>       0.50000000       0.50000000       0.50000000 </v>
  </varray>
  <varray name="weights" >
   <v>       0.00694444 </v>
   <v>       0.02777778 </v>
   <v>       0.02777778 </v>
   <v>       0.01388889 </v>
   <v>       0.02777778 </v>
   <v>       0.05555556 </v>
   <v>       0.02777778 </v>
   <v>       0.02777778 </v>
   <v>       0.02777778 </v>
   <v>       0.00694444 </v>
   <v>       0.01388889 </v>
   <v>       0.05555556 </v>
   <v>       0.05555556 </v>
   <v>       0.02777778 </v>
   <v>       0.05555556 </v>
   <v>       0.11111111 </v>
   <v>       0.05555556 </v>
   <v>       0.05555556 </v>
   <v>       0.05555556 </v>
   <v>       0.01388889 </v>
   <v>       0.00694444 </v>
   <v>       0.02777778 </v>
   <v>       0.02777778 </v>
   <v>       0.01388889 </v>
   <v>       0.02777778 </v>
   <v>       0.05555556 </v>
   <v>       0.02777778 </v>
   <v>       0.02777778 </v>
   <v>       0.02777778 </v>
   <v>       0.00694444 </v>
  </varray>
 </kpoints>
 <parameters>
  <separator name="general" >
   <i type="string" name="SYSTEM">unknown system</i>
   <i type="logical" name="LCOMPAT"> F  </i>
  </separator>
  <separator name="electronic" >
   <i type="string" name="PREC">n</i>
   <i name="ENMAX">    600.00000000</i>
   <i name="ENAUG">    490.69000000</i>
   <i name="EDIFF">      0.00000100</i>
   <i type="int" name="IALGO">    38</i>
   <i type="int" name="IWAVPR">    11</i>
   <i type="int" name="NBANDS">    88</i>
   <i type="int" name="NBANDSLOW">    -1</i>
   <i type="int" name="NBANDSHIGH">    -1</i>
   <i name="NELECT">    122.40000000</i>
   <i type="int" name="TURBO">     0</i>
   <i type="int" name="IRESTART">     0</i>
   <i type="int" name="NREBOOT">     0</i>
   <i type="int" name="NMIN">     0</i>
   <i name="EREF">      0.00000000</i>
   <separator name="electronic smearing" >
    <i type="int" name="ISMEAR">     1</i>
    <i name="SIGMA">      0.20000000</i>
    <i name="KSPACING">      0.50000000</i>
    <i type="logical" name="KGAMMA"> T  </i>
    <i type="logical" name="KBLOWUP"> T  </i>
   </separator>
   <separator name="electronic projectors" >
    <i type="logical" name="LREAL"> F  </i>
    <v name="ROPT">      0.00000000      0.00000000      0.00000000</v>
    <i type="int" name="LMAXPAW">  -100</i>
    <i type="int" name="LMAXMIX">     4</i>
    <i type="logical" name="NLSPLINE"> F  </i>
   </separator>
   <separator name="electronic startup" >
    <i type="int" name="ISTART">     0</i>
    <i type="int" name="ICHARG">     2</i>
    <i type="int" name="INIWAV">     1</i>
   </separator>
   <separator name="electronic spin" >
    <i type="int" name="ISPIN">     1</i>
    <i type="logical" name="LNONCOLLINEAR"> F  </i>
    <v name="MAGMOM">      1.00000000      1.00000000      1.00000000      1.00000000      1.00000000      1.00000000      1.00000000      1.00000000      1.00000000      1.00000000      1.00000000      1.00000000      1.00000000      1.00000000      1.00000000      1.00000000      1.00000000      1.00000000      1.00000000      1.00000000
      1.00000000      1.00000000      1.00000000      1.00000000</v>
    <i name="NUPDOWN">     -1.00000000</i>
    <i type="logical" name="LSORBIT"> F  </i>
    <v name="SAXIS">      0.00000000      0.00000000      1.00000000</v>
    <i type="logical" name="LSPIRAL"> F  </i>
    <v name="QSPIRAL">      0.00000000      0.00000000      0.00000000</v>
    <i type="logical" name="LZEROZ"> F  </i>
   </separator>
   <separator name="electronic exchange-correlation" >
    <i type="logical" name="LASPH"> F  </i>
   </separator>
   <separator name="electronic convergence" >
    <i type="int" name="NELM">   500</i>
    <i type="int" name="NELMDL">    -5</i>
    <i type="int" name="NELMIN">     2</i>
    <i name="ENINI">    600.00000000</i>
    <separator name="electronic convergence detail" >
     <i type="logical" name="LDIAG"> T  </i>
     <i type="logical" name="LSUBROT"> F  </i>
     <i name="WEIMIN">      0.00100000</i>
     <i name="EBREAK">      0.00000000</i>
     <i name="DEPER">      0.30000000</i>
     <i type="int" name="NRMM">     4</i>
     <i name="TIME">      0.40000000</i>
    </separator>
   </separator>
   <separator name="electronic mixer" >
    <i name="AMIX">      0.40000000</i>
    <i name="BMIX">      1.00000000</i>
    <i name="AMIN">      0.10000000</i>
    <i name="AMIX_MAG">      1.60000000</i>
    <i name="BMIX_MAG">      1.00000000</i>
    <separator name="electronic mixer details" >
     <i type="int" name="IMIX">     4</i>
     <i type="logical" name="MIXFIRST"> F  </i>
     <i type="int" name="MAXMIX">   -45</i>
     <i name="WC">    100.00000000</i>
     <i type="int" name="INIMIX">     1</i>
     <i type="int" name="MIXPRE">     1</i>
     <i type="int" name="MREMOVE">     5</i>
    </separator>
   </separator>
   <separator name="electronic dipolcorrection" >
    <i type="logical" name="LDIPOL"> F  </i>
    <i type="logical" name="LMONO"> F  </i>
    <i type="int" name="IDIPOL">     0</i>
    <i name="EPSILON">      1.00000000</i>
    <v name="DIPOL">   -100.00000000   -100.00000000   -100.00000000</v>
    <i name="EFIELD">      0.00000000</i>
    <i type="logical" name="LVACPOTAV"> F  </i>
   </separator>
  </separator>
  <separator name="grids" >
   <i type="int" name="NGX">    36</i>
   <i type="int" name="NGY">    36</i>
   <i type="int" name="NGZ">    48</i>
   <i type="int" name="NGXF">    72</i>
   <i type="int" name="NGYF">    72</i>
   <i type="int" name="NGZF">    96</i>
   <i type="logical" name="ADDGRID"> F  </i>
  </separator>
  <separator name="ionic" >
   <i type="int" name="NSW">   325</i>
   <i type="int" name="IBRION">     6</i>
   <i type="int" name="MDALGO">     0</i>
   <i type="int" name="ISIF">     3</i>
   <i name="PSTRESS">      0.00000000</i>
   <i name="EDIFFG">     -0.00100000</i>
   <i type="int" name="NFREE">     2</i>
   <i name="POTIM">      0.01500000</i>
   <i name="SMASS">     -3.00000000</i>
   <i name="SCALEE">      1.00000000</i>
  </separator>
  <separator name="ionic md" >
   <i name="TEBEG">      0.00010000</i>
   <i name="TEEND">      0.00010000</i>
   <i type="int" name="NBLOCK">     1</i>
   <i type="int" name="KBLOCK">   325</i>
   <i type="int" name="NPACO">   256</i>
   <i name="APACO">     10.00000000</i>
  </separator>
  <separator name="symmetry" >
   <i type="int" name="ISYM">     2</i>
   <i name="SYMPREC">      0.00000100</i>
  </separator>
  <separator name="dos" >
   <i type="int" name="LORBIT">     0</i>
   <v name="RWIGS">     -1.00000000     -1.00000000     -1.00000000</v>
   <i type="int" name="NEDOS">   301</i>
   <i name="EMIN">     10.00000000</i>
   <i name="EMAX">    -10.00000000</i>
   <i name="EFERMI">      0.00000000</i>
  </separator>
  <separator name="writing" >
   <i type="int" name="NWRITE">     2</i>
   <i type="logical" name="LWAVE"> T  </i>
   <i type="logical" name="LDOWNSAMPLE"> F  </i>
   <i type="logical" name="LCHARG"> T  </i>
   <i type="logical" name="LPARD"> F  </i>
   <i type="logical" name="LVTOT"> F  </i>
   <i type="logical" name="LVHAR"> F  </i>
   <i type="logical" name="LELF"> F  </i>
   <i type="logical" name="LOPTICS"> F  </i>
   <v name="STM">      0.00000000      0.00000000      0.00000000      0.00000000      0.00000000      0.00000000      0.00000000</v>
  </separator>
  <separator name="performance" >
   <i type="int" name="NPAR">    44</i>
   <i type="int" name="NSIM">     4</i>
   <i type="int" name="NBLK">    -1</i>
   <i type="logical" name="LPLANE"> T  </i>
   <i type="logical" name="LSCALAPACK"> T  </i>
   <i type="logical" name="LSCAAWARE"> F  </i>
   <i type="logical" name="LSCALU"> F  </i>
   <i type="logical" name="LASYNC"> F  </i>
   <i type="logical" name="LORBITALREAL"> F  </i>
  </separator>
  <separator name="miscellaneous" >
   <i type="int" name="IDIOT">     3</i>
   <i type="int" name="PHON_NSTRUCT">    -1</i>
   <i type="logical" name="LMUSIC"> F  </i>
   <v name="POMASS">     47.88000000     26.98100000     69.72300000</v>
   <v name="DARWINR">      0.00000000      0.00000000      0.00000000</v>
   <v name="DARWINV">      1.00000000      1.00000000      1.00000000</v>
   <i type="logical" name="LCORR"> T  </i>
  </separator>
  <i type="logical" name="GGA_COMPAT"> T  </i>
  <i type="logical" name="LBERRY"> F  </i>
  <i type="int" name="ICORELEVEL">     0</i>
  <i type="logical" name="LDAU"> F  </i>
  <i type="int" name="I_CONSTRAINED_M">     0</i>
  <separator name="electronic exchange-correlation" >
   <i type="string" name="GGA    ">PE</i>
   <i type="string" name="XC_C">1</i>
   <i type="int" name="VOSKOWN">     0</i>
   <i type="logical" name="LHFCALC"> F  </i>
   <i type="string" name="PRECFOCK"></i>
   <i type="logical" name="LSYMGRAD"> F  </i>
   <i type="logical" name="LHFONE"> F  </i>
   <i type="logical" name="LRHFCALC"> F  </i>
   <i type="logical" name="LTHOMAS"> F  </i>
   <i type="logical" name="LMODELHF"> F  </i>
   <i type="logical" name="LFOCKACE"> F  </i>
   <i name="ENCUT4O">     -1.00000000</i>
   <i type="int" name="EXXOEP">     0</i>
   <i type="int" name="FOURORBIT">     0</i>
   <i name="AEXX">      0.00000000</i>
   <i name="HFALPHA">      0.00000000</i>
   <i name="MCALPHA">      0.00000000</i>
   <i name="ALDAX">      1.00000000</i>
   <i name="AGGAX">      1.00000000</i>
   <i name="AMGGAX">      1.00000000</i>
   <i name="ALDAC">      1.00000000</i>
   <i name="AGGAC">      1.00000000</i>
   <i name="AMGGAC">      1.00000000</i>
   <i type="int" name="NKREDX">     1</i>
   <i type="int" name="NKREDY">     1</i>
   <i type="int" name="NKREDZ">     1</i>
   <i type="logical" name="SHIFTRED"> F  </i>
   <i type="logical" name="ODDONLY"> F  </i>
   <i type="logical" name="EVENONLY"> F  </i>
   <i type="int" name="LMAXFOCK">     0</i>
   <i type="int" name="NMAXFOCKAE">     0</i>
   <i type="logical" name="LFOCKAEDFT"> F  </i>
   <i name="HFSCREEN">      0.00000000</i>
   <i name="HFSCREENC">      0.00000000</i>
   <i type="int" name="NBANDSGWLOW">     0</i>
  </separator>
  <separator name="vdW DFT" >
   <i type="logical" name="LUSE_VDW"> F  </i>
   <i type="int" name="IVDW_NL">    -1</i>
   <i type="logical" name="LSPIN_VDW"> F  </i>
   <i name="ZAB_VDW">     -0.84910000</i>
   <i name="GAMMA_VDW">      1.39626340</i>
   <i name="ALPHA_VDW">      0.00000000</i>
   <i name="PARAM1">      0.12340000</i>
   <i name="PARAM2">      1.00000000</i>
   <i name="BPARAM">      6.30000000</i>
   <i name="CPARAM">      0.00930000</i>
  </separator>
  <separator name="model GW" >
   <i type="int" name="MODEL_GW">     0</i>
   <i name="MODEL_EPS0">      6.25022351</i>
   <i name="MODEL_ALPHA">      1.00000000</i>
  </separator>
  <separator name="linear response parameters" >
   <i type="logical" name="LEPSILON"> F  </i>
   <i type="logical" name="LRPA"> F  </i>
   <i type="logical" name="LNABLA"> F  </i>
   <i type="logical" name="LVEL"> F  </i>
   <i name="CSHIFT">      0.10000000</i>
   <i name="OMEGAMAX">     -1.00000000</i>
   <i name="DEG_THRESHOLD">      0.00200000</i>
   <i name="RTIME">     -0.10000000</i>
   <i name="WPLASMAI">      0.00000000</i>
   <v name="DFIELD">      0.00000000      0.00000000      0.00000000</v>
   <v name="WPLASMA">      0.00000000      0.00000000      0.00000000      0.00000000      0.00000000      0.00000000      0.00000000      0.00000000      0.00000000</v>
  </separator>
  <separator name="orbital magnetization" >
   <i type="logical" name="NUCIND"> F  </i>
   <v name="MAGPOS">      0.00000000      0.00000000      0.00000000</v>
   <i type="logical" name="LNICSALL"> T  </i>
   <i type="logical" name="ORBITALMAG"> F  </i>
   <i type="logical" name="LMAGBLOCH"> F  </i>
   <i type="logical" name="LCHIMAG"> F  </i>
   <i type="logical" name="LGAUGE"> T  </i>
   <i type="int" name="MAGATOM">     0</i>
   <v name="MAGDIPOL">      0.00000000      0.00000000      0.00000000</v>
   <v name="AVECCONST">      0.00000000      0.00000000      0.00000000</v>
  </separator>
  <separator name="response functions" >
   <i type="logical" name="LALL_IN_ONE"> F  </i>
   <i type="int" name="IALL_IN_ONE">    -1</i>
   <i type="int" name="NBANDS_WAVE">    -1</i>
   <i type="logical" name="LFINITE_TEMPERATURE"> F  </i>
   <i type="logical" name="LADDER"> F  </i>
   <i type="logical" name="LRPAFORCE"> F  </i>
   <i type="logical" name="LFXC"> F  </i>
   <i type="logical" name="LHARTREE"> T  </i>
   <i type="int" name="IBSE">     2</i>
   <v type="int" name="KPOINT">    -1     0     0     0</v>
   <i type="logical" name="LTCTC"> F  </i>
   <i type="logical" name="LTCTE"> F  </i>
   <i type="logical" name="LTETE"> F  </i>
   <i type="logical" name="LTRIPLET"> F  </i>
   <i type="logical" name="LFXCEPS"> F  </i>
   <i type="logical" name="LFXHEG"> F  </i>
   <i type="int" name="NATURALO">     2</i>
   <i type="logical" name="LHOLEGF"> F  </i>
   <i type="logical" name="L2ORDER"> F  </i>
   <i type="logical" name="LDMP1"> F  </i>
   <i type="logical" name="LMP2LT"> F  </i>
   <i type="logical" name="LSMP2LT"> F  </i>
   <i type="logical" name="LGWLF"> F  </i>
   <i name="ENCUTGW">     -1.60000002</i>
   <i name="ENCUTGWSOFT">     -1.60000002</i>
   <i name="ENCUTLF">     -1.00000000</i>
   <i type="logical" name="ESF_SPLINES"> F  </i>
   <i name="ESF_CONV">      0.01000000</i>
   <i type="int" name="ESF_NINTER">    15</i>
   <i type="int" name="LMAXMP2">    -1</i>
   <i name="SCISSOR">      0.00000000</i>
   <i type="int" name="NOMEGA">     0</i>
   <i type="int" name="NOMEGAR">     0</i>
   <i type="int" name="NBANDSGW">    -1</i>
   <i type="int" name="NBANDSO">    -1</i>
   <i type="int" name="NBANDSV">    -1</i>
   <i type="int" name="NELMGW">     1</i>
   <i type="int" name="NELMHF">     1</i>
   <i type="int" name="DIM">     3</i>
   <i type="int" name="IESPILON">     4</i>
   <i type="int" name="ANTIRES">     0</i>
   <i name="OMEGAMAX">    -30.00000000</i>
   <i name="OMEGAMIN">    -30.00000000</i>
   <i name="OMEGATL">   -200.00000000</i>
   <i type="int" name="OMEGAGRID">     0</i>
   <i name="CSHIFT">     -0.10000000</i>
   <i type="logical" name="LSELFENERGY"> F  </i>
   <i type="logical" name="LSPECTRAL"> F  </i>
   <i type="logical" name="LSPECTRALGW"> F  </i>
   <i type="logical" name="LSINGLES"> F  </i>
   <i type="logical" name="LFERMIGW"> F  </i>
   <i type="logical" name="ODDONLYGW"> F  </i>
   <i type="logical" name="EVENONLYGW"> F  </i>
   <i type="int" name="NKREDLFX">     1</i>
   <i type="int" name="NKREDLFY">     1</i>
   <i type="int" name="NKREDLFZ">     1</i>
   <i type="int" name="MAXMEM">  2800</i>
   <i type="int" name="TELESCOPE">     0</i>
   <i type="int" name="NTAUPAR">    -1</i>
   <i type="int" name="NOMEGAPAR">    -1</i>
   <i name="DAMP_NEWTON">      0.80000001</i>
   <i name="LAMBDA">      1.00000000</i>
  </separator>
  <separator name="External order field" >
   <i name="OFIELD_KAPPA">      0.00000000</i>
   <v name="OFIELD_K">      0.00000000      0.00000000      0.00000000</v>
   <i name="OFIELD_Q6_NEAR">      0.00000000</i>
   <i name="OFIELD_Q6_FAR">      0.00000000</i>
   <i name="OFIELD_A">      0.00000000</i>
  </separator>
  <separator name="optional k-points parameters" >
   <i type="int" name="KPOINTS_OPT_MODE">     1</i>
   <i type="logical" name="LKPOINTS_OPT"> F  </i>
  </separator>
 </parameters>
 <atominfo>
  <atoms>      24 </atoms>
  <types>       3 </types>
  <array name="atoms" >
   <dimension dim="1">ion</dimension>
   <field type="string">element</field>
   <field type="int">atomtype</field>
   <set>
    <rc><c>Ti</c><c>   1</c></rc>
    <rc><c>Ti</c><c>   1</c></rc>
    <rc><c>Ti</c><c>   1</c></rc>
    <rc><c>Ti</c><c>   1</c></rc>
    <rc><c>Ti</c><c>   1</c></rc>
    <rc><c>Ti</c><c>   1</c></rc>
    <rc><c>Ti</c><c>   1</c></rc>
    <rc><c>Ti</c><c>   1</c></rc>
    <rc><c>Al</c><c>   2</c></rc>
    <rc><c>Al</c><c>   2</c></rc>
    <rc><c>Al</c><c>   2</c></rc>
    <rc><c>Al</c><c>   2</c></rc>
    <rc><c>Al</c><c>   2</c></rc>
    <rc><c>Al</c><c>   2</c></rc>
    <rc><c>Al</c><c>   2</c></rc>
    <rc><c>Al</c><c>   2</c></rc>
    <rc><c>Ga</c><c>   3</c></rc>
    <rc><c>Ga</c><c>   3</c></rc>
    <rc><c>Ga</c><c>   3</c></rc>
    <rc><c>Ga</c><c>   3</c></rc>
    <rc><c>Ga</c><c>   3</c></rc>
    <rc><c>Ga</c><c>   3</c></rc>
    <rc><c>Ga</c><c>   3</c></rc>
    <rc><c>Ga</c><c>   3</c></rc>
   </set>
  </array>
  <array name="atomtypes" >
   <dimension dim="1">type</dimension>
   <field type="int">atomspertype</field>
   <field type="string">element</field>
   <field>mass</field>
   <field>valence</field>
   <field type="string">pseudopotential</field>
   <set>
    <rc><c>   8</c><c>Ti</c><c>     47.88000000</c><c>     12.00000000</c><c>  PAW_PBE Ti_sv 26Sep2005               </c></rc>
    <rc><c>   8</c><c>Al</c><c>     26.98100000</c><c>      3.00000000</c><c>  PAW_PBE Al 04Jan2001                  </c></rc>
    <rc><c>   8</c><c>Ga</c><c>     69.72300000</c><c>     13.00000000</c><c>  PAW_PBE Ga_d 06Jul2010                </c></rc>
   </set>
  </array>
 </atominfo>
 <structure name="initialpos" >
  <crystal>
   <varray name="basis" >
    <v>       5.58242785       0.00000000       0.00000000 </v>
    <v>       0.00000000       5.58242785       0.00000000 </v>
    <v>       0.00000000       0.00000000       8.02249218 </v>
   </varray>
   <i name="volume">    250.00894043 </i>
   <varray name="rec_basis" >
    <v>       0.17913353       0.00000000       0.00000000 </v>
    <v>       0.00000000       0.17913353       0.00000000 </v>
    <v>       0.00000000       0.00000000       0.12464955 </v>
   </varray>
  </crystal>
  <varray name="positions" >
   <v>       0.00000000       0.00000000       0.00000000 </v>
   <v>       0.00000000       0.00000000       0.50000000 </v>
   <v>       0.00000000       0.50000000       0.00000000 </v>
   <v>       0.00000000       0.50000000       0.50000000 </v>
   <v>       0.50000000       0.00000000       0.00000000 </v>
   <v>       0.50000000       0.00000000       0.50000000 </v>
   <v>       0.50000000       0.50000000       0.00000000 </v>
   <v>       0.50000000       0.50000000       0.50000000 </v>
   <v>       0.25000000       0.25000000       0.25000000 </v>
   <v>       0.25000000       0.25000000       0.75000000 </v>
   <v>       0.25000000       0.75000000       0.25000000 </v>
   <v>       0.25000000       0.75000000       0.75000000 </v>
   <v>       0.75000000       0.25000000       0.25000000 </v>
   <v>       0.75000000       0.25000000       0.75000000 </v>
   <v>       0.75000000       0.75000000       0.25000000 </v>
   <v>       0.75000000       0.75000000       0.75000000 </v>
   <v>       0.25000000       0.25000000       0.25000000 </v>
   <v>       0.25000000       0.25000000       0.75000000 </v>
   <v>       0.25000000       0.75000000       0.25000000 </v>
   <v>       0.25000000       0.75000000       0.75000000 </v>
   <v>       0.75000000       0.25000000       0.25000000 </v>
   <v>       0.75000000       0.25000000       0.75000000 </v>
   <v>       0.75000000       0.75000000       0.25000000 </v>
   <v>       0.75000000       0.75000000       0.75000000 </v>
  </varray>
 </structure>
 <calculation>
  <scstep>
   <time name="dav">    2.81    2.81</time>
   <time name="total">    2.83    2.83</time>
   <energy>
    <i name="alphaZ">    332.45031378 </i>
    <i name="ewald">  -9063.32513929 </i>
    <i name="hartreedc">  -4021.76321863 </i>
    <i name="XCdc">    295.50975049 </i>
    <i name="pawpsdc">  11014.99211922 </i>
    <i name="pawaedc"> -10690.39853751 </i>
    <i name="eentropy">     -0.00012771 </i>
    <i name="bandstr">   -126.96596212 </i>
    <i name="atom">  13635.86976126 </i>
    <i name="e_fr_energy">   1376.36895950 </i>
    <i name="e_wo_entrp">   1376.36908721 </i>
    <i name="e_0_energy">   1376.36900207 </i>
   </energy>
  </scstep>
  <scstep>
   <time name="dav">    2.79    2.79</time>
   <time name="total">    2.79    2.79</time>
   <energy>
    <i name="e_fr_energy">    265.43862821 </i>
    <i name="e_wo_entrp">    265.44679429 </i>
    <i name="e_0_energy">    265.44135024 </i>
   </energy>
  </scstep>
  <scstep>
   <time name="dav">    6.42    6.43</time>
   <time name="total">    6.43    6.43</time>
   <energy>
    <i name="e_fr_energy">    161.03296995 </i>
    <i name="e_wo_entrp">    161.01071733 </i>
    <i name="e_0_energy">    161.02555241 </i>
   </energy>
  </scstep>
  <scstep>
   <time name="dav">    3.49    3.49</time>
   <time name="total">    3.49    3.49</time>
   <energy>
    <i name="e_fr_energy">    156.18992137 </i>
    <i name="e_wo_entrp">    156.17669511 </i>
    <i name="e_0_energy">    156.18551261 </i>
   </energy>
  </scstep>
  <scstep>
   <time name="dav">    5.35    5.36</time>
   <time name="total">    5.41    5.41</time>
   <energy>
    <i name="e_fr_energy">    155.88785865 </i>
    <i name="e_wo_entrp">    155.87496007 </i>
    <i name="e_0_energy">    155.88355912 </i>
   </energy>
  </scstep>
  <scstep>
   <time name="dav">    5.17    5.17</time>
   <time name="total">    5.23    5.24</time>
   <energy>
    <i name="e_fr_energy">    215.53396424 </i>
    <i name="e_wo_entrp">    215.54874932 </i>
    <i name="e_0_energy">    215.53889260 </i>
   </energy>
  </scstep>
  <scstep>
   <time name="dav">    6.30    6.30</time>
   <time name="total">    6.37    6.37</time>
   <energy>
    <i name="e_fr_energy">     87.37837425 </i>
    <i name="e_wo_entrp">     88.28016241 </i>
    <i name="e_0_energy">     87.67897030 </i>
   </energy>
  </scstep>
  <scstep>
   <time name="dav">    6.22    6.22</time>
   <time name="total">    6.28    6.28</time>
   <energy>
    <i name="e_fr_energy">    240.60305548 </i>
    <i name="e_wo_entrp">    240.62208983 </i>
    <i name="e_0_energy">    240.60940027 </i>
   </energy>
  </scstep>
  <scstep>
   <time name="dav">    3.76    3.76</time>
   <time name="total">    3.83    3.83</time>
   <energy>
    <i name="e_fr_energy">    223.15991885 </i>
    <i name="e_wo_entrp">    223.19664128 </i>
    <i name="e_0_energy">    223.17215966 </i>
   </energy>
  </scstep>
  <scstep>
   <time name="dav">    5.95    5.95</time>
   <time name="total">    6.02    6.02</time>
   <energy>
    <i name="e_fr_energy">    217.51705807 </i>
    <i name="e_wo_entrp">    217.51181682 </i>
    <i name="e_0_energy">    217.51531099 </i>
   </energy>
  </scstep>
  <scstep>
   <time name="dav">    5.09    5.09</time>
   <time name="total">    5.16    5.16</time>
   <energy>
    <i name="e_fr_energy">    216.17908865 </i>
    <i name="e_wo_entrp">    216.22530212 </i>
    <i name="e_0_energy">    216.19449314 </i>
   </energy>
  </scstep>
  <scstep>
   <time name="dav">    4.71    4.71</time>
   <time name="total">    4.78    4.78</time>
   <energy>
    <i name="e_fr_energy">    216.79074618 </i>
    <i name="e_wo_entrp">    216.88375533 </i>
    <i name="e_0_energy">    216.82174923 </i>
   </energy>
  </scstep>
  <scstep>
   <time name="dav">    6.25    6.25</time>
   <time name="total">    6.31    6.31</time>
   <energy>
    <i name="e_fr_energy">    200.87470800 </i>
    <i name="e_wo_entrp">    201.44402004 </i>
    <i name="e_0_energy">    201.06447868 </i>
   </energy>
  </scstep>
  <scstep>
   <time name="dav">    5.76    5.76</time>
   <time name="total">    5.82    5.82</time>
   <energy>
    <i name="e_fr_energy">    219.46252307 </i>
    <i name="e_wo_entrp">    219.35452139 </i>
    <i name="e_0_energy">    219.42652251 </i>
   </energy>
  </scstep>
  <scstep>
   <time name="dav">    5.07    5.07</time>
   <time name="total">    5.13    5.13</time>
   <energy>
    <i name="e_fr_energy">    218.05126100 </i>
    <i name="e_wo_entrp">    217.92703711 </i>
    <i name="e_0_energy">    218.00985303 </i>
   </energy>
  </scstep>
  <scstep>
   <time name="dav">    4.53    4.53</time>
   <time name="total">    4.60    4.60</time>
   <energy>
    <i name="e_fr_energy">    205.83380173 </i>
    <i name="e_wo_entrp">    205.90497902 </i>
    <i name="e_0_energy">    205.85752749 </i>
   </energy>
  </scstep>
  <scstep>
   <time name="dav">    4.62    4.63</time>
   <time name="total">    4.69    4.69</time>
   <energy>
    <i name="e_fr_energy">    218.96169902 </i>
    <i name="e_wo_entrp">    218.83523566 </i>
    <i name="e_0_energy">    218.91954457 </i>
   </energy>
  </scstep>
  <scstep>
   <time name="dav">    5.21    5.21</time>
   <time name="total">    5.27    5.27</time>
   <energy>
    <i name="e_fr_energy">    219.72106474 </i>
    <i name="e_wo_entrp">    219.73106038 </i>
    <i name="e_0_energy">    219.72439662 </i>
   </energy>
  </scstep>
  <scstep>
   <time name="dav">    4.99    4.99</time>
   <time name="total">    5.05    5.05</time>
   <energy>
    <i name="e_fr_energy">    219.54072821 </i>
    <i name="e_wo_entrp">    219.55353988 </i>
    <i name="e_0_energy">    219.54499877 </i>
   </energy>
  </scstep>
  <scstep>
   <time name="dav">    4.92    4.92</time>
   <time name="total">    4.98    4.98</time>
   <energy>
    <i name="e_fr_energy">    220.40507216 </i>
    <i name="e_wo_entrp">    220.39103450 </i>
    <i name="e_0_energy">    220.40039294 </i>
   </energy>
  </scstep>
  <scstep>
   <time name="dav">    4.33    4.33</time>
   <time name="total">    4.40    4.40</time>
   <energy>
    <i name="e_fr_energy">    220.41808516 </i>
    <i name="e_wo_entrp">    220.41139563 </i>
    <i name="e_0_energy">    220.41585532 </i>
   </energy>
  </scstep>
  <scstep>
   <time name="dav">    6.15    6.15</time>
   <time name="total">    6.21    6.21</time>
   <energy>
    <i name="e_fr_energy">    220.45868143 </i>
    <i name="e_wo_entrp">    220.45550146 </i>
    <i name="e_0_energy">    220.45762144 </i>
   </energy>
  </scstep>
  <scstep>
   <time name="dav">    4.36    4.36</time>
   <time name="total">    4.43    4.43</time>
   <energy>
    <i name="e_fr_energy">    220.44285684 </i>
    <i name="e_wo_entrp">    220.44221282 </i>
    <i name="e_0_energy">    220.44264217 </i>
   </energy>
  </scstep>
  <scstep>
   <time name="dav">    4.69    4.69</time>
   <time name="total">    4.76    4.76</time>
   <energy>
    <i name="e_fr_energy">    220.46613637 </i>
    <i name="e_wo_entrp">    220.46512363 </i>
    <i name="e_0_energy">    220.46579879 </i>
   </energy>
  </scstep>
  <scstep>
   <time name="dav">    4.08    4.08</time>
   <time name="total">    4.15    4.15</time>
   <energy>
    <i name="e_fr_energy">    220.48970469 </i>
    <i name="e_wo_entrp">    220.48334040 </i>
    <i name="e_0_energy">    220.48758326 </i>
   </energy>
  </scstep>
  <scstep>
   <time name="dav">    4.57    4.57</time>
   <time name="total">    4.64    4.64</time>
   <energy>
    <i name="e_fr_energy">    220.58370768 </i>
    <i name="e_wo_entrp">    220.57861384 </i>
    <i name="e_0_energy">    220.58200973 </i>
   </energy>
  </scstep>
  <scstep>
   <time name="dav">    4.04    4.04</time>
   <time name="total">    4.11    4.11</time>
   <energy>
    <i name="e_fr_energy">    220.61612348 </i>
    <i name="e_wo_entrp">    220.60750260 </i>
    <i name="e_0_energy">    220.61324985 </i>
   </energy>
  </scstep>
  <scstep>
   <time name="dav">    4.85    4.85</time>
   <time name="total">    4.92    4.92</time>
   <energy>
    <i name="e_fr_energy">    220.64294525 </i>
    <i name="e_wo_entrp">    220.63455615 </i>
    <i name="e_0_energy">    220.64014889 </i>
   </energy>
  </scstep>
  <scstep>
   <time name="dav">    5.15    5.15</time>
   <time name="total">    5.22    5.22</time>
   <energy>
    <i name="e_fr_energy">    220.66425263 </i>
    <i name="e_wo_entrp">    220.65166747 </i>
    <i name="e_0_energy">    220.66005757 </i>
   </energy>
  </scstep>
  <scstep>
   <time name="dav">    5.55    5.55</time>
   <time name="total">    5.62    5.62</time>
   <energy>
    <i name="e_fr_energy">    220.67811684 </i>
    <i name="e_wo_entrp">    220.66422931 </i>
    <i name="e_0_energy">    220.67348767 </i>
   </energy>
  </scstep>
  <scstep>
   <time name="dav">    5.67    5.67</time>
   <time name="total">    5.74    5.74</time>
   <energy>
    <i name="e_fr_energy">    220.68629303 </i>
    <i name="e_wo_entrp">    220.67248935 </i>
    <i name="e_0_energy">    220.68169180 </i>
   </energy>
  </scstep>
  <scstep>
   <time name="dav">    5.99    5.99</time>
   <time name="total">    6.06    6.06</time>
   <energy>
    <i name="e_fr_energy">    220.70270260 </i>
    <i name="e_wo_entrp">    220.69153137 </i>
    <i name="e_0_energy">    220.69897886 </i>
   </energy>
  </scstep>
  <scstep>
   <time name="dav">    4.88    4.88</time>
   <time name="total">    4.95    4.95</time>
   <energy>
    <i name="e_fr_energy">    220.70605118 </i>
    <i name="e_wo_entrp">    220.69508284 </i>
    <i name="e_0_energy">    220.70239506 </i>
   </energy>
  </scstep>
  <scstep>
   <time name="dav">    6.32    6.32</time>
   <time name="total">    6.38    6.39</time>
   <energy>
    <i name="e_fr_energy">    220.70909686 </i>
    <i name="e_wo_entrp">    220.70100760 </i>
    <i name="e_0_energy">    220.70640044 </i>
   </energy>
  </scstep>
  <scstep>
   <time name="dav">    3.60    3.60</time>
   <time name="total">    3.67    3.67</time>
   <energy>
    <i name="e_fr_energy">    220.70906742 </i>
    <i name="e_wo_entrp">    220.70096421 </i>
    <i name="e_0_energy">    220.70636635 </i>
   </energy>
  </scstep>
  <scstep>
   <time name="dav">    5.21    5.21</time>
   <time name="total">    5.28    5.28</time>
   <energy>
    <i name="e_fr_energy">    220.70894046 </i>
    <i name="e_wo_entrp">    220.70140848 </i>
    <i name="e_0_energy">    220.70642980 </i>
   </energy>
  </scstep>
  <scstep>
   <time name="dav">    5.45    5.45</time>
   <time name="total">    5.52    5.52</time>
   <energy>
    <i name="e_fr_energy">    220.70894738 </i>
    <i name="e_wo_entrp">    220.70114011 </i>
    <i name="e_0_energy">    220.70634496 </i>
   </energy>
  </scstep>
  <scstep>
   <time name="dav">    5.29    5.29</time>
   <time name="total">    5.36    5.36</time>
   <energy>
    <i name="e_fr_energy">    220.70903979 </i>
    <i name="e_wo_entrp">    220.70097673 </i>
    <i name="e_0_energy">    220.70635210 </i>
   </energy>
  </scstep>
  <scstep>
   <time name="dav">    4.02    4.02</time>
   <time name="total">    4.09    4.09</time>
   <energy>
    <i name="e_fr_energy">    220.70906187 </i>
    <i name="e_wo_entrp">    220.70092872 </i>
    <i name="e_0_energy">    220.70635082 </i>
   </energy>
  </scstep>
  <scstep>
   <time name="dav">    5.79    5.79</time>
   <time name="total">    5.86    5.86</time>
   <energy>
    <i name="e_fr_energy">    220.70910551 </i>
    <i name="e_wo_entrp">    220.70089256 </i>
    <i name="e_0_energy">    220.70636786 </i>
   </energy>
  </scstep>
  <scstep>
   <time name="dav">    3.88    3.88</time>
   <time name="total">    3.95    3.95</time>
   <energy>
    <i name="e_fr_energy">    220.70911052 </i>
    <i name="e_wo_entrp">    220.70088623 </i>
    <i name="e_0_energy">    220.70636909 </i>
   </energy>
  </scstep>
  <scstep>
   <time name="dav">    4.09    4.09</time>
   <time name="total">    4.16    4.16</time>
   <energy>
    <i name="e_fr_energy">    220.70911245 </i>
    <i name="e_wo_entrp">    220.70086913 </i>
    <i name="e_0_energy">    220.70636468 </i>
   </energy>
  </scstep>
  <scstep>
   <time name="dav">    3.90    3.90</time>
   <time name="total">    3.92    3.92</time>
   <energy>
    <i name="alphaZ">    332.45031378 </i>
    <i name="ewald">  -9063.32513929 </i>
    <i name="hartreedc">  -3798.29338455 </i>
    <i name="XCdc">    287.35579853 </i>
    <i name="pawpsdc">  12879.54913192 </i>
    <i name="pawaedc"> -12461.81079643 </i>
    <i name="eentropy">      0.00822044 </i>
    <i name="bandstr">  -1591.09479324 </i>
    <i name="atom">  13635.86976126 </i>
    <i name="e_fr_energy">    220.70911242 </i>
    <i name="e_wo_entrp">    220.70089198 </i>
    <i name="e_0_energy">    220.70637228 </i>
   </energy>
  </scstep>
  <structure>
   <crystal>
    <varray name="basis" >
     <v>       5.58242785       0.00000000       0.00000000 </v>
     <v>       0.00000000       5.58242785       0.00000000 </v>
     <v>       0.00000000       0.00000000       8.02249218 </v>
    </varray>
    <i name="volume">    250.00894043 </i>
    <varray name="rec_basis" >
     <v>       0.17913353       0.00000000       0.00000000 </v>
     <v>       0.00000000       0.17913353       0.00000000 </v>
     <v>       0.00000000       0.00000000       0.12464955 </v>
    </varray>
   </crystal>
   <varray name="positions" >
    <v>       0.00000000       0.00000000       0.00000000 </v>
    <v>       0.00000000       0.00000000       0.50000000 </v>
    <v>       0.00000000       0.50000000       0.00000000 </v>
    <v>       0.00000000       0.50000000       0.50000000 </v>
    <v>       0.50000000       0.00000000       0.00000000 </v>
    <v>       0.50000000       0.00000000       0.50000000 </v>
    <v>       0.50000000       0.50000000       0.00000000 </v>
    <v>       0.50000000       0.50000000       0.50000000 </v>
    <v>       0.25000000       0.25000000       0.25000000 </v>
    <v>       0.25000000       0.25000000       0.75000000 </v>
    <v>       0.25000000       0.75000000       0.25000000 </v>
    <v>       0.25000000       0.75000000       0.75000000 </v>
    <v>       0.75000000       0.25000000       0.25000000 </v>
    <v>       0.75000000       0.25000000       0.75000000 </v>
    <v>       0.75000000       0.75000000       0.25000000 </v>
    <v>       0.75000000       0.75000000       0.75000000 </v>
    <v>       0.25000000       0.25000000       0.25000000 </v>
    <v>       0.25000000       0.25000000       0.75000000 </v>
    <v>       0.25000000       0.75000000       0.25000000 </v>
    <v>       0.25000000       0.75000000       0.75000000 </v>
    <v>       0.75000000       0.25000000       0.25000000 </v>
    <v>       0.75000000       0.25000000       0.75000000 </v>
    <v>       0.75000000       0.75000000       0.25000000 </v>
    <v>       0.75000000       0.75000000       0.75000000 </v>
   </varray>
  </structure>
  <varray name="forces" >
   <v>       0.00000000       0.00000000       0.00000000 </v>
   <v>       0.00000000       0.00000000       0.00000000 </v>
   <v>      -0.00000000      -0.00000000      -0.00000000 </v>
   <v>       0.00000000      -0.00000000      -0.00000000 </v>
   <v>      -0.00000000      -0.00000000      -0.00000000 </v>
   <v>       0.00000000       0.00000000      -0.00000000 </v>
   <v>       0.00000000      -0.00000000       0.00000000 </v>
   <v>       0.00000000      -0.00000000      -0.00000000 </v>
   <v>      -0.00000000       0.00000000      -0.00000000 </v>
   <v>       0.00000000       0.00000000       0.00000000 </v>
   <v>       0.00000000      -0.00000000      -0.00000000 </v>
   <v>      -0.00000000      -0.00000000       0.00000000 </v>
   <v>       0.00000000       0.00000000      -0.00000000 </v>
   <v>       0.00000000       0.00000000      -0.00000000 </v>
   <v>       0.00000000       0.00000000      -0.00000000 </v>
   <v>      -0.00000000      -0.00000000       0.00000000 </v>
   <v>      -0.00000000      -0.00000000       0.00000000 </v>
   <v>      -0.00000000      -0.00000000      -0.00000000 </v>
   <v>      -0.00000000      -0.00000000       0.00000000 </v>
   <v>       0.00000000      -0.00000000       0.00000000 </v>
   <v>       0.00000000      -0.00000000       0.00000000 </v>
   <v>       0.00000000      -0.00000000       0.00000000 </v>
   <v>      -0.00000000       0.00000000      -0.00000000 </v>
   <v>      -0.00000000      -0.00000000       0.00000000 </v>
  </varray>
  <varray name="stress" >
   <v>       0.39076378       0.00000000       0.00000000 </v>
   <v>       0.00000000       0.39076378       0.00000000 </v>
   <v>      -0.00000000      -0.00000000      -0.06936826 </v>
  </varray>
  <energy>
   <i name="e_fr_energy">    220.70911242 </i>
   <i name="e_wo_entrp">    220.70089198 </i>
   <i name="e_0_energy">    220.70637228 </i>
  </energy>
  <kpoints>
   <generation param="Gamma">
    <v type="int" name="divisions">       6        6        4 </v>
    <v name="usershift">      0.00000000       0.00000000       0.00000000 </v>
    <v name="genvec1">      0.16666667       0.00000000       0.00000000 </v>
    <v name="genvec2">      0.00000000       0.16666667       0.00000000 </v>
    <v name="genvec3">      0.00000000       0.00000000       0.25000000 </v>
    <v name="shift">      0.00000000       0.00000000       0.00000000 </v>
   </generation>
   <varray name="kpointlist" >
    <v>       0.00000000       0.00000000       0.00000000 </v>
    <v>       0.16666667       0.00000000       0.00000000 </v>
    <v>       0.33333333       0.00000000       0.00000000 </v>
    <v>       0.50000000       0.00000000       0.00000000 </v>
    <v>       0.00000000       0.16666667       0.00000000 </v>
    <v>       0.16666667       0.16666667       0.00000000 </v>
    <v>       0.33333333       0.16666667       0.00000000 </v>
    <v>       0.50000000       0.16666667       0.00000000 </v>
    <v>       0.00000000       0.33333333       0.00000000 </v>
    <v>       0.16666667       0.33333333       0.00000000 </v>
    <v>       0.33333333       0.33333333       0.00000000 </v>
    <v>       0.50000000       0.33333333       0.00000000 </v>
    <v>       0.00000000       0.50000000       0.00000000 </v>
    <v>       0.16666667       0.50000000       0.00000000 </v>
    <v>       0.33333333       0.50000000       0.00000000 </v>
    <v>       0.50000000       0.50000000       0.00000000 </v>
    <v>       0.00000000       0.00000000       0.25000000 </v>
    <v>       0.16666667       0.00000000       0.25000000 </v>
    <v>       0.33333333       0.00000000       0.25000000 </v>
    <v>       0.50000000       0.00000000       0.25000000 </v>
    <v>       0.00000000       0.16666667       0.25000000 </v>
    <v>       0.16666667       0.16666667       0.25000000 </v>
    <v>       0.33333333       0.16666667       0.25000000 </v>
    <v>       0.50000000       0.16666667       0.25000000 </v>
    <v>       0.00000000       0.33333333       0.25000000 </v>
    <v>       0.16666667       0.33333333       0.25000000 </v>
    <v>       0.33333333       0.33333333       0.25000000 </v>
    <v>       0.50000000       0.33333333       0.25000000 </v>
    <v>       0.00000000       0.50000000       0.25000000 </v>
    <v>       0.16666667       0.50000000       0.25000000 </v>
    <v>       0.33333333       0.50000000       0.25000000 </v>
    <v>       0.50000000       0.50000000       0.25000000 </v>
    <v>       0.00000000       0.00000000       0.50000000 </v>
    <v>       0.16666667       0.00000000       0.50000000 </v>
    <v>       0.33333333       0.00000000       0.50000000 </v>
    <v>       0.50000000       0.00000000       0.50000000 </v>
    <v>       0.00000000       0.16666667       0.50000000 </v>
    <v>       0.16666667       0.16666667       0.50000000 </v>
    <v>       0.33333333       0.16666667       0.50000000 </v>
    <v>       0.50000000       0.16666667       0.50000000 </v>
    <v>       0.00000000       0.33333333       0.50000000 </v>
    <v>       0.16666667       0.33333333       0.50000000 </v>
    <v>       0.33333333       0.33333333       0.50000000 </v>
    <v>       0.50000000       0.33333333       0.50000000 </v>
    <v>       0.00000000       0.50000000       0.50000000 </v>
    <v>       0.16666667       0.50000000       0.50000000 </v>
    <v>       0.33333333       0.50000000       0.50000000 </v>
    <v>       0.50000000       0.50000000       0.50000000 </v>
   </varray>
   <varray name="weights" >
    <v>       0.00694444 </v>
    <v>       0.01388889 </v>
    <v>       0.01388889 </v>
    <v>       0.00694444 </v>
    <v>       0.01388889 </v>
    <v>       0.02777778 </v>
    <v>       0.02777778 </v>
    <v>       0.01388889 </v>
    <v>       0.01388889 </v>
    <v>       0.02777778 </v>
    <v>       0.02777778 </v>
    <v>       0.01388889 </v>
    <v>       0.00694444 </v>
    <v>       0.01388889 </v>
    <v>       0.01388889 </v>
    <v>       0.00694444 </v>
    <v>       0.01388889 </v>
    <v>       0.02777778 </v>
    <v>       0.02777778 </v>
    <v>       0.01388889 </v>
    <v>       0.02777778 </v>
    <v>       0.05555556 </v>
    <v>       0.05555556 </v>
    <v>       0.02777778 </v>
    <v>       0.02777778 </v>
    <v>       0.05555556 </v>
    <v>       0.05555556 </v>
    <v>       0.02777778 </v>
    <v>       0.01388889 </v>
    <v>       0.02777778 </v>
    <v>       0.02777778 </v>
    <v>       0.01388889 </v>
    <v>       0.00694444 </v>
    <v>       0.01388889 </v>
    <v>       0.01388889 </v>
    <v>       0.00694444 </v>
    <v>       0.01388889 </v>
    <v>       0.02777778 </v>
    <v>       0.02777778 </v>
    <v>       0.01388889 </v>
    <v>       0.01388889 </v>
    <v>       0.02777778 </v>
    <v>       0.02777778 </v>
    <v>       0.01388889 </v>
    <v>       0.00694444 </v>
    <v>       0.01388889 </v>
    <v>       0.01388889 </v>
    <v>       0.00694444 </v>
   </varray>
  </kpoints>
  <time name="totalsc">  219.32  219.34</time>
 </calculation>
 <calculation>
  <scstep>
   <time name="dav">    4.45    4.45</time>
   <time name="total">    4.54    4.54</time>
   <energy>
    <i name="alphaZ">    327.53725496 </i>
    <i name="ewald">  -9026.10409785 </i>
    <i name="hartreedc">  -3772.63633964 </i>
    <i name="XCdc">    284.84927266 </i>
    <i name="pawpsdc">  12879.52358042 </i>
    <i name="pawaedc"> -12461.78863896 </i>
    <i name="eentropy">     -0.00116376 </i>
    <i name="bandstr">  -1646.66279556 </i>
    <i name="atom">  13635.86976126 </i>
    <i name="e_fr_energy">    220.58683352 </i>
    <i name="e_wo_entrp">    220.58799728 </i>
    <i name="e_0_energy">    220.58722144 </i>
   </energy>
  </scstep>
  <scstep>
   <time name="dav">    7.62    7.62</time>
   <time name="total">    7.72    7.72</time>
   <energy>
    <i name="e_fr_energy">    219.60040489 </i>
    <i name="e_wo_entrp">    219.46714288 </i>
    <i name="e_0_energy">    219.55598422 </i>
   </energy>
  </scstep>
  <scstep>
   <time name="dav">    9.39    9.39</time>
   <time name="total">    9.49    9.49</time>
   <energy>
    <i name="e_fr_energy">    218.78040058 </i>
    <i name="e_wo_entrp">    218.77098974 </i>
    <i name="e_0_energy">    218.77726363 </i>
   </energy>
  </scstep>
  <scstep>
   <time name="dav">    7.67    7.67</time>
   <time name="total">    7.76    7.76</time>
   <energy>
    <i name="e_fr_energy">    219.95573735 </i>
    <i name="e_wo_entrp">    219.94133435 </i>
    <i name="e_0_energy">    219.95093635 </i>
   </energy>
  </scstep>
  <scstep>
   <time name="dav">    9.98    9.98</time>
   <time name="total">   10.07   10.07</time>
   <energy>
    <i name="e_fr_energy">    220.97411163 </i>
    <i name="e_wo_entrp">    220.95786271 </i>
    <i name="e_0_energy">    220.96869532 </i>
   </energy>
  </scstep>
  <scstep>
   <time name="dav">    8.95    8.95</time>
   <time name="total">    9.04    9.04</time>
   <energy>
    <i name="e_fr_energy">    221.01104308 </i>
    <i name="e_wo_entrp">    221.00515041 </i>
    <i name="e_0_energy">    221.00907886 </i>
   </energy>
  </scstep>
  <scstep>
   <time name="dav">    7.58    7.58</time>
   <time name="total">    7.66    7.66</time>
   <energy>
    <i name="e_fr_energy">    221.00940802 </i>
    <i name="e_wo_entrp">    221.00206628 </i>
    <i name="e_0_energy">    221.00696077 </i>
   </energy>
  </scstep>
  <scstep>
   <time name="dav">   10.08   10.08</time>
   <time name="total">   10.17   10.17</time>
   <energy>
    <i name="e_fr_energy">    221.00765630 </i>
    <i name="e_wo_entrp">    221.00241098 </i>
    <i name="e_0_energy">    221.00590786 </i>
   </energy>
  </scstep>
  <scstep>
   <time name="dav">    9.10    9.10</time>
   <time name="total">    9.18    9.18</time>
   <energy>
    <i name="e_fr_energy">    221.00636440 </i>
    <i name="e_wo_entrp">    220.99739864 </i>
    <i name="e_0_energy">    221.00337581 </i>
   </energy>
  </scstep>
  <scstep>
   <time name="dav">   10.02   10.02</time>
   <time name="total">   10.11   10.11</time>
   <energy>
    <i name="e_fr_energy">    221.00801836 </i>
    <i name="e_wo_entrp">    221.00110570 </i>
    <i name="e_0_energy">    221.00571414 </i>
   </energy>
  </scstep>
  <scstep>
   <time name="dav">    9.15    9.15</time>
   <time name="total">    9.24    9.25</time>
   <energy>
    <i name="e_fr_energy">    221.00784354 </i>
    <i name="e_wo_entrp">    221.00156278 </i>
    <i name="e_0_energy">    221.00574995 </i>
   </energy>
  </scstep>
  <scstep>
   <time name="dav">    9.36    9.36</time>
   <time name="total">    9.45    9.45</time>
   <energy>
    <i name="e_fr_energy">    221.00795155 </i>
    <i name="e_wo_entrp">    221.00071178 </i>
    <i name="e_0_energy">    221.00553829 </i>
   </energy>
  </scstep>
  <scstep>
   <time name="dav">    7.55    7.55</time>
   <time name="total">    7.64    7.64</time>
   <energy>
    <i name="e_fr_energy">    221.00798383 </i>
    <i name="e_wo_entrp">    221.00102098 </i>
    <i name="e_0_energy">    221.00566288 </i>
   </energy>
  </scstep>
  <scstep>
   <time name="dav">    9.62    9.62</time>
   <time name="total">    9.71    9.71</time>
   <energy>
    <i name="e_fr_energy">    221.00795037 </i>
    <i name="e_wo_entrp">    221.00128798 </i>
    <i name="e_0_energy">    221.00572957 </i>
   </energy>
  </scstep>
  <scstep>
   <time name="dav">    8.00    8.00</time>
   <time name="total">    8.09    8.09</time>
   <energy>
    <i name="e_fr_energy">    221.00798384 </i>
    <i name="e_wo_entrp">    221.00106280 </i>
    <i name="e_0_energy">    221.00567683 </i>
   </energy>
  </scstep>
  <scstep>
   <time name="dav">    6.16    6.16</time>
   <time name="total">    6.25    6.25</time>
   <energy>
    <i name="e_fr_energy">    221.00797939 </i>
    <i name="e_wo_entrp">    221.00111701 </i>
    <i name="e_0_energy">    221.00569193 </i>
   </energy>
  </scstep>
  <scstep>
   <time name="dav">    6.52    6.52</time>
   <time name="total">    6.60    6.60</time>
   <energy>
    <i name="e_fr_energy">    221.00798190 </i>
    <i name="e_wo_entrp">    221.00105708 </i>
    <i name="e_0_energy">    221.00567363 </i>
   </energy>
  </scstep>
  <scstep>
   <time name="dav">    6.42    6.42</time>
   <time name="total">    6.43    6.43</time>
   <energy>
    <i name="alphaZ">    327.53725496 </i>
    <i name="ewald">  -9026.10409785 </i>
    <i name="hartreedc">  -3807.98061255 </i>
    <i name="XCdc">    286.57419612 </i>
    <i name="pawpsdc">  12756.44868709 </i>
    <i name="pawaedc"> -12340.39944004 </i>
    <i name="eentropy">      0.00696308 </i>
    <i name="bandstr">  -1610.94473006 </i>
    <i name="atom">  13635.86976126 </i>
    <i name="e_fr_energy">    221.00798199 </i>
    <i name="e_wo_entrp">    221.00101891 </i>
    <i name="e_0_energy">    221.00566096 </i>
   </energy>
  </scstep>
  <structure>
   <crystal>
    <varray name="basis" >
     <v>       5.66616427       0.00000000       0.00000000 </v>
     <v>       0.00000000       5.58242785       0.00000000 </v>
     <v>       0.00000000       0.00000000       8.02249218 </v>
    </varray>
    <i name="volume">    253.75907454 </i>
    <varray name="rec_basis" >
     <v>       0.17648624       0.00000000       0.00000000 </v>
     <v>       0.00000000       0.17913353       0.00000000 </v>
     <v>       0.00000000       0.00000000       0.12464955 </v>
    </varray>
   </crystal>
   <varray name="positions" >
    <v>       0.00000000       0.00000000       0.00000000 </v>
    <v>       0.00000000       0.00000000       0.50000000 </v>
    <v>       0.00000000       0.50000000       0.00000000 </v>
    <v>       0.00000000       0.50000000       0.50000000 </v>
    <v>       0.50000000       0.00000000       0.00000000 </v>
    <v>       0.50000000       0.00000000       0.50000000 </v>
    <v>       0.50000000       0.50000000       0.00000000 </v>
    <v>       0.50000000       0.50000000       0.50000000 </v>
    <v>       0.25000000       0.25000000       0.25000000 </v>
    <v>       0.25000000       0.25000000       0.75000000 </v>
    <v>       0.25000000       0.75000000       0.25000000 </v>
    <v>       0.25000000       0.75000000       0.75000000 </v>
    <v>       0.75000000       0.25000000       0.25000000 </v>
    <v>       0.75000000       0.25000000       0.75000000 </v>
    <v>       0.75000000       0.75000000       0.25000000 </v>
    <v>       0.75000000       0.75000000       0.75000000 </v>
    <v>       0.25000000       0.25000000       0.25000000 </v>
    <v>       0.25000000       0.25000000       0.75000000 </v>
    <v>       0.25000000       0.75000000       0.25000000 </v>
    <v>       0.25000000       0.75000000       0.75000000 </v>
    <v>       0.75000000       0.25000000       0.25000000 </v>
    <v>       0.75000000       0.25000000       0.75000000 </v>
    <v>       0.75000000       0.75000000       0.25000000 </v>
    <v>       0.75000000       0.75000000       0.75000000 </v>
   </varray>
  </structure>
  <varray name="forces" >
   <v>      -0.00000000       0.00000000      -0.00000000 </v>
   <v>      -0.00000000      -0.00000000      -0.00000000 </v>
   <v>       0.00000000      -0.00000000       0.00000000 </v>
   <v>       0.00000000       0.00000000      -0.00000000 </v>
   <v>      -0.00000000       0.00000000       0.00000000 </v>
   <v>       0.00000000      -0.00000000       0.00000000 </v>
   <v>      -0.00000000      -0.00000000       0.00000000 </v>
   <v>       0.00000000       0.00000000       0.00000000 </v>
   <v>      -0.00000000      -0.00000000       0.00000000 </v>
   <v>      -0.00000000      -0.00000000      -0.00000000 </v>
   <v>       0.00000000       0.00000000      -0.00000000 </v>
   <v>      -0.00000000       0.00000000      -0.00000000 </v>
   <v>      -0.00000000      -0.00000000      -0.00000000 </v>
   <v>      -0.00000000       0.00000000      -0.00000000 </v>
   <v>      -0.00000000      -0.00000000      -0.00000000 </v>
   <v>       0.00000000       0.00000000      -0.00000000 </v>
   <v>       0.00000000      -0.00000000      -0.00000000 </v>
   <v>       0.00000000      -0.00000000      -0.00000000 </v>
   <v>       0.00000000      -0.00000000      -0.00000000 </v>
   <v>       0.00000000      -0.00000000      -0.00000000 </v>
   <v>       0.00000000      -0.00000000       0.00000000 </v>
   <v>       0.00000000      -0.00000000      -0.00000000 </v>
   <v>       0.00000000      -0.00000000      -0.00000000 </v>
   <v>       0.00000000      -0.00000000      -0.00000000 </v>
  </varray>
  <varray name="stress" >
   <v>     -30.01164050       0.00000000       0.00000000 </v>
   <v>      -0.00000000      -8.06341703       0.00000000 </v>
   <v>       0.00000000       0.00000000     -13.91831123 </v>
  </varray>
  <energy>
   <i name="e_fr_energy">    221.00798199 </i>
   <i name="e_wo_entrp">    221.00101891 </i>
   <i name="e_0_energy">    221.00566096 </i>
  </energy>
  <kpoints>
   <generation param="Gamma">
    <v type="int" name="divisions">       6        6        4 </v>
    <v name="usershift">      0.00000000       0.00000000       0.00000000 </v>
    <v name="genvec1">      0.16666667       0.00000000       0.00000000 </v>
    <v name="genvec2">      0.00000000       0.16666667       0.00000000 </v>
    <v name="genvec3">      0.00000000       0.00000000       0.25000000 </v>
    <v name="shift">      0.00000000       0.00000000       0.00000000 </v>
   </generation>
   <varray name="kpointlist" >
    <v>       0.00000000       0.00000000       0.00000000 </v>
    <v>       0.16666667       0.00000000       0.00000000 </v>
    <v>       0.33333333       0.00000000       0.00000000 </v>
    <v>       0.50000000       0.00000000       0.00000000 </v>
    <v>       0.00000000       0.16666667       0.00000000 </v>
    <v>       0.16666667       0.16666667       0.00000000 </v>
    <v>       0.33333333       0.16666667       0.00000000 </v>
    <v>       0.50000000       0.16666667       0.00000000 </v>
    <v>       0.00000000       0.33333333       0.00000000 </v>
    <v>       0.16666667       0.33333333       0.00000000 </v>
    <v>       0.33333333       0.33333333       0.00000000 </v>
    <v>       0.50000000       0.33333333       0.00000000 </v>
    <v>       0.00000000       0.50000000       0.00000000 </v>
    <v>       0.16666667       0.50000000       0.00000000 </v>
    <v>       0.33333333       0.50000000       0.00000000 </v>
    <v>       0.50000000       0.50000000       0.00000000 </v>
    <v>       0.00000000       0.00000000       0.25000000 </v>
    <v>       0.16666667       0.00000000       0.25000000 </v>
    <v>       0.33333333       0.00000000       0.25000000 </v>
    <v>       0.50000000       0.00000000       0.25000000 </v>
    <v>       0.00000000       0.16666667       0.25000000 </v>
    <v>       0.16666667       0.16666667       0.25000000 </v>
    <v>       0.33333333       0.16666667       0.25000000 </v>
    <v>       0.50000000       0.16666667       0.25000000 </v>
    <v>       0.00000000       0.33333333       0.25000000 </v>
    <v>       0.16666667       0.33333333       0.25000000 </v>
    <v>       0.33333333       0.33333333       0.25000000 </v>
    <v>       0.50000000       0.33333333       0.25000000 </v>
    <v>       0.00000000       0.50000000       0.25000000 </v>
    <v>       0.16666667       0.50000000       0.25000000 </v>
    <v>       0.33333333       0.50000000       0.25000000 </v>
    <v>       0.50000000       0.50000000       0.25000000 </v>
    <v>       0.00000000       0.00000000       0.50000000 </v>
    <v>       0.16666667       0.00000000       0.50000000 </v>
    <v>       0.33333333       0.00000000       0.50000000 </v>
    <v>       0.50000000       0.00000000       0.50000000 </v>
    <v>       0.00000000       0.16666667       0.50000000 </v>
    <v>       0.16666667       0.16666667       0.50000000 </v>
    <v>       0.33333333       0.16666667       0.50000000 </v>
    <v>       0.50000000       0.16666667       0.50000000 </v>
    <v>       0.00000000       0.33333333       0.50000000 </v>
    <v>       0.16666667       0.33333333       0.50000000 </v>
    <v>       0.33333333       0.33333333       0.50000000 </v>
    <v>       0.50000000       0.33333333       0.50000000 </v>
    <v>       0.00000000       0.50000000       0.50000000 </v>
    <v>       0.16666667       0.50000000       0.50000000 </v>
    <v>       0.33333333       0.50000000       0.50000000 </v>
    <v>       0.50000000       0.50000000       0.50000000 </v>
   </varray>
   <varray name="weights" >
    <v>       0.00694444 </v>
    <v>       0.01388889 </v>
    <v>       0.01388889 </v>
    <v>       0.00694444 </v>
    <v>       0.01388889 </v>
    <v>       0.02777778 </v>
    <v>       0.02777778 </v>
    <v>       0.01388889 </v>
    <v>       0.01388889 </v>
    <v>       0.02777778 </v>
    <v>       0.02777778 </v>
    <v>       0.01388889 </v>
    <v>       0.00694444 </v>
    <v>       0.01388889 </v>
    <v>       0.01388889 </v>
    <v>       0.00694444 </v>
    <v>       0.01388889 </v>
    <v>       0.02777778 </v>
    <v>       0.02777778 </v>
    <v>       0.01388889 </v>
    <v>       0.02777778 </v>
    <v>       0.05555556 </v>
    <v>       0.05555556 </v>
    <v>       0.02777778 </v>
    <v>       0.02777778 </v>
    <v>       0.05555556 </v>
    <v>       0.05555556 </v>
    <v>       0.02777778 </v>
    <v>       0.01388889 </v>
    <v>       0.02777778 </v>
    <v>       0.02777778 </v>
    <v>       0.01388889 </v>
    <v>       0.00694444 </v>
    <v>       0.01388889 </v>
    <v>       0.01388889 </v>
    <v>       0.00694444 </v>
    <v>       0.01388889 </v>
    <v>       0.02777778 </v>
    <v>       0.02777778 </v>
    <v>       0.01388889 </v>
    <v>       0.01388889 </v>
    <v>       0.02777778 </v>
    <v>       0.02777778 </v>
    <v>       0.01388889 </v>
    <v>       0.00694444 </v>
    <v>       0.01388889 </v>
    <v>       0.01388889 </v>
    <v>       0.00694444 </v>
   </varray>
  </kpoints>
  <time name="totalsc">  156.74  156.76</time>
 </calculation>
 <calculation>
  <scstep>
   <time name="dav">    5.15    5.15</time>
   <time name="total">    5.24    5.24</time>
   <energy>
    <i name="alphaZ">    337.51300892 </i>
    <i name="ewald">  -9100.32318005 </i>
    <i name="hartreedc">  -3859.57395703 </i>
    <i name="XCdc">    291.65060621 </i>
    <i name="pawpsdc">  12756.44005596 </i>
    <i name="pawaedc"> -12340.39100721 </i>
    <i name="eentropy">     -0.00576130 </i>
    <i name="bandstr">  -1502.46049774 </i>
    <i name="atom">  13635.86976126 </i>
    <i name="e_fr_energy">    218.71902902 </i>
    <i name="e_wo_entrp">    218.72479032 </i>
    <i name="e_0_energy">    218.72094945 </i>
   </energy>
  </scstep>
  <scstep>
   <time name="dav">    7.68    7.68</time>
   <time name="total">    7.77    7.77</time>
   <energy>
    <i name="e_fr_energy">    216.23365285 </i>
    <i name="e_wo_entrp">    216.25849046 </i>
    <i name="e_0_energy">    216.24193206 </i>
   </energy>
  </scstep>
  <scstep>
   <time name="dav">    8.19    8.19</time>
   <time name="total">    8.28    8.28</time>
   <energy>
    <i name="e_fr_energy">    213.27289591 </i>
    <i name="e_wo_entrp">    213.45368644 </i>
    <i name="e_0_energy">    213.33315942 </i>
   </energy>
  </scstep>
  <scstep>
   <time name="dav">    9.22    9.22</time>
   <time name="total">    9.31    9.31</time>
   <energy>
    <i name="e_fr_energy">    215.65813457 </i>
    <i name="e_wo_entrp">    215.65763771 </i>
    <i name="e_0_energy">    215.65796895 </i>
   </energy>
  </scstep>
  <scstep>
   <time name="dav">    8.16    8.16</time>
   <time name="total">    8.24    8.24</time>
   <energy>
    <i name="e_fr_energy">    214.57085791 </i>
    <i name="e_wo_entrp">    214.57993211 </i>
    <i name="e_0_energy">    214.57388264 </i>
   </energy>
  </scstep>
  <scstep>
   <time name="dav">    6.74    6.74</time>
   <time name="total">    6.83    6.83</time>
   <energy>
    <i name="e_fr_energy">    215.14753343 </i>
    <i name="e_wo_entrp">    215.15655683 </i>
    <i name="e_0_energy">    215.15054123 </i>
   </energy>
  </scstep>
  <scstep>
   <time name="dav">    9.46    9.47</time>
   <time name="total">    9.55    9.55</time>
   <energy>
    <i name="e_fr_energy">    217.33247823 </i>
    <i name="e_wo_entrp">    217.33059294 </i>
    <i name="e_0_energy">    217.33184980 </i>
   </energy>
  </scstep>
  <scstep>
   <time name="dav">    8.66    8.66</time>
   <time name="total">    8.75    8.75</time>
   <energy>
    <i name="e_fr_energy">    219.05764440 </i>
    <i name="e_wo_entrp">    219.04082137 </i>
    <i name="e_0_energy">    219.05203672 </i>
   </energy>
  </scstep>
  <scstep>
   <time name="dav">    8.85    8.85</time>
   <time name="total">    8.93    8.93</time>
   <energy>
    <i name="e_fr_energy">    219.75378368 </i>
    <i name="e_wo_entrp">    219.72869705 </i>
    <i name="e_0_energy">    219.74542147 </i>
   </energy>
  </scstep>
  <scstep>
   <time name="dav">    8.90    8.90</time>
   <time name="total">    8.99    8.99</time>
   <energy>
    <i name="e_fr_energy">    220.47701965 </i>
    <i name="e_wo_entrp">    220.46833717 </i>
    <i name="e_0_energy">    220.47412549 </i>
   </energy>
  </scstep>
  <scstep>
   <time name="dav">    7.08    7.08</time>
   <time name="total">    7.17    7.17</time>
   <energy>
    <i name="e_fr_energy">    220.46943232 </i>
    <i name="e_wo_entrp">    220.45772685 </i>
    <i name="e_0_energy">    220.46553050 </i>
   </energy>
  </scstep>
  <scstep>
   <time name="dav">   10.10   10.10</time>
   <time name="total">   10.19   10.19</time>
   <energy>
    <i name="e_fr_energy">    220.43434958 </i>
    <i name="e_wo_entrp">    220.43894131 </i>
    <i name="e_0_energy">    220.43588016 </i>
   </energy>
  </scstep>
  <scstep>
   <time name="dav">    9.67    9.68</time>
   <time name="total">    9.77    9.77</time>
   <energy>
    <i name="e_fr_energy">    219.67044167 </i>
    <i name="e_wo_entrp">    219.60021636 </i>
    <i name="e_0_energy">    219.64703323 </i>
   </energy>
  </scstep>
  <scstep>
   <time name="dav">    9.01    9.01</time>
   <time name="total">    9.10    9.10</time>
   <energy>
    <i name="e_fr_energy">    220.07540454 </i>
    <i name="e_wo_entrp">    220.05777708 </i>
    <i name="e_0_energy">    220.06952872 </i>
   </energy>
  </scstep>
  <scstep>
   <time name="dav">    9.95    9.95</time>
   <time name="total">   10.04   10.04</time>
   <energy>
    <i name="e_fr_energy">    220.47027576 </i>
    <i name="e_wo_entrp">    220.47218853 </i>
    <i name="e_0_energy">    220.47091335 </i>
   </energy>
  </scstep>
  <scstep>
   <time name="dav">    7.65    7.66</time>
   <time name="total">    7.74    7.75</time>
   <energy>
    <i name="e_fr_energy">    220.43351977 </i>
    <i name="e_wo_entrp">    220.44035280 </i>
    <i name="e_0_energy">    220.43579745 </i>
   </energy>
  </scstep>
  <scstep>
   <time name="dav">    8.85    8.85</time>
   <time name="total">    8.94    8.94</time>
   <energy>
    <i name="e_fr_energy">    220.44096908 </i>
    <i name="e_wo_entrp">    220.44704671 </i>
    <i name="e_0_energy">    220.44299495 </i>
   </energy>
  </scstep>
  <scstep>
   <time name="dav">    9.67    9.67</time>
   <time name="total">    9.76    9.76</time>
   <energy>
    <i name="e_fr_energy">    220.46905799 </i>
    <i name="e_wo_entrp">    220.47027437 </i>
    <i name="e_0_energy">    220.46946345 </i>
   </energy>
  </scstep>
  <scstep>
   <time name="dav">    8.62    8.62</time>
   <time name="total">    8.70    8.70</time>
   <energy>
    <i name="e_fr_energy">    220.47643553 </i>
    <i name="e_wo_entrp">    220.47480819 </i>
    <i name="e_0_energy">    220.47589309 </i>
   </energy>
  </scstep>
  <scstep>
   <time name="dav">    8.75    8.75</time>
   <time name="total">    8.84    8.84</time>
   <energy>
    <i name="e_fr_energy">    220.47698174 </i>
    <i name="e_wo_entrp">    220.47496472 </i>
    <i name="e_0_energy">    220.47630940 </i>
   </energy>
  </scstep>
  <scstep>
   <time name="dav">    7.26    7.26</time>
   <time name="total">    7.34    7.34</time>
   <energy>
    <i name="e_fr_energy">    220.47581797 </i>
    <i name="e_wo_entrp">    220.47442958 </i>
    <i name="e_0_energy">    220.47535517 </i>
   </energy>
  </scstep>
  <scstep>
   <time name="dav">    9.22    9.22</time>
   <time name="total">    9.31    9.31</time>
   <energy>
    <i name="e_fr_energy">    220.47905746 </i>
    <i name="e_wo_entrp">    220.47323334 </i>
    <i name="e_0_energy">    220.47711609 </i>
   </energy>
  </scstep>
  <scstep>
   <time name="dav">    8.27    8.27</time>
   <time name="total">    8.36    8.36</time>
   <energy>
    <i name="e_fr_energy">    220.47888754 </i>
    <i name="e_wo_entrp">    220.47214340 </i>
    <i name="e_0_energy">    220.47663949 </i>
   </energy>
  </scstep>
  <scstep>
   <time name="dav">   10.07   10.07</time>
   <time name="total">   10.16   10.16</time>
   <energy>
    <i name="e_fr_energy">    220.47557265 </i>
    <i name="e_wo_entrp">    220.46594876 </i>
    <i name="e_0_energy">    220.47236468 </i>
   </energy>
  </scstep>
  <scstep>
   <time name="dav">    9.96    9.96</time>
   <time name="total">   10.05   10.05</time>
   <energy>
    <i name="e_fr_energy">    220.47958874 </i>
    <i name="e_wo_entrp">    220.47416641 </i>
    <i name="e_0_energy">    220.47778129 </i>
   </energy>
  </scstep>
  <scstep>
   <time name="dav">    6.90    6.90</time>
   <time name="total">    6.99    6.99</time>
   <energy>
    <i name="e_fr_energy">    220.47962239 </i>
    <i name="e_wo_entrp">    220.47364962 </i>
    <i name="e_0_energy">    220.47763146 </i>
   </energy>
  </scstep>
  <scstep>
   <time name="dav">    7.64    7.64</time>
   <time name="total">    7.73    7.73</time>
   <energy>
    <i name="e_fr_energy">    220.47951423 </i>
    <i name="e_wo_entrp">    220.47301286 </i>
    <i name="e_0_energy">    220.47734711 </i>
   </energy>
  </scstep>
  <scstep>
   <time name="dav">    7.85    7.85</time>
   <time name="total">    7.94    7.94</time>
   <energy>
    <i name="e_fr_energy">    220.47966786 </i>
    <i name="e_wo_entrp">    220.47391134 </i>
    <i name="e_0_energy">    220.47774902 </i>
   </energy>
  </scstep>
  <scstep>
   <time name="dav">    9.35    9.35</time>
   <time name="total">    9.44    9.44</time>
   <energy>
    <i name="e_fr_energy">    220.47933738 </i>
    <i name="e_wo_entrp">    220.47243990 </i>
    <i name="e_0_energy">    220.47703822 </i>
   </energy>
  </scstep>
  <scstep>
   <time name="dav">    8.01    8.01</time>
   <time name="total">    8.10    8.10</time>
   <energy>
    <i name="e_fr_energy">    220.47949725 </i>
    <i name="e_wo_entrp">    220.47293762 </i>
    <i name="e_0_energy">    220.47731071 </i>
   </energy>
  </scstep>
  <scstep>
   <time name="dav">    8.63    8.63</time>
   <time name="total">    8.72    8.72</time>
   <energy>
    <i name="e_fr_energy">    220.47967335 </i>
    <i name="e_wo_entrp">    220.47380474 </i>
    <i name="e_0_energy">    220.47771715 </i>
   </energy>
  </scstep>
  <scstep>
   <time name="dav">    6.83    6.83</time>
   <time name="total">    6.92    6.92</time>
   <energy>
    <i name="e_fr_energy">    220.47965134 </i>
    <i name="e_wo_entrp">    220.47363853 </i>
    <i name="e_0_energy">    220.47764707 </i>
   </energy>
  </scstep>
  <scstep>
   <time name="dav">    9.05    9.05</time>
   <time name="total">    9.13    9.14</time>
   <energy>
    <i name="e_fr_energy">    220.47968519 </i>
    <i name="e_wo_entrp">    220.47406273 </i>
    <i name="e_0_energy">    220.47781103 </i>
   </energy>
  </scstep>
  <scstep>
   <time name="dav">    5.96    5.96</time>
   <time name="total">    5.97    5.97</time>
   <energy>
    <i name="alphaZ">    337.51300892 </i>
    <i name="ewald">  -9100.32318005 </i>
    <i name="hartreedc">  -3789.72744431 </i>
    <i name="XCdc">    288.17828650 </i>
    <i name="pawpsdc">  13012.89539619 </i>
    <i name="pawaedc"> -12593.29792868 </i>
    <i name="eentropy">      0.00563245 </i>
    <i name="bandstr">  -1570.63384767 </i>
    <i name="atom">  13635.86976126 </i>
    <i name="e_fr_energy">    220.47968460 </i>
    <i name="e_wo_entrp">    220.47405216 </i>
    <i name="e_0_energy">    220.47780712 </i>
   </energy>
  </scstep>
  <structure>
   <crystal>
    <varray name="basis" >
     <v>       5.49869143       0.00000000       0.00000000 </v>
     <v>       0.00000000       5.58242785       0.00000000 </v>
     <v>       0.00000000       0.00000000       8.02249218 </v>
    </varray>
    <i name="volume">    246.25880633 </i>
    <varray name="rec_basis" >
     <v>       0.18186145       0.00000000       0.00000000 </v>
     <v>       0.00000000       0.17913353       0.00000000 </v>
     <v>       0.00000000       0.00000000       0.12464955 </v>
    </varray>
   </crystal>
   <varray name="positions" >
    <v>       0.00000000       0.00000000       0.00000000 </v>
    <v>       0.00000000       0.00000000       0.50000000 </v>
    <v>       0.00000000       0.50000000       0.00000000 </v>
    <v>       0.00000000       0.50000000       0.50000000 </v>
    <v>       0.50000000       0.00000000       0.00000000 </v>
    <v>       0.50000000       0.00000000       0.50000000 </v>
    <v>       0.50000000       0.50000000       0.00000000 </v>
    <v>       0.50000000       0.50000000       0.50000000 </v>
    <v>       0.25000000       0.25000000       0.25000000 </v>
    <v>       0.25000000       0.25000000       0.75000000 </v>
    <v>       0.25000000       0.75000000       0.25000000 </v>
    <v>       0.25000000       0.75000000       0.75000000 </v>
    <v>       0.75000000       0.25000000       0.25000000 </v>
    <v>       0.75000000       0.25000000       0.75000000 </v>
    <v>       0.75000000       0.75000000       0.25000000 </v>
    <v>       0.75000000       0.75000000       0.75000000 </v>
    <v>       0.25000000       0.25000000       0.25000000 </v>
    <v>       0.25000000       0.25000000       0.75000000 </v>
    <v>       0.25000000       0.75000000       0.25000000 </v>
    <v>       0.25000000       0.75000000       0.75000000 </v>
    <v>       0.75000000       0.25000000       0.25000000 </v>
    <v>       0.75000000       0.25000000       0.75000000 </v>
    <v>       0.75000000       0.75000000       0.25000000 </v>
    <v>       0.75000000       0.75000000       0.75000000 </v>
   </varray>
  </structure>
  <varray name="forces" >
   <v>      -0.00000000       0.00000000      -0.00000000 </v>
   <v>       0.00000000      -0.00000000      -0.00000000 </v>
   <v>       0.00000000      -0.00000000       0.00000000 </v>
   <v>       0.00000000      -0.00000000       0.00000000 </v>
   <v>       0.00000000      -0.00000000       0.00000000 </v>
   <v>      -0.00000000      -0.00000000      -0.00000000 </v>
   <v>       0.00000000       0.00000000       0.00000000 </v>
   <v>      -0.00000000      -0.00000000      -0.00000000 </v>
   <v>       0.00000000      -0.00000000       0.00000000 </v>
   <v>       0.00000000      -0.00000000      -0.00000000 </v>
   <v>       0.00000000       0.00000000       0.00000000 </v>
   <v>       0.00000000       0.00000000      -0.00000000 </v>
   <v>       0.00000000      -0.00000000       0.00000000 </v>
   <v>       0.00000000       0.00000000      -0.00000000 </v>
   <v>       0.00000000       0.00000000      -0.00000000 </v>
   <v>       0.00000000       0.00000000      -0.00000000 </v>
   <v>       0.00000000       0.00000000       0.00000000 </v>
   <v>       0.00000000       0.00000000       0.00000000 </v>
   <v>       0.00000000       0.00000000       0.00000000 </v>
   <v>       0.00000000       0.00000000       0.00000000 </v>
   <v>       0.00000000       0.00000000       0.00000000 </v>
   <v>       0.00000000       0.00000000       0.00000000 </v>
   <v>       0.00000000       0.00000000      -0.00000000 </v>
   <v>       0.00000000       0.00000000       0.00000000 </v>
  </varray>
  <varray name="stress" >
   <v>      33.63695662       0.00000000       0.00000000 </v>
   <v>       0.00000000       9.11629150       0.00000000 </v>
   <v>       0.00000000       0.00000000      14.67505315 </v>
  </varray>
  <energy>
   <i name="e_fr_energy">    220.47968460 </i>
   <i name="e_wo_entrp">    220.47405216 </i>
   <i name="e_0_energy">    220.47780712 </i>
  </energy>
  <kpoints>
   <generation param="Gamma">
    <v type="int" name="divisions">       6        6        4 </v>
    <v name="usershift">      0.00000000       0.00000000       0.00000000 </v>
    <v name="genvec1">      0.16666667       0.00000000       0.00000000 </v>
    <v name="genvec2">      0.00000000       0.16666667       0.00000000 </v>
    <v name="genvec3">      0.00000000       0.00000000       0.25000000 </v>
    <v name="shift">      0.00000000       0.00000000       0.00000000 </v>
   </generation>
   <varray name="kpointlist" >
    <v>       0.00000000       0.00000000       0.00000000 </v>
    <v>       0.16666667       0.00000000       0.00000000 </v>
    <v>       0.33333333       0.00000000       0.00000000 </v>
    <v>       0.50000000       0.00000000       0.00000000 </v>
    <v>       0.00000000       0.16666667       0.00000000 </v>
    <v>       0.16666667       0.16666667       0.00000000 </v>
    <v>       0.33333333       0.16666667       0.00000000 </v>
    <v>       0.50000000       0.16666667       0.00000000 </v>
    <v>       0.00000000       0.33333333       0.00000000 </v>
    <v>       0.16666667       0.33333333       0.00000000 </v>
    <v>       0.33333333       0.33333333       0.00000000 </v>
    <v>       0.50000000       0.33333333       0.00000000 </v>
    <v>       0.00000000       0.50000000       0.00000000 </v>
    <v>       0.16666667       0.50000000       0.00000000 </v>
    <v>       0.33333333       0.50000000       0.00000000 </v>
    <v>       0.50000000       0.50000000       0.00000000 </v>
    <v>       0.00000000       0.00000000       0.25000000 </v>
    <v>       0.16666667       0.00000000       0.25000000 </v>
    <v>       0.33333333       0.00000000       0.25000000 </v>
    <v>       0.50000000       0.00000000       0.25000000 </v>
    <v>       0.00000000       0.16666667       0.25000000 </v>
    <v>       0.16666667       0.16666667       0.25000000 </v>
    <v>       0.33333333       0.16666667       0.25000000 </v>
    <v>       0.50000000       0.16666667       0.25000000 </v>
    <v>       0.00000000       0.33333333       0.25000000 </v>
    <v>       0.16666667       0.33333333       0.25000000 </v>
    <v>       0.33333333       0.33333333       0.25000000 </v>
    <v>       0.50000000       0.33333333       0.25000000 </v>
    <v>       0.00000000       0.50000000       0.25000000 </v>
    <v>       0.16666667       0.50000000       0.25000000 </v>
    <v>       0.33333333       0.50000000       0.25000000 </v>
    <v>       0.50000000       0.50000000       0.25000000 </v>
    <v>       0.00000000       0.00000000       0.50000000 </v>
    <v>       0.16666667       0.00000000       0.50000000 </v>
    <v>       0.33333333       0.00000000       0.50000000 </v>
    <v>       0.50000000       0.00000000       0.50000000 </v>
    <v>       0.00000000       0.16666667       0.50000000 </v>
    <v>       0.16666667       0.16666667       0.50000000 </v>
    <v>       0.33333333       0.16666667       0.50000000 </v>
    <v>       0.50000000       0.16666667       0.50000000 </v>
    <v>       0.00000000       0.33333333       0.50000000 </v>
    <v>       0.16666667       0.33333333       0.50000000 </v>
    <v>       0.33333333       0.33333333       0.50000000 </v>
    <v>       0.50000000       0.33333333       0.50000000 </v>
    <v>       0.00000000       0.50000000       0.50000000 </v>
    <v>       0.16666667       0.50000000       0.50000000 </v>
    <v>       0.33333333       0.50000000       0.50000000 </v>
    <v>       0.50000000       0.50000000       0.50000000 </v>
   </varray>
   <varray name="weights" >
    <v>       0.00694444 </v>
    <v>       0.01388889 </v>
    <v>       0.01388889 </v>
    <v>       0.00694444 </v>
    <v>       0.01388889 </v>
    <v>       0.02777778 </v>
    <v>       0.02777778 </v>
    <v>       0.01388889 </v>
    <v>       0.01388889 </v>
    <v>       0.02777778 </v>
    <v>       0.02777778 </v>
    <v>       0.01388889 </v>
    <v>       0.00694444 </v>
    <v>       0.01388889 </v>
    <v>       0.01388889 </v>
    <v>       0.00694444 </v>
    <v>       0.01388889 </v>
    <v>       0.02777778 </v>
    <v>       0.02777778 </v>
    <v>       0.01388889 </v>
    <v>       0.02777778 </v>
    <v>       0.05555556 </v>
    <v>       0.05555556 </v>
    <v>       0.02777778 </v>
    <v>       0.02777778 </v>
    <v>       0.05555556 </v>
    <v>       0.05555556 </v>
    <v>       0.02777778 </v>
    <v>       0.01388889 </v>
    <v>       0.02777778 </v>
[...]
       <r>  -24.2660    1.0000 </r>
       <r>  -24.2660    1.0000 </r>
       <r>  -24.2657    1.0000 </r>
       <r>  -24.2657    1.0000 </r>
       <r>  -24.2657    1.0000 </r>
       <r>  -24.2657    1.0000 </r>
       <r>  -24.2498    1.0000 </r>
       <r>  -24.2498    1.0000 </r>
       <r>  -24.2498    1.0000 </r>
       <r>  -24.2498    1.0000 </r>
       <r>  -24.2495    1.0000 </r>
       <r>  -24.2495    1.0000 </r>
       <r>  -24.2495    1.0000 </r>
       <r>  -24.2495    1.0000 </r>
       <r>    2.3362    1.0000 </r>
       <r>    2.3368    1.0000 </r>
       <r>    2.3368    1.0000 </r>
       <r>    2.3369    1.0000 </r>
       <r>    2.3370    1.0000 </r>
       <r>    2.3370    1.0000 </r>
       <r>    2.3370    1.0000 </r>
       <r>    2.3371    1.0000 </r>
       <r>    6.4664    1.0000 </r>
       <r>    6.4667    1.0000 </r>
       <r>    6.4667    1.0000 </r>
       <r>    6.4667    1.0000 </r>
       <r>    6.4667    1.0000 </r>
       <r>    6.4668    1.0000 </r>
       <r>    6.4668    1.0000 </r>
       <r>    6.4668    1.0000 </r>
       <r>    7.9975    1.0024 </r>
       <r>    7.9975    1.0024 </r>
       <r>    7.9977    1.0024 </r>
       <r>    7.9978    1.0024 </r>
       <r>    7.9979    1.0024 </r>
       <r>    7.9980    1.0024 </r>
       <r>    7.9980    1.0024 </r>
       <r>    7.9982    1.0025 </r>
       <r>    8.2541    1.0291 </r>
       <r>    8.2545    1.0289 </r>
       <r>    8.2545    1.0289 </r>
       <r>    8.2549    1.0288 </r>
       <r>    8.2550    1.0287 </r>
       <r>    8.2552    1.0287 </r>
       <r>    8.2552    1.0287 </r>
       <r>    8.2556    1.0285 </r>
       <r>    8.8449   -0.0106 </r>
       <r>    8.8449   -0.0106 </r>
       <r>    8.8453   -0.0105 </r>
       <r>    8.8453   -0.0105 </r>
       <r>    8.8454   -0.0105 </r>
       <r>    8.8454   -0.0105 </r>
       <r>    8.8454   -0.0105 </r>
       <r>    8.8454   -0.0105 </r>
       <r>    9.2770   -0.0000 </r>
       <r>    9.2770   -0.0000 </r>
       <r>    9.2776   -0.0000 </r>
       <r>    9.2778   -0.0000 </r>
       <r>    9.2779   -0.0000 </r>
       <r>    9.2779   -0.0000 </r>
       <r>    9.2780   -0.0000 </r>
       <r>    9.2793   -0.0000 </r>
       <r>    9.4204   -0.0000 </r>
       <r>    9.4241   -0.0000 </r>
       <r>    9.4241   -0.0000 </r>
       <r>    9.4246   -0.0000 </r>
       <r>    9.4246   -0.0000 </r>
       <r>    9.4246   -0.0000 </r>
       <r>    9.4249   -0.0000 </r>
       <r>    9.4249   -0.0000 </r>
      </set>
     </set>
    </set>
   </array>
  </eigenvalues>
  <separator name="orbital magnetization" >
   <v name="MAGDIPOLOUT">      0.00000000      0.00000000      0.00000000</v>
  </separator>
  <dos>
   <i name="efermi">      8.46289547 </i>
   <total>
    <array>
     <dimension dim="1">gridpoints</dimension>
     <dimension dim="2">spin</dimension>
     <field>energy</field>
     <field>total</field>
     <field>integrated</field>
     <set>
      <set comment="spin 1">
       <r>   -50.9614     0.0000     0.0000 </r>
       <r>   -50.7502     0.0000     0.0000 </r>
       <r>   -50.5390     0.0000     0.0000 </r>
       <r>   -50.3279     0.0000     0.0000 </r>
       <r>   -50.1167     0.0000     0.0000 </r>
       <r>   -49.9055     0.0000     0.0000 </r>
       <r>   -49.6944    -0.0000    -0.0000 </r>
       <r>   -49.4832    -0.0000    -0.0000 </r>
       <r>   -49.2720    -0.0000    -0.0000 </r>
       <r>   -49.0608    -0.0000    -0.0000 </r>
       <r>   -48.8497    -0.0000    -0.0000 </r>
       <r>   -48.6385    -0.0055    -0.0012 </r>
       <r>   -48.4273    -0.5536    -0.1181 </r>
       <r>   -48.2162    -0.7318    -0.2726 </r>
       <r>   -48.0050    42.5476     8.7122 </r>
       <r>   -47.7938    36.5598    16.4325 </r>
       <r>   -47.5827    -1.6590    16.0822 </r>
       <r>   -47.3715    -0.3861    16.0006 </r>
       <r>   -47.1603    -0.0029    16.0000 </r>
       <r>   -46.9492    -0.0000    16.0000 </r>
       <r>   -46.7380    -0.0000    16.0000 </r>
       <r>   -46.5268    -0.0000    16.0000 </r>
       <r>   -46.3156     0.0000    16.0000 </r>
       <r>   -46.1045     0.0000    16.0000 </r>
       <r>   -45.8933     0.0000    16.0000 </r>
       <r>   -45.6821     0.0000    16.0000 </r>
       <r>   -45.4710     0.0000    16.0000 </r>
       <r>   -45.2598     0.0000    16.0000 </r>
       <r>   -45.0486     0.0000    16.0000 </r>
       <r>   -44.8375     0.0000    16.0000 </r>
       <r>   -44.6263     0.0000    16.0000 </r>
       <r>   -44.4151     0.0000    16.0000 </r>
       <r>   -44.2040     0.0000    16.0000 </r>
       <r>   -43.9928     0.0000    16.0000 </r>
       <r>   -43.7816     0.0000    16.0000 </r>
       <r>   -43.5704     0.0000    16.0000 </r>
       <r>   -43.3593     0.0000    16.0000 </r>
       <r>   -43.1481     0.0000    16.0000 </r>
       <r>   -42.9369     0.0000    16.0000 </r>
       <r>   -42.7258     0.0000    16.0000 </r>
       <r>   -42.5146     0.0000    16.0000 </r>
       <r>   -42.3034     0.0000    16.0000 </r>
       <r>   -42.0923     0.0000    16.0000 </r>
       <r>   -41.8811     0.0000    16.0000 </r>
       <r>   -41.6699     0.0000    16.0000 </r>
       <r>   -41.4587     0.0000    16.0000 </r>
       <r>   -41.2476     0.0000    16.0000 </r>
       <r>   -41.0364     0.0000    16.0000 </r>
       <r>   -40.8252     0.0000    16.0000 </r>
       <r>   -40.6141     0.0000    16.0000 </r>
       <r>   -40.4029     0.0000    16.0000 </r>
       <r>   -40.1917     0.0000    16.0000 </r>
       <r>   -39.9806     0.0000    16.0000 </r>
       <r>   -39.7694     0.0000    16.0000 </r>
       <r>   -39.5582     0.0000    16.0000 </r>
       <r>   -39.3471     0.0000    16.0000 </r>
       <r>   -39.1359     0.0000    16.0000 </r>
       <r>   -38.9247     0.0000    16.0000 </r>
       <r>   -38.7135     0.0000    16.0000 </r>
       <r>   -38.5024     0.0000    16.0000 </r>
       <r>   -38.2912     0.0000    16.0000 </r>
       <r>   -38.0800     0.0000    16.0000 </r>
       <r>   -37.8689     0.0000    16.0000 </r>
       <r>   -37.6577     0.0000    16.0000 </r>
       <r>   -37.4465     0.0000    16.0000 </r>
       <r>   -37.2354     0.0000    16.0000 </r>
       <r>   -37.0242     0.0000    16.0000 </r>
       <r>   -36.8130     0.0000    16.0000 </r>
       <r>   -36.6018     0.0000    16.0000 </r>
       <r>   -36.3907     0.0000    16.0000 </r>
       <r>   -36.1795     0.0000    16.0000 </r>
       <r>   -35.9683     0.0000    16.0000 </r>
       <r>   -35.7572     0.0000    16.0000 </r>
       <r>   -35.5460     0.0000    16.0000 </r>
       <r>   -35.3348     0.0000    16.0000 </r>
       <r>   -35.1237     0.0000    16.0000 </r>
       <r>   -34.9125     0.0000    16.0000 </r>
       <r>   -34.7013     0.0000    16.0000 </r>
       <r>   -34.4902     0.0000    16.0000 </r>
       <r>   -34.2790     0.0000    16.0000 </r>
       <r>   -34.0678     0.0000    16.0000 </r>
       <r>   -33.8566     0.0000    16.0000 </r>
       <r>   -33.6455     0.0000    16.0000 </r>
       <r>   -33.4343     0.0000    16.0000 </r>
       <r>   -33.2231     0.0000    16.0000 </r>
       <r>   -33.0120     0.0000    16.0000 </r>
       <r>   -32.8008     0.0000    16.0000 </r>
       <r>   -32.5896     0.0000    16.0000 </r>
       <r>   -32.3785     0.0000    16.0000 </r>
       <r>   -32.1673     0.0000    16.0000 </r>
       <r>   -31.9561     0.0000    16.0000 </r>
       <r>   -31.7450     0.0000    16.0000 </r>
       <r>   -31.5338     0.0000    16.0000 </r>
       <r>   -31.3226     0.0000    16.0000 </r>
       <r>   -31.1114     0.0000    16.0000 </r>
       <r>   -30.9003     0.0000    16.0000 </r>
       <r>   -30.6891     0.0000    16.0000 </r>
       <r>   -30.4779     0.0000    16.0000 </r>
       <r>   -30.2668     0.0000    16.0000 </r>
       <r>   -30.0556     0.0000    16.0000 </r>
       <r>   -29.8444     0.0000    16.0000 </r>
       <r>   -29.6333     0.0000    16.0000 </r>
       <r>   -29.4221     0.0000    16.0000 </r>
       <r>   -29.2109     0.0000    16.0000 </r>
       <r>   -28.9997     0.0000    16.0000 </r>
       <r>   -28.7886     0.0000    16.0000 </r>
       <r>   -28.5774     0.0000    16.0000 </r>
       <r>   -28.3662     0.0000    16.0000 </r>
       <r>   -28.1551     0.0000    16.0000 </r>
       <r>   -27.9439     0.0000    16.0000 </r>
       <r>   -27.7327     0.0000    16.0000 </r>
       <r>   -27.5216     0.0000    16.0000 </r>
       <r>   -27.3104     0.0000    16.0000 </r>
       <r>   -27.0992     0.0000    16.0000 </r>
       <r>   -26.8881     0.0000    16.0000 </r>
       <r>   -26.6769     0.0000    16.0000 </r>
       <r>   -26.4657     0.0000    16.0000 </r>
       <r>   -26.2545    -0.0000    16.0000 </r>
       <r>   -26.0434    -0.0000    16.0000 </r>
       <r>   -25.8322    -0.0000    16.0000 </r>
       <r>   -25.6210    -0.0000    16.0000 </r>
       <r>   -25.4099    -0.0000    16.0000 </r>
       <r>   -25.1987    -0.0002    16.0000 </r>
       <r>   -24.9875    -0.0661    15.9860 </r>
       <r>   -24.7764    -2.0975    15.5431 </r>
       <r>   -24.5652     9.2525    17.4969 </r>
       <r>   -24.3540    94.8865    37.5341 </r>
       <r>   -24.1428    78.0183    54.0091 </r>
       <r>   -23.9317    42.5147    62.9870 </r>
       <r>   -23.7205     6.0171    64.2576 </r>
       <r>   -23.5093    -1.1807    64.0083 </r>
       <r>   -23.2982    -0.0390    64.0000 </r>
       <r>   -23.0870    -0.0001    64.0000 </r>
       <r>   -22.8758    -0.0000    64.0000 </r>
       <r>   -22.6647    -0.0000    64.0000 </r>
       <r>   -22.4535     0.0000    64.0000 </r>
       <r>   -22.2423     0.0000    64.0000 </r>
       <r>   -22.0312     0.0000    64.0000 </r>
       <r>   -21.8200     0.0000    64.0000 </r>
       <r>   -21.6088     0.0000    64.0000 </r>
       <r>   -21.3976     0.0000    64.0000 </r>
       <r>   -21.1865     0.0000    64.0000 </r>
       <r>   -20.9753     0.0000    64.0000 </r>
       <r>   -20.7641     0.0000    64.0000 </r>
       <r>   -20.5530     0.0000    64.0000 </r>
       <r>   -20.3418     0.0000    64.0000 </r>
       <r>   -20.1306     0.0000    64.0000 </r>
       <r>   -19.9195     0.0000    64.0000 </r>
       <r>   -19.7083     0.0000    64.0000 </r>
       <r>   -19.4971     0.0000    64.0000 </r>
       <r>   -19.2860     0.0000    64.0000 </r>
       <r>   -19.0748     0.0000    64.0000 </r>
       <r>   -18.8636     0.0000    64.0000 </r>
       <r>   -18.6524     0.0000    64.0000 </r>
       <r>   -18.4413     0.0000    64.0000 </r>
       <r>   -18.2301     0.0000    64.0000 </r>
       <r>   -18.0189     0.0000    64.0000 </r>
       <r>   -17.8078     0.0000    64.0000 </r>
       <r>   -17.5966     0.0000    64.0000 </r>
       <r>   -17.3854     0.0000    64.0000 </r>
       <r>   -17.1743     0.0000    64.0000 </r>
       <r>   -16.9631     0.0000    64.0000 </r>
       <r>   -16.7519     0.0000    64.0000 </r>
       <r>   -16.5407     0.0000    64.0000 </r>
       <r>   -16.3296     0.0000    64.0000 </r>
       <r>   -16.1184     0.0000    64.0000 </r>
       <r>   -15.9072     0.0000    64.0000 </r>
       <r>   -15.6961     0.0000    64.0000 </r>
       <r>   -15.4849     0.0000    64.0000 </r>
       <r>   -15.2737     0.0000    64.0000 </r>
       <r>   -15.0626     0.0000    64.0000 </r>
       <r>   -14.8514     0.0000    64.0000 </r>
       <r>   -14.6402     0.0000    64.0000 </r>
       <r>   -14.4291     0.0000    64.0000 </r>
       <r>   -14.2179     0.0000    64.0000 </r>
       <r>   -14.0067     0.0000    64.0000 </r>
       <r>   -13.7955     0.0000    64.0000 </r>
       <r>   -13.5844     0.0000    64.0000 </r>
       <r>   -13.3732     0.0000    64.0000 </r>
       <r>   -13.1620     0.0000    64.0000 </r>
       <r>   -12.9509     0.0000    64.0000 </r>
       <r>   -12.7397     0.0000    64.0000 </r>
       <r>   -12.5285     0.0000    64.0000 </r>
       <r>   -12.3174     0.0000    64.0000 </r>
       <r>   -12.1062     0.0000    64.0000 </r>
       <r>   -11.8950     0.0000    64.0000 </r>
       <r>   -11.6838     0.0000    64.0000 </r>
       <r>   -11.4727     0.0000    64.0000 </r>
       <r>   -11.2615     0.0000    64.0000 </r>
       <r>   -11.0503     0.0000    64.0000 </r>
       <r>   -10.8392     0.0000    64.0000 </r>
       <r>   -10.6280     0.0000    64.0000 </r>
       <r>   -10.4168     0.0000    64.0000 </r>
       <r>   -10.2057     0.0000    64.0000 </r>
       <r>    -9.9945     0.0000    64.0000 </r>
       <r>    -9.7833     0.0000    64.0000 </r>
       <r>    -9.5722     0.0000    64.0000 </r>
       <r>    -9.3610     0.0000    64.0000 </r>
       <r>    -9.1498     0.0000    64.0000 </r>
       <r>    -8.9386     0.0000    64.0000 </r>
       <r>    -8.7275     0.0000    64.0000 </r>
       <r>    -8.5163     0.0000    64.0000 </r>
       <r>    -8.3051     0.0000    64.0000 </r>
       <r>    -8.0940     0.0000    64.0000 </r>
       <r>    -7.8828     0.0000    64.0000 </r>
       <r>    -7.6716     0.0000    64.0000 </r>
       <r>    -7.4605     0.0000    64.0000 </r>
       <r>    -7.2493     0.0000    64.0000 </r>
       <r>    -7.0381     0.0000    64.0000 </r>
       <r>    -6.8270     0.0000    64.0000 </r>
       <r>    -6.6158     0.0000    64.0000 </r>
       <r>    -6.4046     0.0000    64.0000 </r>
       <r>    -6.1934     0.0000    64.0000 </r>
       <r>    -5.9823     0.0000    64.0000 </r>
       <r>    -5.7711     0.0000    64.0000 </r>
       <r>    -5.5599     0.0000    64.0000 </r>
       <r>    -5.3488     0.0000    64.0000 </r>
       <r>    -5.1376     0.0000    64.0000 </r>
       <r>    -4.9264     0.0000    64.0000 </r>
       <r>    -4.7153     0.0000    64.0000 </r>
       <r>    -4.5041     0.0000    64.0000 </r>
       <r>    -4.2929     0.0000    64.0000 </r>
       <r>    -4.0817     0.0000    64.0000 </r>
       <r>    -3.8706     0.0000    64.0000 </r>
       <r>    -3.6594     0.0000    64.0000 </r>
       <r>    -3.4482     0.0000    64.0000 </r>
       <r>    -3.2371     0.0000    64.0000 </r>
       <r>    -3.0259     0.0000    64.0000 </r>
       <r>    -2.8147     0.0000    64.0000 </r>
       <r>    -2.6036     0.0000    64.0000 </r>
       <r>    -2.3924     0.0000    64.0000 </r>
       <r>    -2.1812    -0.0000    64.0000 </r>
       <r>    -1.9701    -0.0000    64.0000 </r>
       <r>    -1.7589    -0.0000    64.0000 </r>
       <r>    -1.5477    -0.0000    64.0000 </r>
       <r>    -1.3365    -0.0000    64.0000 </r>
       <r>    -1.1254    -0.0000    64.0000 </r>
       <r>    -0.9142    -0.0001    64.0000 </r>
       <r>    -0.7030    -0.0048    63.9990 </r>
       <r>    -0.4919    -0.0036    63.9982 </r>
       <r>    -0.2807     0.3033    64.0622 </r>
       <r>    -0.0695     0.9020    64.2527 </r>
       <r>     0.1416     0.8718    64.4368 </r>
       <r>     0.3528     1.9099    64.8401 </r>
       <r>     0.5640     1.4087    65.1376 </r>
       <r>     0.7752     1.6437    65.4847 </r>
       <r>     0.9863     2.8530    66.0872 </r>
       <r>     1.1975     2.3206    66.5772 </r>
       <r>     1.4087     3.4635    67.3086 </r>
       <r>     1.6198     2.2274    67.7789 </r>
       <r>     1.8310     3.1760    68.4496 </r>
       <r>     2.0422     3.4710    69.1826 </r>
       <r>     2.2533     3.5593    69.9342 </r>
       <r>     2.4645     2.8359    70.5331 </r>
       <r>     2.6757     2.5159    71.0643 </r>
       <r>     2.8868     3.3719    71.7764 </r>
       <r>     3.0980     3.9685    72.6144 </r>
       <r>     3.3092     3.7641    73.4093 </r>
       <r>     3.5204     4.4609    74.3513 </r>
       <r>     3.7315     3.2615    75.0400 </r>
       <r>     3.9427     4.1060    75.9071 </r>
       <r>     4.1539     5.1224    76.9888 </r>
       <r>     4.3650     4.5111    77.9414 </r>
       <r>     4.5762     4.0802    78.8030 </r>
       <r>     4.7874     4.9021    79.8381 </r>
       <r>     4.9985     3.7046    80.6204 </r>
       <r>     5.2097     4.6057    81.5930 </r>
       <r>     5.4209     5.3473    82.7222 </r>
       <r>     5.6320     7.1397    84.2299 </r>
       <r>     5.8432     6.9352    85.6944 </r>
       <r>     6.0544     7.5315    87.2848 </r>
       <r>     6.2656    10.2038    89.4396 </r>
       <r>     6.4767    11.9932    91.9722 </r>
       <r>     6.6879    12.7080    94.6557 </r>
       <r>     6.8991    13.1561    97.4339 </r>
       <r>     7.1102    19.3127   101.5121 </r>
       <r>     7.3214    14.6294   104.6014 </r>
       <r>     7.5326     8.5287   106.4024 </r>
       <r>     7.7437     9.7661   108.4647 </r>
       <r>     7.9549    15.0072   111.6338 </r>
       <r>     8.1661    20.6176   115.9876 </r>
       <r>     8.3773    22.1212   120.6589 </r>
       <r>     8.5884    20.1532   124.9147 </r>
       <r>     8.7996    18.5711   128.8363 </r>
       <r>     9.0108    28.4117   134.8360 </r>
       <r>     9.2219    66.3206   148.8409 </r>
       <r>     9.4331    98.4509   169.6307 </r>
       <r>     9.6443    33.5977   176.7255 </r>
       <r>     9.8554    -3.1467   176.0610 </r>
       <r>    10.0666    -0.2873   176.0004 </r>
       <r>    10.2778    -0.0017   176.0000 </r>
       <r>    10.4889    -0.0000   176.0000 </r>
       <r>    10.7001    -0.0000   176.0000 </r>
       <r>    10.9113    -0.0000   176.0000 </r>
       <r>    11.1225     0.0000   176.0000 </r>
       <r>    11.3336     0.0000   176.0000 </r>
       <r>    11.5448     0.0000   176.0000 </r>
       <r>    11.7560     0.0000   176.0000 </r>
       <r>    11.9671     0.0000   176.0000 </r>
       <r>    12.1783     0.0000   176.0000 </r>
       <r>    12.3895     0.0000   176.0000 </r>
      </set>
     </set>
    </array>
   </total>
  </dos>
 </calculation>
 <structure name="finalpos" >
  <crystal>
   <varray name="basis" >
    <v>       5.58242785       0.00000000       0.00000000 </v>
    <v>       0.00000000       5.58242785       0.00000000 </v>
    <v>       0.00000000       0.00000000       8.02249218 </v>
   </varray>
   <i name="volume">    250.00894043 </i>
   <varray name="rec_basis" >
    <v>       0.17913353       0.00000000       0.00000000 </v>
    <v>       0.00000000       0.17913353       0.00000000 </v>
    <v>       0.00000000       0.00000000       0.12464955 </v>
   </varray>
  </crystal>
  <varray name="positions" >
   <v>       0.00000000       0.00000000       0.00000000 </v>
   <v>       0.00000000       0.00000000       0.50000000 </v>
   <v>       0.00000000       0.50000000       0.00000000 </v>
   <v>       0.00000000       0.50000000       0.50000000 </v>
   <v>       0.50000000       0.00000000       0.00000000 </v>
   <v>       0.50000000       0.00000000       0.50000000 </v>
   <v>       0.50000000       0.50000000       0.00000000 </v>
   <v>       0.50000000       0.50000000       0.50000000 </v>
   <v>       0.25000000       0.25000000       0.25000000 </v>
   <v>       0.25000000       0.25000000       0.75000000 </v>
   <v>       0.25000000       0.75000000       0.25000000 </v>
   <v>       0.25000000       0.75000000       0.75000000 </v>
   <v>       0.75000000       0.25000000       0.25000000 </v>
   <v>       0.75000000       0.25000000       0.75000000 </v>
   <v>       0.75000000       0.75000000       0.25000000 </v>
   <v>       0.75000000       0.75000000       0.75000000 </v>
   <v>       0.25000000       0.25000000       0.24813026 </v>
   <v>       0.25000000       0.25000000       0.75000000 </v>
   <v>       0.25000000       0.75000000       0.25000000 </v>
   <v>       0.25000000       0.75000000       0.75000000 </v>
   <v>       0.75000000       0.25000000       0.25000000 </v>
   <v>       0.75000000       0.25000000       0.75000000 </v>
   <v>       0.75000000       0.75000000       0.25000000 </v>
   <v>       0.75000000       0.75000000       0.75000000 </v>
  </varray>
 </structure>
</modeling>
