  17  17   0   0
  0.5607879E+02  0.5858456E-09  0.8300274E-09  0.1960523E-08  0.5000000E-15
  1.000000000000000E-004
  CAR 
 unknown system                          
      9.95961067    -60.56697938  301     -0.06603494      1.00000000
    -60.567  0.0000E+00  0.0000E+00
    -60.332  0.0000E+00  0.0000E+00
    -60.097  0.0000E+00  0.0000E+00
    -59.862  0.0000E+00  0.0000E+00
    -59.627  0.0000E+00  0.0000E+00
    -59.392  0.0000E+00  0.0000E+00
    -59.156  0.0000E+00  0.0000E+00
    -58.921  0.0000E+00  0.0000E+00
    -58.686  0.0000E+00  0.0000E+00
    -58.451  0.0000E+00  0.0000E+00
    -58.216 -0.6329E-30 -0.1488E-30
    -57.981 -0.5464E-15 -0.1285E-15
    -57.746 -0.5987E-05 -0.1407E-05
    -57.511 -0.4662E+00 -0.1096E+00
    -57.276  0.1742E+02  0.3986E+01
    -57.041  0.2845E+02  0.1067E+02
    -56.806  0.6718E+01  0.1225E+02
    -56.570  0.1625E+02  0.1607E+02
    -56.335 -0.3094E+00  0.1600E+02
    -56.100 -0.1289E-05  0.1600E+02
    -55.865  0.0000E+00  0.1600E+02
    -55.630  0.0000E+00  0.1600E+02
    -55.395  0.0000E+00  0.1600E+02
    -55.160  0.0000E+00  0.1600E+02
    -54.925  0.0000E+00  0.1600E+02
    -54.690  0.0000E+00  0.1600E+02
    -54.455  0.0000E+00  0.1600E+02
    -54.220  0.0000E+00  0.1600E+02
    -53.984  0.0000E+00  0.1600E+02
    -53.749  0.0000E+00  0.1600E+02
    -53.514  0.0000E+00  0.1600E+02
    -53.279  0.0000E+00  0.1600E+02
    -53.044  0.0000E+00  0.1600E+02
    -52.809  0.0000E+00  0.1600E+02
    -52.574  0.0000E+00  0.1600E+02
    -52.339  0.0000E+00  0.1600E+02
    -52.104  0.0000E+00  0.1600E+02
    -51.869  0.0000E+00  0.1600E+02
    -51.634  0.0000E+00  0.1600E+02
    -51.399  0.0000E+00  0.1600E+02
    -51.163  0.0000E+00  0.1600E+02
    -50.928  0.0000E+00  0.1600E+02
    -50.693  0.0000E+00  0.1600E+02
    -50.458  0.0000E+00  0.1600E+02
    -50.223  0.0000E+00  0.1600E+02
    -49.988  0.0000E+00  0.1600E+02
    -49.753  0.0000E+00  0.1600E+02
    -49.518  0.0000E+00  0.1600E+02
    -49.283  0.0000E+00  0.1600E+02
    -49.048  0.0000E+00  0.1600E+02
    -48.813  0.0000E+00  0.1600E+02
    -48.577  0.0000E+00  0.1600E+02
    -48.342  0.0000E+00  0.1600E+02
    -48.107  0.0000E+00  0.1600E+02
    -47.872  0.0000E+00  0.1600E+02
    -47.637  0.0000E+00  0.1600E+02
    -47.402  0.0000E+00  0.1600E+02
    -47.167  0.0000E+00  0.1600E+02
    -46.932  0.0000E+00  0.1600E+02
    -46.697  0.0000E+00  0.1600E+02
    -46.462  0.0000E+00  0.1600E+02
    -46.227  0.0000E+00  0.1600E+02
    -45.991  0.0000E+00  0.1600E+02
    -45.756  0.0000E+00  0.1600E+02
    -45.521  0.0000E+00  0.1600E+02
    -45.286  0.0000E+00  0.1600E+02
    -45.051  0.0000E+00  0.1600E+02
    -44.816  0.0000E+00  0.1600E+02
    -44.581  0.0000E+00  0.1600E+02
    -44.346  0.0000E+00  0.1600E+02
    -44.111  0.0000E+00  0.1600E+02
    -43.876  0.0000E+00  0.1600E+02
    -43.641  0.0000E+00  0.1600E+02
    -43.406  0.0000E+00  0.1600E+02
    -43.170  0.0000E+00  0.1600E+02
    -42.935  0.0000E+00  0.1600E+02
    -42.700  0.0000E+00  0.1600E+02
    -42.465  0.0000E+00  0.1600E+02
    -42.230  0.0000E+00  0.1600E+02
    -41.995  0.0000E+00  0.1600E+02
    -41.760  0.0000E+00  0.1600E+02
    -41.525  0.0000E+00  0.1600E+02
    -41.290  0.0000E+00  0.1600E+02
    -41.055  0.0000E+00  0.1600E+02
    -40.820  0.0000E+00  0.1600E+02
    -40.584  0.0000E+00  0.1600E+02
    -40.349  0.0000E+00  0.1600E+02
    -40.114  0.0000E+00  0.1600E+02
    -39.879  0.0000E+00  0.1600E+02
    -39.644  0.0000E+00  0.1600E+02
    -39.409  0.0000E+00  0.1600E+02
    -39.174  0.0000E+00  0.1600E+02
    -38.939  0.0000E+00  0.1600E+02
    -38.704  0.0000E+00  0.1600E+02
    -38.469  0.0000E+00  0.1600E+02
    -38.234  0.0000E+00  0.1600E+02
    -37.998  0.0000E+00  0.1600E+02
    -37.763  0.0000E+00  0.1600E+02
    -37.528  0.0000E+00  0.1600E+02
    -37.293  0.0000E+00  0.1600E+02
    -37.058  0.0000E+00  0.1600E+02
    -36.823  0.0000E+00  0.1600E+02
    -36.588  0.0000E+00  0.1600E+02
    -36.353  0.0000E+00  0.1600E+02
    -36.118  0.0000E+00  0.1600E+02
    -35.883  0.0000E+00  0.1600E+02
    -35.648  0.0000E+00  0.1600E+02
    -35.412  0.0000E+00  0.1600E+02
    -35.177  0.0000E+00  0.1600E+02
    -34.942  0.0000E+00  0.1600E+02
    -34.707 -0.1063E-35  0.1600E+02
    -34.472 -0.3187E-19  0.1600E+02
    -34.237 -0.1283E-07  0.1600E+02
    -34.002 -0.5470E-01  0.1599E+02
    -33.767  0.9007E+01  0.1810E+02
    -33.532  0.4669E+02  0.2908E+02
    -33.297  0.5940E+02  0.4305E+02
    -33.062  0.5440E+02  0.5583E+02
    -32.827  0.3467E+02  0.6399E+02
    -32.591  0.6252E-01  0.6400E+02
    -32.356 -0.7923E-03  0.6400E+02
    -32.121 -0.4273E-11  0.6400E+02
    -31.886  0.0000E+00  0.6400E+02
    -31.651  0.0000E+00  0.6400E+02
    -31.416  0.0000E+00  0.6400E+02
    -31.181  0.0000E+00  0.6400E+02
    -30.946  0.0000E+00  0.6400E+02
    -30.711  0.0000E+00  0.6400E+02
    -30.476  0.0000E+00  0.6400E+02
    -30.241  0.0000E+00  0.6400E+02
    -30.005  0.0000E+00  0.6400E+02
    -29.770  0.0000E+00  0.6400E+02
    -29.535  0.0000E+00  0.6400E+02
    -29.300  0.0000E+00  0.6400E+02
    -29.065  0.0000E+00  0.6400E+02
    -28.830  0.0000E+00  0.6400E+02
    -28.595  0.0000E+00  0.6400E+02
    -28.360  0.0000E+00  0.6400E+02
    -28.125  0.0000E+00  0.6400E+02
    -27.890  0.0000E+00  0.6400E+02
    -27.655  0.0000E+00  0.6400E+02
    -27.419  0.0000E+00  0.6400E+02
    -27.184  0.0000E+00  0.6400E+02
    -26.949  0.0000E+00  0.6400E+02
    -26.714  0.0000E+00  0.6400E+02
    -26.479  0.0000E+00  0.6400E+02
    -26.244  0.0000E+00  0.6400E+02
    -26.009  0.0000E+00  0.6400E+02
    -25.774  0.0000E+00  0.6400E+02
    -25.539  0.0000E+00  0.6400E+02
    -25.304  0.0000E+00  0.6400E+02
    -25.069  0.0000E+00  0.6400E+02
    -24.834  0.0000E+00  0.6400E+02
    -24.598  0.0000E+00  0.6400E+02
    -24.363  0.0000E+00  0.6400E+02
    -24.128  0.0000E+00  0.6400E+02
    -23.893  0.0000E+00  0.6400E+02
    -23.658  0.0000E+00  0.6400E+02
    -23.423  0.0000E+00  0.6400E+02
    -23.188  0.0000E+00  0.6400E+02
    -22.953  0.0000E+00  0.6400E+02
    -22.718  0.0000E+00  0.6400E+02
    -22.483  0.0000E+00  0.6400E+02
    -22.248  0.0000E+00  0.6400E+02
    -22.012  0.0000E+00  0.6400E+02
    -21.777  0.0000E+00  0.6400E+02
    -21.542  0.0000E+00  0.6400E+02
    -21.307  0.0000E+00  0.6400E+02
    -21.072  0.0000E+00  0.6400E+02
    -20.837  0.0000E+00  0.6400E+02
    -20.602  0.0000E+00  0.6400E+02
    -20.367  0.0000E+00  0.6400E+02
    -20.132  0.0000E+00  0.6400E+02
    -19.897  0.0000E+00  0.6400E+02
    -19.662  0.0000E+00  0.6400E+02
    -19.426  0.0000E+00  0.6400E+02
    -19.191  0.0000E+00  0.6400E+02
    -18.956  0.0000E+00  0.6400E+02
    -18.721  0.0000E+00  0.6400E+02
    -18.486  0.0000E+00  0.6400E+02
    -18.251  0.0000E+00  0.6400E+02
    -18.016  0.0000E+00  0.6400E+02
    -17.781  0.0000E+00  0.6400E+02
    -17.546  0.0000E+00  0.6400E+02
    -17.311  0.0000E+00  0.6400E+02
    -17.076  0.0000E+00  0.6400E+02
    -16.840  0.0000E+00  0.6400E+02
    -16.605  0.0000E+00  0.6400E+02
    -16.370  0.0000E+00  0.6400E+02
    -16.135 -0.1949E-26  0.6400E+02
    -15.900 -0.1318E-12  0.6400E+02
    -15.665 -0.1137E-03  0.6400E+02
    -15.430 -0.2519E+00  0.6394E+02
    -15.195  0.1974E+02  0.6858E+02
    -14.960  0.2339E+02  0.7408E+02
    -14.725 -0.3446E+00  0.7400E+02
    -14.490 -0.1420E-05  0.7400E+02
    -14.255  0.0000E+00  0.7400E+02
    -14.019  0.0000E+00  0.7400E+02
    -13.784  0.0000E+00  0.7400E+02
    -13.549  0.0000E+00  0.7400E+02
    -13.314  0.0000E+00  0.7400E+02
    -13.079  0.0000E+00  0.7400E+02
    -12.844  0.0000E+00  0.7400E+02
    -12.609  0.0000E+00  0.7400E+02
    -12.374  0.0000E+00  0.7400E+02
    -12.139  0.0000E+00  0.7400E+02
    -11.904  0.0000E+00  0.7400E+02
    -11.669  0.0000E+00  0.7400E+02
    -11.433  0.0000E+00  0.7400E+02
    -11.198  0.0000E+00  0.7400E+02
    -10.963  0.0000E+00  0.7400E+02
    -10.728  0.0000E+00  0.7400E+02
    -10.493  0.0000E+00  0.7400E+02
    -10.258 -0.1410E-44  0.7400E+02
    -10.023 -0.2452E-26  0.7400E+02
     -9.788 -0.6056E-13  0.7400E+02
     -9.553 -0.2110E-04  0.7400E+02
     -9.318 -0.5216E-01  0.7399E+02
     -9.083  0.3556E+01  0.7482E+02
     -8.847  0.3031E+01  0.7554E+02
     -8.612  0.2018E+01  0.7601E+02
     -8.377 -0.4566E-01  0.7600E+02
     -8.142 -0.6754E-05  0.7600E+02
     -7.907 -0.7867E-10  0.7600E+02
     -7.672 -0.6730E-03  0.7600E+02
     -7.437  0.9241E-01  0.7602E+02
     -7.202  0.3651E+01  0.7688E+02
     -6.967  0.4435E+01  0.7792E+02
     -6.732  0.1279E+01  0.7822E+02
     -6.497  0.2783E+01  0.7888E+02
     -6.262  0.5011E+01  0.8006E+02
     -6.026  0.3354E+01  0.8084E+02
     -5.791  0.3475E+01  0.8166E+02
     -5.556  0.3788E+01  0.8255E+02
     -5.321  0.5908E+01  0.8394E+02
     -5.086  0.3379E+01  0.8473E+02
     -4.851  0.2240E+01  0.8526E+02
     -4.616  0.7658E+01  0.8706E+02
     -4.381  0.1929E+01  0.8752E+02
     -4.146  0.5946E+00  0.8765E+02
     -3.911  0.7753E+01  0.8948E+02
     -3.676  0.5282E+01  0.9072E+02
     -3.440  0.1241E+01  0.9101E+02
     -3.205  0.5657E+01  0.9234E+02
     -2.970  0.5778E+01  0.9370E+02
     -2.735  0.7363E+01  0.9543E+02
     -2.500  0.9257E+01  0.9761E+02
     -2.265  0.6230E+01  0.9907E+02
     -2.030  0.8866E+01  0.1012E+03
     -1.795  0.1212E+02  0.1040E+03
     -1.560  0.1480E+02  0.1075E+03
     -1.325  0.1125E+02  0.1101E+03
     -1.090  0.1176E+02  0.1129E+03
     -0.854  0.1578E+02  0.1166E+03
     -0.619  0.1775E+02  0.1208E+03
     -0.384  0.1717E+02  0.1248E+03
     -0.149  0.2626E+02  0.1310E+03
      0.086  0.2982E+02  0.1380E+03
      0.321  0.1910E+02  0.1425E+03
      0.556  0.2037E+02  0.1473E+03
      0.791  0.2591E+02  0.1534E+03
      1.026  0.2221E+02  0.1586E+03
      1.261  0.2976E+02  0.1656E+03
      1.496  0.2833E+02  0.1722E+03
      1.732  0.2777E+02  0.1788E+03
      1.967  0.2457E+02  0.1845E+03
      2.202  0.2250E+02  0.1898E+03
      2.437  0.9960E+01  0.1922E+03
      2.672  0.1238E+02  0.1951E+03
      2.907  0.1229E+02  0.1980E+03
      3.142  0.1147E+02  0.2007E+03
      3.377  0.1020E+02  0.2031E+03
      3.612  0.7877E+01  0.2049E+03
      3.847  0.1257E+02  0.2079E+03
      4.082  0.1682E+02  0.2118E+03
      4.317  0.1968E+02  0.2165E+03
      4.553  0.1415E+02  0.2198E+03
      4.788  0.1648E+02  0.2237E+03
      5.023  0.1629E+02  0.2275E+03
      5.258  0.1296E+02  0.2305E+03
      5.493  0.1562E+02  0.2342E+03
      5.728  0.1895E+02  0.2387E+03
      5.963  0.2276E+02  0.2440E+03
      6.198  0.1661E+02  0.2479E+03
      6.433  0.1964E+02  0.2525E+03
      6.668  0.1195E+02  0.2553E+03
      6.903  0.2810E+01  0.2560E+03
      7.139 -0.3480E-01  0.2560E+03
      7.374 -0.2845E-06  0.2560E+03
      7.609  0.0000E+00  0.2560E+03
      7.844  0.0000E+00  0.2560E+03
      8.079  0.0000E+00  0.2560E+03
      8.314  0.0000E+00  0.2560E+03
      8.549  0.0000E+00  0.2560E+03
      8.784  0.0000E+00  0.2560E+03
      9.019  0.0000E+00  0.2560E+03
      9.254  0.0000E+00  0.2560E+03
      9.489  0.0000E+00  0.2560E+03
      9.725  0.0000E+00  0.2560E+03
      9.960  0.0000E+00  0.2560E+03
