   17   17    1    1
  0.5607879E+02  0.5858456E-09  0.8300274E-09  0.1960523E-08  0.5000000E-15
  1.000000000000000E-004
  CAR 
 unknown system                          
    133     12    128
 
  0.1276756E-14  0.1276756E-14  0.1276756E-14  0.4166667E-01
      1        -57.361225   1.000000
      2        -57.360925   1.000000
      3        -57.190923   1.000000
      4        -57.190387   1.000000
      5        -57.058148   1.000000
      6        -57.057800   1.000000
      7        -56.742553   1.000000
      8        -56.739231   1.000000
      9        -33.778516   1.000000
     10        -33.775539   1.000000
     11        -33.657730   1.000000
     12        -33.652011   1.000000
     13        -33.596868   1.000000
     14        -33.595648   1.000000
     15        -33.522119   1.000000
     16        -33.520915   1.000000
     17        -33.492952   1.000000
     18        -33.481083   1.000000
     19        -33.403200   1.000000
     20        -33.393769   1.000000
     21        -33.297910   1.000000
     22        -33.296023   1.000000
     23        -33.268149   1.000000
     24        -33.267152   1.000000
     25        -33.188993   1.000000
     26        -33.188361   1.000000
     27        -33.075786   1.000000
     28        -33.068316   1.000000
     29        -33.067533   1.000000
     30        -33.020784   1.000000
     31        -32.887767   1.000000
     32        -32.883703   1.000000
     33        -15.331957   1.000000
     34        -15.218107   1.000000
     35        -15.189665   1.000000
     36        -15.134602   1.000000
     37        -15.125394   1.000000
     38         -9.241701   1.000000
     39         -7.170983   1.000000
     40         -6.535367   1.000000
     41         -5.490983   1.000000
     42         -5.090746   1.000000
     43         -4.900834   1.000000
     44         -4.516462   1.000000
     45         -4.108410   1.000000
     46         -3.330971   1.000000
     47         -2.963086   1.000000
     48         -2.940016   1.000000
     49         -2.801114   1.000000
     50         -2.569145   1.000000
     51         -2.304719   1.000000
     52         -2.010886   1.000000
     53         -1.892631   1.000000
     54         -1.716203   1.000000
     55         -1.559255   1.000000
     56         -1.213853   1.000000
     57         -1.137298   1.000000
     58         -0.948225   1.000000
     59         -0.913979   1.000000
     60         -0.766588   1.000000
     61         -0.538376   1.000000
     62         -0.507856   1.000000
     63         -0.461006   1.000000
     64         -0.424157   1.000003
     65         -0.330942   1.000580
     66         -0.239163   1.017206
     67         -0.191355   1.035338
     68         -0.093742   0.724798
     69          0.034500  -0.025673
     70          0.102218  -0.019315
     71          0.174611  -0.001741
     72          0.209222  -0.000348
     73          0.282782  -0.000005
     74          0.595667  -0.000000
     75          0.683222  -0.000000
     76          0.700628  -0.000000
     77          0.768904  -0.000000
     78          0.986135  -0.000000
     79          1.085114  -0.000000
     80          1.208339  -0.000000
     81          1.216738  -0.000000
     82          1.274096  -0.000000
     83          1.295460  -0.000000
     84          1.395880  -0.000000
     85          1.501240  -0.000000
     86          1.524311  -0.000000
     87          1.536083  -0.000000
     88          1.667852  -0.000000
     89          1.705100  -0.000000
     90          1.868781  -0.000000
     91          1.911370  -0.000000
     92          1.912070  -0.000000
     93          2.093222   0.000000
     94          2.120064   0.000000
     95          2.175833   0.000000
     96          2.237845   0.000000
     97          2.731649   0.000000
     98          2.784762   0.000000
     99          2.891519   0.000000
    100          3.062494   0.000000
    101          3.190340   0.000000
    102          3.387658   0.000000
    103          3.664657   0.000000
    104          3.761928   0.000000
    105          3.952202   0.000000
    106          4.028160   0.000000
    107          4.032867   0.000000
    108          4.105258   0.000000
    109          4.415236   0.000000
    110          4.470687   0.000000
    111          4.554091   0.000000
    112          4.678823   0.000000
    113          5.023725   0.000000
    114          5.136210   0.000000
    115          5.173189   0.000000
    116          5.246350   0.000000
    117          5.290795   0.000000
    118          5.413916   0.000000
    119          5.713486   0.000000
    120          5.857314   0.000000
    121          5.900797   0.000000
    122          5.934589   0.000000
    123          5.958693   0.000000
    124          6.158488   0.000000
    125          6.194605   0.000000
    126          6.211557   0.000000
    127          6.327113   0.000000
    128          6.473070   0.000000
 
  0.1666667E+00  0.1276756E-14  0.1276756E-14  0.8333333E-01
      1        -57.360787   1.000000
      2        -57.360487   1.000000
      3        -57.191381   1.000000
      4        -57.190844   1.000000
      5        -57.057952   1.000000
      6        -57.057606   1.000000
      7        -56.742767   1.000000
      8        -56.739444   1.000000
      9        -33.778176   1.000000
     10        -33.775204   1.000000
     11        -33.657158   1.000000
     12        -33.651477   1.000000
     13        -33.597525   1.000000
     14        -33.596307   1.000000
     15        -33.504539   1.000000
     16        -33.502634   1.000000
     17        -33.491721   1.000000
     18        -33.480567   1.000000
     19        -33.403444   1.000000
     20        -33.394037   1.000000
     21        -33.285669   1.000000
     22        -33.283909   1.000000
     23        -33.267829   1.000000
     24        -33.266849   1.000000
     25        -33.208715   1.000000
     26        -33.208013   1.000000
     27        -33.075949   1.000000
     28        -33.068626   1.000000
     29        -33.067502   1.000000
     30        -33.020646   1.000000
     31        -32.900761   1.000000
     32        -32.896481   1.000000
     33        -15.332152   1.000000
     34        -15.217936   1.000000
     35        -15.189382   1.000000
     36        -15.134600   1.000000
     37        -15.125482   1.000000
     38         -9.151676   1.000000
     39         -7.089953   1.000000
     40         -6.429698   1.000000
     41         -5.986095   1.000000
     42         -5.385088   1.000000
     43         -4.717325   1.000000
     44         -4.385644   1.000000
     45         -3.987962   1.000000
     46         -3.841511   1.000000
     47         -3.154832   1.000000
     48         -2.904398   1.000000
     49         -2.470528   1.000000
     50         -2.315387   1.000000
     51         -2.170395   1.000000
     52         -1.877987   1.000000
     53         -1.646949   1.000000
     54         -1.558032   1.000000
     55         -1.525404   1.000000
     56         -1.187615   1.000000
     57         -1.128247   1.000000
     58         -1.043495   1.000000
     59         -0.904968   1.000000
     60         -0.746373   1.000000
     61         -0.659017   1.000000
     62         -0.549551   1.000000
     63         -0.408655   1.000007
     64         -0.402806   1.000010
     65         -0.316059   1.001157
     66         -0.213898   1.028593
     67         -0.167495   1.026577
     68         -0.137630   0.965318
     69         -0.042780   0.308977
     70          0.089739  -0.025022
     71          0.201563  -0.000509
     72          0.352182  -0.000000
     73          0.617480  -0.000000
     74          0.637796  -0.000000
     75          0.686560  -0.000000
     76          0.774342  -0.000000
     77          0.807938  -0.000000
     78          0.960453  -0.000000
     79          1.024962  -0.000000
     80          1.102352  -0.000000
     81          1.125591  -0.000000
     82          1.174953  -0.000000
     83          1.222449  -0.000000
     84          1.332089  -0.000000
     85          1.390939  -0.000000
     86          1.458934  -0.000000
     87          1.486522  -0.000000
     88          1.696256  -0.000000
     89          1.762590  -0.000000
     90          1.774600  -0.000000
     91          1.863858  -0.000000
     92          1.884417  -0.000000
     93          2.023707   0.000000
     94          2.061212   0.000000
     95          2.136708   0.000000
     96          2.299597   0.000000
     97          2.499609   0.000000
     98          2.649477   0.000000
     99          2.774913   0.000000
    100          2.879996   0.000000
    101          3.290329   0.000000
    102          3.481677   0.000000
    103          3.787625   0.000000
    104          3.934674   0.000000
    105          4.042188   0.000000
    106          4.070982   0.000000
    107          4.123858   0.000000
    108          4.207575   0.000000
    109          4.336080   0.000000
    110          4.549515   0.000000
    111          4.672019   0.000000
    112          4.708854   0.000000
    113          4.833241   0.000000
    114          5.127316   0.000000
    115          5.300195   0.000000
    116          5.364561   0.000000
    117          5.521463   0.000000
    118          5.524784   0.000000
    119          5.713813   0.000000
    120          5.831660   0.000000
    121          5.890851   0.000000
    122          5.907727   0.000000
    123          6.004719   0.000000
    124          6.066140   0.000000
    125          6.177244   0.000000
    126          6.177710   0.000000
    127          6.331212   0.000000
    128          6.336669   0.000000
 
  0.3333333E+00  0.1276756E-14  0.1276756E-14  0.8333333E-01
      1        -57.359902   1.000000
      2        -57.359605   1.000000
      3        -57.192305   1.000000
      4        -57.191762   1.000000
      5        -57.057558   1.000000
      6        -57.057216   1.000000
      7        -56.743197   1.000000
      8        -56.739869   1.000000
      9        -33.777482   1.000000
     10        -33.774521   1.000000
     11        -33.655921   1.000000
     12        -33.650319   1.000000
     13        -33.598864   1.000000
     14        -33.597638   1.000000
     15        -33.495922   1.000000
     16        -33.484525   1.000000
     17        -33.451546   1.000000
     18        -33.449979   1.000000
     19        -33.403700   1.000000
     20        -33.394351   1.000000
     21        -33.267716   1.000000
     22        -33.266680   1.000000
     23        -33.265304   1.000000
     24        -33.264192   1.000000
     25        -33.252372   1.000000
     26        -33.251153   1.000000
     27        -33.076167   1.000000
     28        -33.069243   1.000000
     29        -33.067009   1.000000
     30        -33.019897   1.000000
     31        -32.929885   1.000000
     32        -32.925105   1.000000
     33        -15.332542   1.000000
     34        -15.217603   1.000000
     35        -15.188810   1.000000
     36        -15.134597   1.000000
     37        -15.125660   1.000000
     38         -8.920735   1.000000
     39         -7.081868   1.000000
     40         -6.540864   1.000000
     41         -6.069777   1.000000
     42         -5.494935   1.000000
     43         -5.071465   1.000000
     44         -4.753561   1.000000
     45         -4.009819   1.000000
     46         -3.890947   1.000000
     47         -3.259203   1.000000
     48         -2.769073   1.000000
     49         -2.178801   1.000000
     50         -2.107321   1.000000
     51         -1.833036   1.000000
     52         -1.607278   1.000000
     53         -1.595605   1.000000
     54         -1.431712   1.000000
     55         -1.296207   1.000000
     56         -1.291925   1.000000
     57         -1.064220   1.000000
     58         -1.055030   1.000000
     59         -0.836501   1.000000
     60         -0.678017   1.000000
     61         -0.459344   1.000000
     62         -0.327978   1.000668
     63         -0.301583   1.002155
     64         -0.289133   1.003536
     65         -0.241581   1.016200
     66         -0.094378   0.729510
     67         -0.088470   0.684663
     68         -0.012401   0.110600
     69          0.032636  -0.023693
     70          0.061783  -0.035049
     71          0.255786  -0.000026
     72          0.413844  -0.000000
     73          0.493201  -0.000000
     74          0.601896  -0.000000
     75          0.696098  -0.000000
     76          0.783444  -0.000000
     77          0.791359  -0.000000
     78          0.883510  -0.000000
     79          0.911426  -0.000000
     80          0.990822  -0.000000
     81          1.066007  -0.000000
     82          1.081650  -0.000000
     83          1.099583  -0.000000
     84          1.250869  -0.000000
     85          1.284536  -0.000000
     86          1.305472  -0.000000
     87          1.372750  -0.000000
     88          1.404308  -0.000000
     89          1.651218  -0.000000
     90          1.668473  -0.000000
     91          1.717707  -0.000000
     92          1.776218  -0.000000
     93          1.844940  -0.000000
     94          1.872197  -0.000000
     95          2.068495   0.000000
     96          2.206470   0.000000
     97          2.289268   0.000000
     98          2.884246   0.000000
     99          2.905812   0.000000
    100          3.139365   0.000000
    101          3.380805   0.000000
    102          3.573339   0.000000
    103          3.733726   0.000000
    104          4.029137   0.000000
    105          4.117703   0.000000
    106          4.253793   0.000000
    107          4.270750   0.000000
    108          4.428334   0.000000
    109          4.493521   0.000000
    110          4.560068   0.000000
    111          4.579684   0.000000
    112          4.701022   0.000000
    113          4.944243   0.000000
    114          4.975484   0.000000
    115          5.220742   0.000000
    116          5.336037   0.000000
    117          5.542095   0.000000
    118          5.542617   0.000000
    119          5.576391   0.000000
    120          5.668371   0.000000
    121          5.717619   0.000000
    122          5.818561   0.000000
    123          5.882866   0.000000
    124          5.906781   0.000000
    125          6.090474   0.000000
    126          6.288416   0.000000
    127          6.324281   0.000000
    128          6.536342   0.000000
 
  0.5000000E+00  0.1276756E-14  0.1276756E-14  0.4166667E-01
      1        -57.359456   1.000000
      2        -57.359161   1.000000
      3        -57.192770   1.000000
      4        -57.192228   1.000000
      5        -57.057361   1.000000
      6        -57.057022   1.000000
      7        -56.743414   1.000000
      8        -56.740082   1.000000
      9        -33.777133   1.000000
     10        -33.774178   1.000000
     11        -33.655266   1.000000
     12        -33.649704   1.000000
     13        -33.599550   1.000000
     14        -33.598325   1.000000
     15        -33.496113   1.000000
     16        -33.484340   1.000000
     17        -33.412227   1.000000
     18        -33.411055   1.000000
     19        -33.403475   1.000000
     20        -33.394316   1.000000
     21        -33.301666   1.000000
     22        -33.300513   1.000000
     23        -33.266928   1.000000
     24        -33.265990   1.000000
     25        -33.241769   1.000000
     26        -33.240402   1.000000
     27        -33.076204   1.000000
     28        -33.069556   1.000000
     29        -33.066318   1.000000
     30        -33.019011   1.000000
     31        -32.946715   1.000000
     32        -32.941679   1.000000
     33        -15.332737   1.000000
     34        -15.217439   1.000000
     35        -15.188520   1.000000
     36        -15.134596   1.000000
     37        -15.125748   1.000000
     38         -8.754795   1.000000
     39         -7.347642   1.000000
     40         -6.161257   1.000000
     41         -6.147387   1.000000
     42         -5.622219   1.000000
     43         -5.393355   1.000000
     44         -4.633623   1.000000
     45         -4.487793   1.000000
     46         -3.502199   1.000000
     47         -3.363481   1.000000
     48         -2.720629   1.000000
     49         -2.476876   1.000000
     50         -1.803685   1.000000
     51         -1.741854   1.000000
     52         -1.722369   1.000000
     53         -1.516469   1.000000
     54         -1.315086   1.000000
     55         -1.138267   1.000000
     56         -1.118541   1.000000
     57         -0.992519   1.000000
     58         -0.943264   1.000000
     59         -0.694456   1.000000
     60         -0.608197   1.000000
     61         -0.312131   1.001376
     62         -0.262723   1.008885
     63         -0.223284   1.024339
     64         -0.092335   0.714264
     65         -0.085778   0.663520
     66         -0.062833   0.472922
     67         -0.017355   0.137237
     68          0.001017   0.050844
     69          0.011646   0.016126
     70          0.046373  -0.033674
     71          0.083279  -0.027956
     72          0.444356  -0.000000
     73          0.487213  -0.000000
     74          0.489459  -0.000000
     75          0.613403  -0.000000
     76          0.712503  -0.000000
     77          0.766361  -0.000000
     78          0.815904  -0.000000
     79          0.836206  -0.000000
     80          1.010811  -0.000000
     81          1.060595  -0.000000
     82          1.072208  -0.000000
     83          1.116106  -0.000000
     84          1.192139  -0.000000
     85          1.214811  -0.000000
     86          1.258563  -0.000000
     87          1.285710  -0.000000
     88          1.326970  -0.000000
     89          1.353865  -0.000000
     90          1.606853  -0.000000
     91          1.627156  -0.000000
     92          1.667412  -0.000000
     93          1.740851  -0.000000
     94          1.848614  -0.000000
     95          1.902079  -0.000000
     96          2.001992   0.000000
     97          2.714148   0.000000
     98          2.804145   0.000000
     99          3.251965   0.000000
    100          3.262050   0.000000
    101          3.283316   0.000000
    102          3.760302   0.000000
    103          3.817024   0.000000
    104          3.912394   0.000000
    105          4.120250   0.000000
    106          4.250642   0.000000
    107          4.483473   0.000000
    108          4.639353   0.000000
    109          4.657026   0.000000
    110          4.703747   0.000000
    111          4.827927   0.000000
    112          4.848541   0.000000
    113          4.877507   0.000000
    114          4.916465   0.000000
    115          4.944324   0.000000
    116          5.018525   0.000000
    117          5.021403   0.000000
    118          5.306534   0.000000
    119          5.325609   0.000000
    120          5.488223   0.000000
    121          5.493099   0.000000
    122          5.574500   0.000000
    123          5.622042   0.000000
    124          6.153184   0.000000
    125          6.268816   0.000000
    126          6.292394   0.000000
    127          6.524067   0.000000
    128          6.561507   0.000000
 
  0.1276756E-14  0.2500000E+00  0.1276756E-14  0.8333333E-01
      1        -57.361186   1.000000
      2        -57.360966   1.000000
      3        -57.190900   1.000000
      4        -57.190411   1.000000
      5        -57.058102   1.000000
      6        -57.057848   1.000000
      7        -56.742533   1.000000
      8        -56.739252   1.000000
      9        -33.778129   1.000000
     10        -33.775911   1.000000
     11        -33.656915   1.000000
     12        -33.652850   1.000000
     13        -33.596748   1.000000
     14        -33.595772   1.000000
     15        -33.521952   1.000000
     16        -33.521081   1.000000
     17        -33.492126   1.000000
     18        -33.481916   1.000000
     19        -33.401890   1.000000
     20        -33.395078   1.000000
     21        -33.297703   1.000000
     22        -33.296230   1.000000
     23        -33.268011   1.000000
     24        -33.267298   1.000000
     25        -33.188939   1.000000
     26        -33.188415   1.000000
     27        -33.075201   1.000000
     28        -33.068320   1.000000
     29        -33.066153   1.000000
     30        -33.022777   1.000000
     31        -32.887779   1.000000
     32        -32.883687   1.000000
     33        -15.331956   1.000000
     34        -15.217811   1.000000
     35        -15.189662   1.000000
     36        -15.134611   1.000000
     37        -15.125404   1.000000
     38         -9.203778   1.000000
     39         -7.304079   1.000000
     40         -6.512947   1.000000
     41         -5.565602   1.000000
     42         -5.106471   1.000000
     43         -4.897903   1.000000
     44         -4.104641   1.000000
     45         -4.077076   1.000000
     46         -3.277578   1.000000
     47         -2.985739   1.000000
     48         -2.899863   1.000000
     49         -2.885165   1.000000
     50         -2.544030   1.000000
     51         -2.482705   1.000000
     52         -2.134522   1.000000
     53         -1.916315   1.000000
     54         -1.837831   1.000000
     55         -1.806689   1.000000
     56         -1.262290   1.000000
     57         -1.112611   1.000000
     58         -0.884394   1.000000
     59         -0.875409   1.000000
     60         -0.702521   1.000000
     61         -0.640410   1.000000
     62         -0.621346   1.000000
     63         -0.584004   1.000000
     64         -0.415195   1.000005
     65         -0.387672   1.000026
     66         -0.216353   1.027509
     67         -0.033218   0.238161
     68          0.029652  -0.020053
     69          0.054902  -0.035421
     70          0.142506  -0.006008
     71          0.370244  -0.000000
     72          0.474526  -0.000000
     73          0.589936  -0.000000
     74          0.590930  -0.000000
     75          0.661280  -0.000000
     76          0.741621  -0.000000
     77          0.793929  -0.000000
     78          0.799288  -0.000000
     79          0.984214  -0.000000
     80          1.154387  -0.000000
     81          1.313735  -0.000000
     82          1.343015  -0.000000
     83          1.391742  -0.000000
     84          1.433605  -0.000000
     85          1.498169  -0.000000
     86          1.525194  -0.000000
     87          1.552938  -0.000000
     88          1.668272  -0.000000
     89          1.670348  -0.000000
     90          1.677775  -0.000000
     91          1.828561  -0.000000
     92          1.975060   0.000000
     93          2.087247   0.000000
     94          2.112892   0.000000
     95          2.124965   0.000000
     96          2.451222   0.000000
     97          2.529796   0.000000
     98          2.868757   0.000000
     99          2.940709   0.000000
    100          2.962917   0.000000
    101          3.037399   0.000000
    102          3.247573   0.000000
    103          3.426230   0.000000
    104          3.772566   0.000000
    105          3.819873   0.000000
    106          3.849323   0.000000
    107          4.143426   0.000000
    108          4.245515   0.000000
    109          4.304273   0.000000
    110          4.458603   0.000000
    111          4.605511   0.000000
    112          4.648662   0.000000
    113          4.954252   0.000000
    114          5.020130   0.000000
    115          5.090390   0.000000
    116          5.149824   0.000000
    117          5.324582   0.000000
    118          5.594857   0.000000
    119          5.639896   0.000000
    120          5.708741   0.000000
    121          5.910703   0.000000
    122          5.912882   0.000000
    123          6.131644   0.000000
    124          6.142107   0.000000
    125          6.247733   0.000000
    126          6.360391   0.000000
    127          6.497205   0.000000
    128          6.634419   0.000000
 
  0.1666667E+00  0.2500000E+00  0.1276756E-14  0.1666667E+00
      1        -57.360747   1.000000
      2        -57.360528   1.000000
      3        -57.191359   1.000000
      4        -57.190867   1.000000
      5        -57.057905   1.000000
      6        -57.057653   1.000000
      7        -56.742748   1.000000
      8        -56.739464   1.000000
      9        -33.777788   1.000000
     10        -33.775574   1.000000
     11        -33.656348   1.000000
     12        -33.652307   1.000000
     13        -33.597408   1.000000
     14        -33.596427   1.000000
     15        -33.504260   1.000000
     16        -33.502852   1.000000
     17        -33.490993   1.000000
     18        -33.481361   1.000000
     19        -33.402136   1.000000
     20        -33.395341   1.000000
     21        -33.285455   1.000000
     22        -33.284121   1.000000
     23        -33.267694   1.000000
     24        -33.266989   1.000000
     25        -33.208654   1.000000
     26        -33.208070   1.000000
     27        -33.075412   1.000000
     28        -33.068627   1.000000
     29        -33.066080   1.000000
     30        -33.022631   1.000000
     31        -32.900771   1.000000
     32        -32.896470   1.000000
     33        -15.332151   1.000000
     34        -15.217639   1.000000
     35        -15.189379   1.000000
     36        -15.134609   1.000000
     37        -15.125492   1.000000
     38         -9.116078   1.000000
     39         -7.202466   1.000000
     40         -6.416073   1.000000
     41         -5.990536   1.000000
     42         -5.458976   1.000000
     43         -4.752440   1.000000
     44         -4.085371   1.000000
     45         -3.860646   1.000000
     46         -3.820759   1.000000
     47         -3.201067   1.000000
     48         -2.849867   1.000000
     49         -2.564918   1.000000
     50         -2.333898   1.000000
     51         -2.085856   1.000000
     52         -2.052611   1.000000
     53         -1.844250   1.000000
     54         -1.746999   1.000000
     55         -1.568073   1.000000
     56         -1.217213   1.000000
     57         -1.047114   1.000000
     58         -0.923602   1.000000
     59         -0.918204   1.000000
     60         -0.800008   1.000000
     61         -0.728691   1.000000
     62         -0.543157   1.000000
     63         -0.520834   1.000000
     64         -0.346121   1.000272
     65         -0.305011   1.001868
     66         -0.215637   1.027829
     67         -0.075829   0.582447
     68          0.020908  -0.005739
     69          0.043058  -0.032172
     70          0.130990  -0.008791
     71          0.287129  -0.000004
     72          0.442669  -0.000000
     73          0.555711  -0.000000
     74          0.597713  -0.000000
     75          0.672934  -0.000000
     76          0.745569  -0.000000
     77          0.807745  -0.000000
     78          0.975410  -0.000000
     79          1.000835  -0.000000
     80          1.072826  -0.000000
     81          1.149233  -0.000000
     82          1.218466  -0.000000
     83          1.294549  -0.000000
     84          1.314719  -0.000000
     85          1.420231  -0.000000
     86          1.472651  -0.000000
     87          1.578132  -0.000000
     88          1.600331  -0.000000
     89          1.698911  -0.000000
     90          1.766350  -0.000000
     91          1.878243  -0.000000
     92          1.973885   0.000000
     93          2.051665   0.000000
     94          2.062460   0.000000
     95          2.174920   0.000000
     96          2.234745   0.000000
     97          2.596579   0.000000
     98          2.659120   0.000000
     99          2.815918   0.000000
    100          3.002021   0.000000
    101          3.121764   0.000000
    102          3.325349   0.000000
    103          3.515560   0.000000
    104          3.748655   0.000000
    105          3.904213   0.000000
    106          3.944063   0.000000
    107          4.044241   0.000000
    108          4.223771   0.000000
    109          4.293119   0.000000
    110          4.349702   0.000000
    111          4.645695   0.000000
    112          4.766836   0.000000
    113          4.902263   0.000000
    114          5.189082   0.000000
    115          5.255952   0.000000
    116          5.289445   0.000000
    117          5.440531   0.000000
    118          5.615468   0.000000
    119          5.750686   0.000000
    120          5.776758   0.000000
    121          5.805620   0.000000
    122          5.969124   0.000000
    123          6.140448   0.000000
    124          6.246429   0.000000
    125          6.269972   0.000000
    126          6.375070   0.000000
    127          6.589803   0.000000
    128          6.604564   0.000000
 
  0.3333333E+00  0.2500000E+00  0.1276756E-14  0.1666667E+00
      1        -57.359863   1.000000
      2        -57.359644   1.000000
      3        -57.192282   1.000000
      4        -57.191786   1.000000
      5        -57.057513   1.000000
      6        -57.057261   1.000000
      7        -56.743177   1.000000
      8        -56.739889   1.000000
      9        -33.777096   1.000000
     10        -33.774887   1.000000
     11        -33.655125   1.000000
     12        -33.651135   1.000000
     13        -33.598749   1.000000
     14        -33.597753   1.000000
     15        -33.495079   1.000000
     16        -33.485363   1.000000
     17        -33.451373   1.000000
     18        -33.450165   1.000000
     19        -33.402399   1.000000
     20        -33.395648   1.000000
     21        -33.267568   1.000000
     22        -33.266834   1.000000
     23        -33.265151   1.000000
     24        -33.264338   1.000000
     25        -33.252221   1.000000