       N       E                     dE             d eps       ncg     rms          rms(c)
DAV:   1     0.961150223709E+03    0.96115E+03   -0.65110E+04  3072   0.911E+02
DAV:   2     0.482001407809E+01   -0.95633E+03   -0.90842E+03  3520   0.264E+02
DAV:   3    -0.100890542182E+03   -0.10571E+03   -0.10367E+03  6144   0.719E+01
DAV:   4    -0.107039911598E+03   -0.61494E+01   -0.61441E+01  3712   0.176E+01
DAV:   5    -0.107460124856E+03   -0.42021E+00   -0.42017E+00  5376   0.359E+00    0.259E+01
DAV:   6    -0.134840820710E+03   -0.27381E+02   -0.17485E+02  5248   0.340E+01    0.652E+01
DAV:   7    -0.101080096751E+03    0.33761E+02   -0.22169E+02  4544   0.324E+01    0.331E+01
DAV:   8    -0.916717901914E+02    0.94083E+01   -0.56412E+01  4608   0.181E+01    0.157E+01
DAV:   9    -0.884162309995E+02    0.32556E+01   -0.11246E+01  5248   0.857E+00    0.952E+00
DAV:  10    -0.868589916733E+02    0.15572E+01   -0.46408E+00  4352   0.594E+00    0.616E+00
DAV:  11    -0.865644005995E+02    0.29459E+00   -0.26569E+00  4992   0.427E+00    0.531E+00
DAV:  12    -0.861746751718E+02    0.38973E+00   -0.19515E+00  4608   0.369E+00    0.249E+00
DAV:  13    -0.861398550053E+02    0.34820E-01   -0.22574E-01  4416   0.142E+00    0.120E+00
DAV:  14    -0.861340872077E+02    0.57678E-02   -0.44997E-02  4672   0.768E-01    0.730E-01
DAV:  15    -0.861325948371E+02    0.14924E-02   -0.22273E-02  4160   0.423E-01    0.257E-01
DAV:  16    -0.861345152794E+02   -0.19204E-02   -0.59698E-03  4544   0.227E-01    0.205E-01
DAV:  17    -0.861369311432E+02   -0.24159E-02   -0.52506E-03  4224   0.182E-01    0.172E-01
DAV:  18    -0.861373048147E+02   -0.37367E-03   -0.15835E-03  4288   0.105E-01    0.620E-02
DAV:  19    -0.861376360595E+02   -0.33124E-03   -0.20166E-04  4224   0.339E-02    0.338E-02
DAV:  20    -0.861378288328E+02   -0.19277E-03   -0.16648E-04  4160   0.271E-02    0.186E-02
DAV:  21    -0.861381222155E+02   -0.29338E-03   -0.67500E-05  4416   0.127E-02    0.108E-02
DAV:  22    -0.861383576022E+02   -0.23539E-03   -0.16663E-05  4416   0.612E-03    0.716E-03
DAV:  23    -0.861386086933E+02   -0.25109E-03   -0.13646E-05  4288   0.774E-03    0.586E-03
DAV:  24    -0.861387258674E+02   -0.11717E-03   -0.48322E-06  3712   0.485E-03    0.208E-03
DAV:  25    -0.861387987024E+02   -0.72835E-04   -0.30862E-06  3520   0.198E-03    0.102E-03
DAV:  26    -0.861388156548E+02   -0.16952E-04   -0.65668E-07  3456   0.101E-03    0.491E-04
DAV:  27    -0.861388202451E+02   -0.45903E-05   -0.20433E-07  3392   0.527E-04
   1 F= -.86138820E+02 E0= -.86140988E+02  d E =0.650177E-02
