 vasp.6.5.0 16Dec24 (build Apr 17 2025 17:55:45) complex                        
  
 executed on             LinuxIFC date 2025.06.10  15:38:07
 running   64 mpi-ranks, on    1 nodes
 distrk:  each k-point on   64 cores,    1 groups
 distr:  one band on NCORE=   1 cores,   64 groups


--------------------------------------------------------------------------------------------------------


 INCAR:
   ISTART = 0
   ICHARG = 2
   PREC = N
   LREAL = .FALSE.
   ENCUT = 520
   ALGO = N
   NELM = 500
   EDIFF = 1E-05
   IBRION = -1
   ISIF = 3
   NSW = 0
   EDIFFG = -0.01
   ISMEAR = 1
   SIGMA = 0.1
   LVHAR = .TRUE.
   LVTOT = .TRUE.

 POTCAR:    PAW_PBE Ti_sv 26Sep2005               
 POTCAR:    PAW_PBE Al 04Jan2001                  
 POTCAR:    PAW_PBE Ga_d 06Jul2010                
 -----------------------------------------------------------------------------
|                                                                             |
|           W    W    AA    RRRRR   N    N  II  N    N   GGGG   !!!           |
|           W    W   A  A   R    R  NN   N  II  NN   N  G    G  !!!           |
|           W    W  A    A  R    R  N N  N  II  N N  N  G       !!!           |
|           W WW W  AAAAAA  RRRRR   N  N N  II  N  N N  G  GGG   !            |
|           WW  WW  A    A  R   R   N   NN  II  N   NN  G    G                |
|           W    W  A    A  R    R  N    N  II  N    N   GGGG   !!!           |
|                                                                             |
|     For optimal performance we recommend to set                             |
|       NCORE = 2 up to number-of-cores-per-socket                            |
|     NCORE specifies how many cores store one orbital (NPAR=cpu/NCORE).      |
|     This setting can greatly improve the performance of VASP for DFT.       |
|     The default, NCORE=1 might be grossly inefficient on modern             |
|     multi-core architectures or massively parallel machines. Do your        |
|     own testing! More info at https://www.vasp.at/wiki/index.php/NCORE      |
|     Unfortunately you need to use the default for GW and RPA                |
|     calculations (for HF NCORE is supported but not extensively tested      |
|     yet).                                                                   |
|                                                                             |
 -----------------------------------------------------------------------------

 POTCAR:    PAW_PBE Ti_sv 26Sep2005               
   SHA256 =  4d747badb5a5ea28d858fbac70885b3f8929d6fd9e5b0dbe1ecb9878dc164da1 Ti_sv/POTCAR          
   COPYR  = (c) Copyright 26Sep2005 Georg Kresse                                                    
   COPYR  = This file is part of the software VASP. Any use, copying, and all other rights are regul
   COPYR  = If you do not have a valid VASP license, you may not use, copy or distribute this file. 
   VRHFIN =Ti: 3p4s3d                                                                               
   LEXCH  = PE                                                                                      
   EATOM  =  1588.0892 eV,  116.7213 Ry                                                             
                                                                                                    
   TITEL  = PAW_PBE Ti_sv 26Sep2005                                                                 
   LULTRA =        F    use ultrasoft PP ?                                                          
   IUNSCR =        1    unscreen: 0-lin 1-nonlin 2-no                                               
   RPACOR =    2.000    partial core radius                                                         
   POMASS =   47.880; ZVAL   =   12.000    mass and valenz                                          
   RCORE  =    2.300    outmost cutoff radius                                                       
   RWIGS  =    2.300; RWIGS  =    1.217    wigner-seitz radius (au A)                               
   ENMAX  =  274.610; ENMIN  =  205.957 eV                                                          
   ICORE  =        3    local potential                                                             
   LCOR   =        T    correct aug charges                                                         
   LPAW   =        T    paw PP                                                                      
   EAUG   =  482.848                                                                                
   RMAX   =    2.348    core radius for proj-oper                                                   
   RAUG   =    1.300    factor for augmentation sphere                                              
   RDEP   =    2.381    radius for radial grids                                                     
   RDEPT  =    1.930    core radius for aug-charge                                                  
                                                                                                    
   Atomic configuration                                                                             
    8 entries                                                                                       
     n  l   j            E        occ.                                                              
     1  0  0.50     -4865.3608   2.0000                                                             
     2  0  0.50      -533.1368   2.0000                                                             
     2  1  1.50      -440.5031   6.0000                                                             
     3  0  0.50       -59.3186   2.0000                                                             
     4  0  0.50        -3.7291   1.0000                                                             
     3  1  1.50       -35.7012   6.0000                                                             
     3  2  2.50        -1.9157   3.0000                                                             
     4  3  2.50        -1.3606   0.0000                                                             
   Description                                                                                      
     l       E           TYP  RCUT    TYP  RCUT                                                     
     0    -59.3185931     23  1.800                                                                 
     0     -3.7290822     23  2.300                                                                 
     1    -35.7012045     23  2.300                                                                 
     1     -1.3605826     23  2.300                                                                 
     2     -1.9156920     23  2.300                                                                 
     2     -0.0236318     23  2.300                                                                 
     3     -1.3605826     23  2.300                                                                 
  local pseudopotential read in
  partial core-charges read in
  partial kinetic energy density read in
  atomic valenz-charges read in
  non local Contribution for L=           0  read in
    real space projection operators read in
  non local Contribution for L=           0  read in
    real space projection operators read in
  non local Contribution for L=           1  read in
    real space projection operators read in
  non local Contribution for L=           1  read in
    real space projection operators read in
  non local Contribution for L=           2  read in
    real space projection operators read in
  non local Contribution for L=           2  read in
    real space projection operators read in
    PAW grid and wavefunctions read in
 
   number of l-projection  operators is LMAX  =           6
   number of lm-projection operators is LMMAX =          18
 
 POTCAR:    PAW_PBE Al 04Jan2001                  
   SHA256 =  17880443556af62b473fe41b62a467bd001ad55d2cabe504a3f22e34d4e9db96 Al/POTCAR             
   COPYR  = (c) Copyright 04Jan2001 Georg Kresse                                                    
   COPYR  = This file is part of the software VASP. Any use, copying, and all other rights are regul
   COPYR  = If you do not have a valid VASP license, you may not use, copy or distribute this file. 
   VRHFIN =Al: s2p1                                                                                 
   LEXCH  = PE                                                                                      
   EATOM  =    53.5387 eV,    3.9350 Ry                                                             
                                                                                                    
   TITEL  = PAW_PBE Al 04Jan2001                                                                    
   LULTRA =        F    use ultrasoft PP ?                                                          
   IUNSCR =        1    unscreen: 0-lin 1-nonlin 2-no                                               
   RPACOR =    1.500    partial core radius                                                         
   POMASS =   26.981; ZVAL   =    3.000    mass and valenz                                          
   RCORE  =    1.900    outmost cutoff radius                                                       
   RWIGS  =    2.650; RWIGS  =    1.402    wigner-seitz radius (au A)                               
   ENMAX  =  240.300; ENMIN  =  180.225 eV                                                          
   ICORE  =        2    local potential                                                             
   LCOR   =        T    correct aug charges                                                         
   LPAW   =        T    paw PP                                                                      
   EAUG   =  291.052                                                                                
   DEXC   =    0.000                                                                                
   RMAX   =    1.939    core radius for proj-oper                                                   
   RAUG   =    1.300    factor for augmentation sphere                                              
   RDEP   =    1.966    radius for radial grids                                                     
   RDEPT  =    1.856    core radius for aug-charge                                                  
                                                                                                    
   Atomic configuration                                                                             
    6 entries                                                                                       
     n  l   j            E        occ.                                                              
     1  0  0.50     -1511.1048   2.0000                                                             
     2  0  0.50      -108.1629   2.0000                                                             
     2  1  1.50       -69.6402   6.0000                                                             
     3  0  0.50        -7.7528   2.0000                                                             
     3  1  1.50        -2.7121   1.0000                                                             
     3  2  2.50        -2.7212   0.0000                                                             
   Description                                                                                      
     l       E           TYP  RCUT    TYP  RCUT                                                     
     0     -7.7528455     23  1.900                                                                 
     0     -3.3096929     23  1.900                                                                 
     1     -2.7120682     23  1.900                                                                 
     1     13.6058260     23  1.900                                                                 
     2     -2.7211652      7  1.900                                                                 
  local pseudopotential read in
  partial core-charges read in
  partial kinetic energy density read in
  atomic valenz-charges read in
  non local Contribution for L=           0  read in
    real space projection operators read in
  non local Contribution for L=           0  read in
    real space projection operators read in
  non local Contribution for L=           1  read in
    real space projection operators read in
  non local Contribution for L=           1  read in
    real space projection operators read in
    PAW grid and wavefunctions read in
 
   number of l-projection  operators is LMAX  =           4
   number of lm-projection operators is LMMAX =           8
 
 POTCAR:    PAW_PBE Ga_d 06Jul2010                
   SHA256 =  a60ddf36e14f00ea098d9e3914b3745f1b7105e68786148f49ae384e44b4226c Ga_d/POTCAR           
   COPYR  = (c) Copyright 06Jul2010 Georg Kresse                                                    
   COPYR  = This file is part of the software VASP. Any use, copying, and all other rights are regul
   COPYR  = If you do not have a valid VASP license, you may not use, copy or distribute this file. 
   VRHFIN =Ga: s2p1                                                                                 
   LEXCH  = PE                                                                                      
   EATOM  =  2148.8298 eV,  157.9345 Ry                                                             
                                                                                                    
   TITEL  = PAW_PBE Ga_d 06Jul2010                                                                  
   LULTRA =        F    use ultrasoft PP ?                                                          
   IUNSCR =        1    unscreen: 0-lin 1-nonlin 2-no                                               
   RPACOR =    1.700    partial core radius                                                         
   POMASS =   69.723; ZVAL   =   13.000    mass and valenz                                          
   RCORE  =    2.300    outmost cutoff radius                                                       
   RWIGS  =    2.300; RWIGS  =    1.217    wigner-seitz radius (au A)                               
   ENMAX  =  282.691; ENMIN  =  212.018 eV                                                          
   ICORE  =        3    local potential                                                             
   LCOR   =        T    correct aug charges                                                         
   LPAW   =        T    paw PP                                                                      
   EAUG   =  490.690                                                                                
   DEXC   =    0.000                                                                                
   RMAX   =    2.341    core radius for proj-oper                                                   
   RAUG   =    1.300    factor for augmentation sphere                                              
   RDEP   =    2.413    radius for radial grids                                                     
   RDEPT  =    1.856    core radius for aug-charge                                                  
                                                                                                    
   Atomic configuration                                                                             
    9 entries                                                                                       
     n  l   j            E        occ.                                                              
     1  0  0.50    -10228.7831   2.0000                                                             
     2  0  0.50     -1262.1604   2.0000                                                             
     2  1  1.50     -1098.6333   6.0000                                                             
     3  0  0.50      -148.1110   2.0000                                                             
     3  1  1.50       -98.8436   6.0000                                                             
     3  2  2.50       -19.1549  10.0000                                                             
     4  0  0.50        -8.9483   2.0000                                                             
     4  1  0.50        -2.5791   1.0000                                                             
     4  3  2.50        -2.7416   0.0000                                                             
   Description                                                                                      
     l       E           TYP  RCUT    TYP  RCUT                                                     
     2    -19.1549037     23  2.300                                                                 
     2     -5.4423304     23  2.300                                                                 
     0     -8.9483111     23  2.300                                                                 
     0     68.0291300     23  2.300                                                                 
     1     -2.5790802     23  2.100                                                                 
     1     81.6349560     23  2.300                                                                 
     3      6.8029130     23  2.300                                                                 
  local pseudopotential read in
  partial core-charges read in
  partial kinetic energy density read in
  atomic valenz-charges read in
  non local Contribution for L=           2  read in
    real space projection operators read in
  non local Contribution for L=           2  read in
    real space projection operators read in
  non local Contribution for L=           0  read in
    real space projection operators read in
  non local Contribution for L=           0  read in
    real space projection operators read in
  non local Contribution for L=           1  read in
    real space projection operators read in
  non local Contribution for L=           1  read in
    real space projection operators read in
    PAW grid and wavefunctions read in
 
   number of l-projection  operators is LMAX  =           6
   number of lm-projection operators is LMMAX =          18
 
 -----------------------------------------------------------------------------
|                                                                             |
|               ----> ADVICE to this user running VASP <----                  |
|                                                                             |
|     You have a (more or less) 'large supercell' and for larger cells it     |
|     might be more efficient to use real-space projection operators.         |
|     Therefore, try LREAL= Auto in the INCAR file.                           |
|     Mind: For very accurate calculation, you might also keep the            |
|     reciprocal projection scheme (i.e. LREAL=.FALSE.).                      |
|                                                                             |
 -----------------------------------------------------------------------------

  PAW_PBE Ti_sv 26Sep2005               :
 energy of atom  1       EATOM=-1588.0892
 kinetic energy error for atom=    0.0042 (will be added to EATOM!!)
  PAW_PBE Al 04Jan2001                  :
 energy of atom  2       EATOM=  -53.5387
 kinetic energy error for atom=    0.0002 (will be added to EATOM!!)
  PAW_PBE Ga_d 06Jul2010                :
 energy of atom  3       EATOM=-2148.8298
 kinetic energy error for atom=    0.0026 (will be added to EATOM!!)
 
 
 POSCAR: Generated by VASPKIT code
  positions in direct lattice
  No initial velocities read in


 exchange-correlation table for PE
   RHO(1)=    0.500       N(1)  =     2000
   RHO(2)=  100.500       N(2)  =     4000
 


--------------------------------------------------------------------------------------------------------


 ion  position               nearest neighbor table
   1  0.000  0.019  0.383-  11 2.78   9 2.78  10 2.85  12 2.85
   2  0.000  0.481  0.383-   9 2.78  11 2.78  10 2.85  12 2.85
   3  0.500  0.996  0.383-  10 2.92  12 2.92   9 2.96  11 2.96
   4  0.500  0.504  0.383-  10 2.92  12 2.92  11 2.96   9 2.96
   5  0.000  0.996  0.532-  10 2.92  14 2.92  12 2.92  16 2.92  13 2.96  11 2.96  15 2.96   9 2.96

   6  0.000  0.504  0.532-  12 2.92  16 2.92  14 2.92  10 2.92  13 2.96  11 2.96  15 2.96   9 2.96

   7  0.500  0.046  0.532-  17 2.46  11 2.72  13 2.72  15 2.72   9 2.72
   8  0.500  0.454  0.532-  17 2.46  11 2.72  13 2.72  15 2.72   9 2.72
   9  0.243  0.250  0.455-   7 2.72   8 2.72   2 2.78   1 2.78  11 2.84   3 2.96   4 2.96   6 2.96
                             5 2.96  11 3.01  13 3.01
  10  0.214  0.750  0.446-  17 2.37  12 2.51   1 2.85   2 2.85   5 2.92   6 2.92   3 2.92   4 2.92
                            12 3.35  14 3.35
  11  0.757  0.250  0.455-   7 2.72   8 2.72   1 2.78   2 2.78   9 2.84   4 2.96   3 2.96   6 2.96
                             5 2.96   9 3.01  15 3.01
  12  0.786  0.750  0.446-  17 2.37  10 2.51   1 2.85   2 2.85   6 2.92   5 2.92   3 2.92   4 2.92
                            10 3.35  16 3.35
  13  0.243  0.250  0.609-   7 2.72   8 2.72  15 2.84   6 2.96   5 2.96  15 3.01   9 3.01
  14  0.214  0.750  0.617-  17 2.37  16 2.51   5 2.92   6 2.92  16 3.35  10 3.35
  15  0.757  0.250  0.609-   7 2.72   8 2.72  13 2.84   6 2.96   5 2.96  13 3.01  11 3.01
  16  0.786  0.750  0.617-  17 2.37  14 2.51   6 2.92   5 2.92  14 3.35  12 3.35
  17  0.500  0.750  0.532-  10 2.37  12 2.37  14 2.37  16 2.37   7 2.46   8 2.46
 
  LATTYP: Found a simple orthorhombic cell.
 ALAT       =     5.8584555020
 B/A-ratio  =     1.4168024267
 C/A-ratio  =     3.3464849690
  
  Lattice vectors:
  
 A1 = (   5.8584555020,   0.0000000000,   0.0000000000)
 A2 = (   0.0000000000,   8.3002739718,   0.0000000000)
 A3 = (   0.0000000000,   0.0000000000,  19.6052332789)


Analysis of symmetry for initial positions (statically):
=====================================================================
 Subroutine PRICEL returns:
 Original cell was already a primitive cell.
 

 Routine SETGRP: Setting up the symmetry group for a 
 simple orthorhombic supercell.


 Subroutine GETGRP returns: Found  4 space group operations
 (whereof  2 operations were pure point group operations)
 out of a pool of  8 trial point group operations.


The static configuration has the point symmetry C_1h.
 The point group associated with its full space group is C_2v.


Analysis of symmetry for dynamics (positions and initial velocities):
=====================================================================
 Subroutine PRICEL returns:
 Original cell was already a primitive cell.
 

 Routine SETGRP: Setting up the symmetry group for a 
 simple orthorhombic supercell.


 Subroutine GETGRP returns: Found  4 space group operations
 (whereof  2 operations were pure point group operations)
 out of a pool of  8 trial point group operations.


The dynamic configuration has the point symmetry C_1h.
 The point group associated with its full space group is C_2v.


 Subroutine INISYM returns: Found  4 space group operations
 (whereof  2 operations are pure point group operations),
 and found     1 'primitive' translations


----------------------------------------------------------------------------------------

                                     Primitive cell                                     

  volume of cell :     953.3395

  direct lattice vectors                    reciprocal lattice vectors
     5.858455502  0.000000000  0.000000000     0.170693453 -0.000000000 -0.000000000
     0.000000000  8.300273972  0.000000000     0.000000000  0.120477951 -0.000000000
     0.000000000  0.000000000 19.605233279     0.000000000  0.000000000  0.051006789

  length of vectors
     5.858455502  8.300273972 19.605233279     0.170693453  0.120477951  0.051006789

  position of ions in fractional coordinates (direct lattice)
     1.000000000  0.018673676  0.382550919
     1.000000000  0.481326324  0.382550919
     0.500000000  0.995507135  0.382550919
     0.500000000  0.504492865  0.382550919
     1.000000000  0.995507135  0.531961421
     1.000000000  0.504492865  0.531961421
     0.500000000  0.046382817  0.531961421
     0.500000000  0.453617183  0.531961421
     0.242685310  0.250000000  0.455070387
     0.213916829  0.750000000  0.446473760
     0.757314690  0.250000000  0.455070387
     0.786083171  0.750000000  0.446473760
     0.242685310  0.250000000  0.608852455
     0.213916829  0.750000000  0.617449081
     0.757314690  0.250000000  0.608852455
     0.786083171  0.750000000  0.617449081
     0.500000000  0.750000000  0.531961421

  ion indices of the primitive-cell ions
   primitive index   ion index
                 1           1
                 2           2
                 3           3
                 4           4
                 5           5
                 6           6
                 7           7
                 8           8
                 9           9
                10          10
                11          11
                12          12
                13          13
                14          14
                15          15
                16          16
                17          17

----------------------------------------------------------------------------------------

 
 
 KPOINTS: K-Spacing Value to Generate K-Mesh: 0.03

Automatic generation of k-mesh.
 Grid dimensions read from file:
 generate k-points for:    6    4    1

 Generating k-lattice:

  Cartesian coordinates                     Fractional coordinates (reciprocal lattice)
     0.028448909 -0.000000000 -0.000000000     0.166666667 -0.000000000  0.000000000
     0.000000000  0.030119488 -0.000000000     0.000000000  0.250000000  0.000000000
     0.000000000  0.000000000  0.051006789     0.000000000  0.000000000  1.000000000

  Length of vectors
     0.028448909  0.030119488  0.051006789

  Shift w.r.t. Gamma in fractional coordinates (k-lattice)
     0.000000000  0.000000000  0.000000000

 
 Subroutine IBZKPT returns following result:
 ===========================================
 
 Found     12 irreducible k-points:
 
 Following reciprocal coordinates:
            Coordinates               Weight
  0.000000  0.000000  0.000000      1.000000
  0.166667  0.000000  0.000000      2.000000
  0.333333  0.000000  0.000000      2.000000
  0.500000  0.000000  0.000000      1.000000
  0.000000  0.250000  0.000000      2.000000
  0.166667  0.250000  0.000000      4.000000
  0.333333  0.250000  0.000000      4.000000
  0.500000  0.250000  0.000000      2.000000
  0.000000  0.500000  0.000000      1.000000
  0.166667  0.500000  0.000000      2.000000
  0.333333  0.500000  0.000000      2.000000
  0.500000  0.500000  0.000000      1.000000
 
 Following cartesian coordinates:
            Coordinates               Weight
  0.000000  0.000000  0.000000      1.000000
  0.028449  0.000000  0.000000      2.000000
  0.056898  0.000000  0.000000      2.000000
  0.085347  0.000000  0.000000      1.000000
  0.000000  0.030119  0.000000      2.000000
  0.028449  0.030119  0.000000      4.000000
  0.056898  0.030119  0.000000      4.000000
  0.085347  0.030119  0.000000      2.000000
  0.000000  0.060239  0.000000      1.000000
  0.028449  0.060239  0.000000      2.000000
  0.056898  0.060239  0.000000      2.000000
  0.085347  0.060239  0.000000      1.000000
 


--------------------------------------------------------------------------------------------------------




 Dimension of arrays:
   k-points           NKPTS =     12   k-points in BZ     NKDIM =     12   number of bands    NBANDS=    128
   number of dos      NEDOS =    301   number of ions     NIONS =     17
   non local maximal  LDIM  =      6   non local SUM 2l+1 LMDIM =     18
   total plane-waves  NPLWV = 193536
   max r-space proj   IRMAX =      1   max aug-charges    IRDMAX=   8100
   dimension x,y,z NGX =    36 NGY =   48 NGZ =  112
   dimension x,y,z NGXF=    72 NGYF=   96 NGZF=  224
   support grid    NGXF=    72 NGYF=   96 NGZF=  224
   ions per type =               8   8   1
   NGX,Y,Z   is equivalent  to a cutoff of  10.22,  9.61,  9.50 a.u.
   NGXF,Y,Z  is equivalent  to a cutoff of  20.43, 19.23, 18.99 a.u.

 SYSTEM =  unknown system                          
 POSCAR =  Generated by VASPKIT code               

 Startparameter for this run:
   NWRITE =      2    write-flag & timer
   PREC   = n         normal or accurate (medium, high low for compatibility)
   ISTART =      0    job   : 0-new  1-cont  2-samecut
   ICHARG =      2    charge: 1-file 2-atom 10-const
   ISPIN  =      1    spin polarized calculation?
   LNONCOLLINEAR =      F non collinear calculations
   LSORBIT =      F    spin-orbit coupling
   INIWAV =      1    electr: 0-lowe 1-rand  2-diag
   LASPH  =      F    aspherical Exc in radial PAW
 Electronic Relaxation 1
   ENCUT  =  520.0 eV  38.22 Ry    6.18 a.u.  10.89 15.43 36.45*2*pi/ulx,y,z
   ENINI  =  520.0     initial cutoff
   ENAUG  =  490.7 eV  augmentation charge cutoff
   NELM   =    500;   NELMIN=  2; NELMDL= -5     # of ELM steps 
   EDIFF  = 0.1E-04   stopping-criterion for ELM
   LREAL  =      F    real-space projection
   NLSPLINE    = F    spline interpolate recip. space projectors
   LCOMPAT=      F    compatible to vasp.4.4
   GGA_COMPAT  = T    GGA compatible to vasp.4.4-vasp.4.6
   LMAXPAW     = -100 max onsite density
   LMAXMIX     =    2 max onsite mixed and CHGCAR
   VOSKOWN=      0    Vosko Wilk Nusair interpolation
   ROPT   =    0.00000   0.00000   0.00000
 Ionic relaxation
   EDIFFG = -.1E-01   stopping-criterion for IOM
   NSW    =      0    number of steps for IOM
   NBLOCK =      1;   KBLOCK =      1    inner block; outer block 
   IBRION =     -1    ionic relax: 0-MD 1-quasi-New 2-CG
   NFREE  =      0    steps in history (QN), initial steepest desc. (CG)
   ISIF   =      3    stress and relaxation
   IWAVPR =     10    prediction:  0-non 1-charg 2-wave 3-comb
   ISYM   =      2    0-nonsym 1-usesym 2-fastsym
   LCORR  =      T    Harris-Foulkes like correction to forces

   POTIM  = 0.5000    time-step for ionic-motion
   TEIN   =    0.0    initial temperature
   TEBEG  =    0.0;   TEEND  =   0.0 temperature during run
   SMASS  =  -3.00    Nose mass-parameter (am)
   estimated Nose-frequenzy (Omega)   =  0.10E-29 period in steps = 0.13E+47 mass=  -0.784E-27a.u.
   SCALEE = 1.0000    scale energy and forces
   NPACO  =    256;   APACO  = 10.0  distance and # of slots for P.C.
   PSTRESS=    0.0 pullay stress

  Mass of Ions in am
   POMASS =  47.88 26.98 69.72
  Ionic Valenz
   ZVAL   =  12.00  3.00 13.00
  Atomic Wigner-Seitz radii
   RWIGS  =  -1.00 -1.00 -1.00
  virtual crystal weights 
   VCA    =   1.00  1.00  1.00
   NELECT =     133.0000    total number of electrons
   NUPDOWN=      -1.0000    fix difference up-down

 DOS related values:
   EMIN   =  10.00;   EMAX   =-10.00  energy-range for DOS
   EFERMI =   0.00;   METHOD = LEGACY      
   ISMEAR =     1;   SIGMA  =   0.10  broadening in eV -4-tet -1-fermi 0-gaus
   EFERMI_NEDOS =   21; number of points for ismear=-14 and -15

 Electronic relaxation 2 (details)
   IALGO  =     38    algorithm
   LDIAG  =      T    sub-space diagonalisation (order eigenvalues)
   LSUBROT=      F    optimize rotation matrix (better conditioning)
   TURBO    =      0    0=normal 1=particle mesh
   IRESTART =      0    0=no restart 2=restart with 2 vectors
   NREBOOT  =      0    no. of reboots
   NMIN     =      0    reboot dimension
   EREF     =   0.00    reference energy to select bands
   IMIX   =      4    mixing-type and parameters
     AMIX     =   0.40;   BMIX     =  1.00
     AMIX_MAG =   1.60;   BMIX_MAG =  1.00
     AMIN     =   0.10
     WC   =   100.;   INIMIX=   1;  MIXPRE=   1;  MAXMIX= -45

 Intra band minimization:
   WEIMIN = 0.0000     energy-eigenvalue tresh-hold
   EBREAK =  0.20E-07  absolut break condition
   DEPER  =   0.30     relativ break condition  

   TIME   =   0.40     timestep for ELM

  volume/ion in A,a.u.               =      56.08       378.44
  Fermi-wavevector in a.u.,A,eV,Ry     =   0.849069  1.604507  9.808681  0.720918
  Thomas-Fermi vector in A             =   1.964832
 
 Write flags
   LWAVE        =      T    write WAVECAR
   LDOWNSAMPLE  =      F    k-point downsampling of WAVECAR
   LCHARG       =      T    write CHGCAR
   LVTOT        =      F    write LOCPOT, total local potential
   LVHAR        =      T    write LOCPOT, Hartree potential only
   WRT_POTENTIAL=  hartree ionic  ! write potential to hdf5 file
   LELF         =      F    write electronic localiz. function (ELF)
   LORBIT       =      0    0 simple, 1 ext, 2 COOP (PROOUT), +10 PAW based schemes


 Python interface
   PLUGINS active      =      F    recompile with -DPLUGINS to activate
 
 Dipole corrections
   LMONO      =      F    monopole corrections only (constant potential shift)
   LDIPOL     =      F    correct potential (dipole corrections)
   IDIPOL     =      0    1-x, 2-y, 3-z, 4-all directions 
   EPSILON    =  1.0000000 bulk dielectric constant
   LVACPOTAV  =      F  vacuum potentials using an averaging scheme for the charge density
   VACPOTFLAT =  0.1000000 required flatness to determine vacuum potential
 
Coulomb truncation method
  LTRUNCATE          =      F  Coulomb kernel truncation to be used
  IDIMENSIONALITY    =      3  Dimensionality of cutoff (0 molecules / 2 surfaces)
  ISURFACE           =     -1  Direction of surface normal
  LCOARSEN           =      F  Coarsen the charge grid before padding, preferred

 
 Exchange correlation treatment:
   GGA     = PE    functional components
   XC_C    = 1    coefficients multiplying the functional components
   LIBXC   =     F    Libxc                    
   VOSKOWN =     0    Vosko Wilk Nusair interpolation
   LHFCALC =     F    Hartree Fock is set to
   LHFONE  =     F    Hartree Fock one center treatment
   AEXX    =    0.0000 exact exchange contribution

 Parameters of functionals:
   PE:
     No parameter
 
 Van der Waals corrections
   IVDW    =     0    specifies the selected vdW correction

 Linear response parameters
   LEPSILON=     F    determine dielectric tensor
   LRPA    =     F    only Hartree local field effects (RPA)
   LNABLA  =     F    use nabla operator in PAW spheres
   LVEL    =     F    velocity operator in full k-point grid
   CSHIFT  =0.1000    complex shift for real part using Kramers Kronig
   OMEGAMAX=  -1.0    maximum frequency
   DEG_THRESHOLD= 0.2000000E-02 threshold for treating states as degnerate
   RTIME   =   -0.100 relaxation time in fs
  (WPLASMAI=    0.000 imaginary part of plasma frequency in eV, 0.658/RTIME)
   DFIELD  = 0.0000000 0.0000000 0.0000000 field for delta impulse in time
 
  Optional k-point grid parameters
   LKPOINTS_OPT  =     F    use optional k-point grid
   KPOINTS_OPT_MODE=     1    mode for optional k-point grid
 
 Orbital magnetization related:
   ORBITALMAG=     F  switch on orbital magnetization
   LCHIMAG   =     F  perturbation theory with respect to B field
   DQ        =  0.001000  dq finite difference perturbation B field
   LLRAUG    =     F  two centre corrections for induced B field
   LBONE     =     F  B-component reconstruction in AE one-centre
   LVGVCALC  =     T  calculate vGv susceptibility
   LVGVAPPL  =     F  apply vGv susceptibility instead of pGv for G=0

 Random number generation:
   RANDOM_GENERATOR = DEFAULT
   PCG_SEED         = not used


--------------------------------------------------------------------------------------------------------


 Static calculation
 charge density and potential will be updated during run
 non-spin polarized calculation
 Variant of blocked Davidson
 Davidson routine will perform the subspace rotation
 perform sub-space diagonalisation
    after iterative eigenvector-optimisation
 modified Broyden-mixing scheme, WC =      100.0
 initial mixing is a Kerker type mixing with AMIX =  0.4000 and BMIX =      1.0000
 Hartree-type preconditioning will be used
 using additional bands           61
 reciprocal scheme for non local part
 use partial core corrections
 calculate Harris-corrections to forces 
   (improved forces if not selfconsistent)
 use gradient corrections 
 use of overlap-Matrix (Vanderbilt PP)
 Methfessel and Paxton  Order N= 1 SIGMA  =   0.10


--------------------------------------------------------------------------------------------------------


  energy-cutoff  :      520.00
  volume of cell :      953.34
      direct lattice vectors                 reciprocal lattice vectors
     5.858455502  0.000000000  0.000000000     0.170693453 -0.000000000 -0.000000000
     0.000000000  8.300273972  0.000000000     0.000000000  0.120477951 -0.000000000
     0.000000000  0.000000000 19.605233279     0.000000000  0.000000000  0.051006789

  length of vectors
     5.858455502  8.300273972 19.605233279     0.170693453  0.120477951  0.051006789


 
 k-points in units of 2pi/SCALE and weight: K-Spacing Value to Generate K-Mesh: 0.03
   0.00000000  0.00000000  0.00000000       0.042
   0.02844891  0.00000000  0.00000000       0.083
   0.05689782  0.00000000  0.00000000       0.083
   0.08534673  0.00000000  0.00000000       0.042
   0.00000000  0.03011949  0.00000000       0.083
   0.02844891  0.03011949  0.00000000       0.167
   0.05689782  0.03011949  0.00000000       0.167
   0.08534673  0.03011949  0.00000000       0.083
   0.00000000  0.06023898  0.00000000       0.042
   0.02844891  0.06023898  0.00000000       0.083
   0.05689782  0.06023898  0.00000000       0.083
   0.08534673  0.06023898  0.00000000       0.042
 
 k-points in reciprocal lattice and weights: K-Spacing Value to Generate K-Mesh: 0.03
   0.00000000  0.00000000  0.00000000       0.042
   0.16666667  0.00000000  0.00000000       0.083
   0.33333333  0.00000000  0.00000000       0.083
   0.50000000  0.00000000  0.00000000       0.042
   0.00000000  0.25000000  0.00000000       0.083
   0.16666667  0.25000000  0.00000000       0.167
   0.33333333  0.25000000  0.00000000       0.167
   0.50000000  0.25000000  0.00000000       0.083
   0.00000000  0.50000000  0.00000000       0.042
   0.16666667  0.50000000  0.00000000       0.083
   0.33333333  0.50000000  0.00000000       0.083
   0.50000000  0.50000000  0.00000000       0.042
 
 position of ions in fractional coordinates (direct lattice) 
   0.00000000  0.01867368  0.38255092
   0.00000000  0.48132632  0.38255092
   0.50000000  0.99550713  0.38255092
   0.50000000  0.50449287  0.38255092
   0.00000000  0.99550713  0.53196142
   0.00000000  0.50449287  0.53196142
   0.50000000  0.04638282  0.53196142
   0.50000000  0.45361718  0.53196142
   0.24268531  0.25000000  0.45507039
   0.21391683  0.75000000  0.44647376
   0.75731469  0.25000000  0.45507039
   0.78608317  0.75000000  0.44647376
   0.24268531  0.25000000  0.60885246
   0.21391683  0.75000000  0.61744908
   0.75731469  0.25000000  0.60885246
   0.78608317  0.75000000  0.61744908
   0.50000000  0.75000000  0.53196142
 
 position of ions in cartesian coordinates  (Angst):
   0.00000000  0.15499662  7.50000000
   0.00000000  3.99514036  7.50000000
   2.92922775  8.26298196  7.50000000
   2.92922775  4.18742900  7.50000000
   0.00000000  8.26298196 10.42922775
   0.00000000  4.18742900 10.42922775
   2.92922775  0.38499009 10.42922775
   2.92922775  3.76514690 10.42922775
   1.42176109  2.07506849  8.92176109
   1.25322222  6.22520548  8.75322222
   4.43669441  2.07506849  8.92176109
   4.60523328  6.22520548  8.75322222
   1.42176109  2.07506849 11.93669441
   1.25322222  6.22520548 12.10523328
   4.43669441  2.07506849 11.93669441
   4.60523328  6.22520548 12.10523328
   2.92922775  6.22520548 10.42922775
 


--------------------------------------------------------------------------------------------------------


 k-point     1 :   0.0000 0.0000 0.0000  plane waves:   25607
 k-point     2 :   0.1667 0.0000 0.0000  plane waves:   25668
 k-point     3 :   0.3333 0.0000 0.0000  plane waves:   25702
 k-point     4 :   0.5000 0.0000 0.0000  plane waves:   25762
 k-point     5 :   0.0000 0.2500 0.0000  plane waves:   25657
 k-point     6 :   0.1667 0.2500 0.0000  plane waves:   25671
 k-point     7 :   0.3333 0.2500 0.0000  plane waves:   25700
 k-point     8 :   0.5000 0.2500 0.0000  plane waves:   25686
 k-point     9 :   0.0000 0.5000 0.0000  plane waves:   25642
 k-point    10 :   0.1667 0.5000 0.0000  plane waves:   25656
 k-point    11 :   0.3333 0.5000 0.0000  plane waves:   25626
 k-point    12 :   0.5000 0.5000 0.0000  plane waves:   25728

 maximum and minimum number of plane-waves per node :     25762    25607

 maximum number of plane-waves:     25762
 maximum index in each direction: 
   IXMAX=   10   IYMAX=   15   IZMAX=   36
   IXMIN=  -11   IYMIN=  -15   IZMIN=  -36


 serial   3D FFT for wavefunctions
 parallel 3D FFT for charge:
    minimum data exchange during FFTs selected (reduces bandwidth)


 total amount of memory used by VASP MPI-rank0   193609. kBytes
=======================================================================

   base                                    :      30000. kBytes
   nonl-proj                               :     140721. kBytes
   fftplans                                :       2082. kBytes
   grid                                    :      10540. kBytes
   one-center                              :        264. kBytes
   wavefun                                 :      10002. kBytes
 
     INWAV:  cpu time      0.0000: real time      0.0000
 Broyden mixing: mesh for mixing (old mesh)
   NGX = 21   NGY = 31   NGZ = 73
  (NGX  = 72   NGY  = 96   NGZ  =224)
  gives a total of  47523 points

 initial charge density was supplied:
 charge density of overlapping atoms calculated
 number of electron     133.0000000 magnetization 
 keeping initial charge density in first step


--------------------------------------------------------------------------------------------------------


 Maximum index for augmentation-charges          721 (set IRDMAX)


--------------------------------------------------------------------------------------------------------


 First call to EWALD:  gamma=   0.180
 Maximum number of real-space cells   4x   3x   2
 Maximum number of reciprocal cells   2x   2x   5

    FEWALD:  cpu time      0.0011: real time      0.0011


--------------------------------------- Ionic step        1  -------------------------------------------




--------------------------------------- Iteration      1(   1)  ---------------------------------------


    POTLOK:  cpu time      0.0315: real time      0.0315
    SETDIJ:  cpu time      0.0023: real time      0.0023
     EDDAV:  cpu time      3.1036: real time      3.1040
       DOS:  cpu time      0.0004: real time      0.0004
    --------------------------------------------
      LOOP:  cpu time      3.1378: real time      3.1382

 eigenvalue-minimisations  :  3072
 total energy-change (2. order) : 0.9611502E+03  (-0.6510988E+04)
 number of electron     133.0000000 magnetization 
 augmentation part      133.0000000 magnetization 

 Free energy of the ion-electron system (eV)
  ---------------------------------------------------
  alpha Z        PSCENC =       105.70989314
  Ewald energy   TEWEN  =     18413.80910048
  -Hartree energ DENC   =    -31415.92738679
  -exchange      EXHF   =         0.00000000
  -V(xc)+E(xc)   XCENC  =       322.44522481
  PAW double counting   =     12249.27850793   -12170.51614461
  entropy T*S    EENTRO =        -0.00186626
  eigenvalues    EBANDS =     -1825.46186700
  atomic energy  EATOM  =     15281.81476201
  Solvation  Ediel_sol  =         0.00000000
  ---------------------------------------------------
  free energy    TOTEN  =       961.15022371 eV

  energy without entropy =      961.15208997  energy(sigma->0) =      961.15084580


--------------------------------------------------------------------------------------------------------




--------------------------------------- Iteration      1(   2)  ---------------------------------------


     EDDAV:  cpu time      3.5903: real time      3.5903
       DOS:  cpu time      0.0004: real time      0.0004
    --------------------------------------------
      LOOP:  cpu time      3.5906: real time      3.5907

 eigenvalue-minimisations  :  3520
 total energy-change (2. order) :-0.9563302E+03  (-0.9084245E+03)
 number of electron     133.0000000 magnetization 
 augmentation part      133.0000000 magnetization 

 Free energy of the ion-electron system (eV)
  ---------------------------------------------------
  alpha Z        PSCENC =       105.70989314
  Ewald energy   TEWEN  =     18413.80910048
  -Hartree energ DENC   =    -31415.92738679
  -exchange      EXHF   =         0.00000000
  -V(xc)+E(xc)   XCENC  =       322.44522481
  PAW double counting   =     12249.27850793   -12170.51614461
  entropy T*S    EENTRO =         0.00913181
  eigenvalues    EBANDS =     -2781.80307470
  atomic energy  EATOM  =     15281.81476201
  Solvation  Ediel_sol  =         0.00000000
  ---------------------------------------------------
  free energy    TOTEN  =         4.82001408 eV

  energy without entropy =        4.81088226  energy(sigma->0) =        4.81697014


--------------------------------------------------------------------------------------------------------




--------------------------------------- Iteration      1(   3)  ---------------------------------------


     EDDAV:  cpu time      7.3566: real time      7.3569
       DOS:  cpu time      0.0004: real time      0.0004
    --------------------------------------------
      LOOP:  cpu time      7.3570: real time      7.3573

 eigenvalue-minimisations  :  6144
 total energy-change (2. order) :-0.1057106E+03  (-0.1036700E+03)
 number of electron     133.0000000 magnetization 
 augmentation part      133.0000000 magnetization 

 Free energy of the ion-electron system (eV)
  ---------------------------------------------------
  alpha Z        PSCENC =       105.70989314
  Ewald energy   TEWEN  =     18413.80910048
  -Hartree energ DENC   =    -31415.92738679
  -exchange      EXHF   =         0.00000000
  -V(xc)+E(xc)   XCENC  =       322.44522481
  PAW double counting   =     12249.27850793   -12170.51614461
  entropy T*S    EENTRO =         0.00241385
  eigenvalues    EBANDS =     -2887.50691300
  atomic energy  EATOM  =     15281.81476201
  Solvation  Ediel_sol  =         0.00000000
  ---------------------------------------------------
  free energy    TOTEN  =      -100.89054218 eV

  energy without entropy =     -100.89295603  energy(sigma->0) =     -100.89134680


--------------------------------------------------------------------------------------------------------




--------------------------------------- Iteration      1(   4)  ---------------------------------------


     EDDAV:  cpu time      3.8735: real time      3.8736
       DOS:  cpu time      0.0006: real time      0.0006
    --------------------------------------------
      LOOP:  cpu time      3.8741: real time      3.8742

 eigenvalue-minimisations  :  3712
 total energy-change (2. order) :-0.6149369E+01  (-0.6144060E+01)
 number of electron     133.0000000 magnetization 
 augmentation part      133.0000000 magnetization 

 Free energy of the ion-electron system (eV)
  ---------------------------------------------------
  alpha Z        PSCENC =       105.70989314
  Ewald energy   TEWEN  =     18413.80910048
  -Hartree energ DENC   =    -31415.92738679
  -exchange      EXHF   =         0.00000000
  -V(xc)+E(xc)   XCENC  =       322.44522481
  PAW double counting   =     12249.27850793   -12170.51614461
  entropy T*S    EENTRO =         0.00140800
  eigenvalues    EBANDS =     -2893.65527657
  atomic energy  EATOM  =     15281.81476201
  Solvation  Ediel_sol  =         0.00000000
  ---------------------------------------------------
  free energy    TOTEN  =      -107.03991160 eV

  energy without entropy =     -107.04131960  energy(sigma->0) =     -107.04038093


--------------------------------------------------------------------------------------------------------




--------------------------------------- Iteration      1(   5)  ---------------------------------------


     EDDAV:  cpu time      6.2057: real time      6.2064
       DOS:  cpu time      0.0006: real time      0.0006
    CHARGE:  cpu time      0.0663: real time      0.0663
    MIXING:  cpu time      0.0004: real time      0.0004
    --------------------------------------------
      LOOP:  cpu time      6.2730: real time      6.2737

 eigenvalue-minimisations  :  5376
 total energy-change (2. order) :-0.4202133E+00  (-0.4201732E+00)
 number of electron     132.9999877 magnetization 
 augmentation part       35.1870693 magnetization 

 Broyden mixing:
  rms(total) = 0.25945E+01    rms(broyden)= 0.25945E+01
  rms(prec ) = 0.31685E+01
  weight for this iteration     100.00

 Free energy of the ion-electron system (eV)
  ---------------------------------------------------
  alpha Z        PSCENC =       105.70989314
  Ewald energy   TEWEN  =     18413.80910048
  -Hartree energ DENC   =    -31415.92738679
  -exchange      EXHF   =         0.00000000
  -V(xc)+E(xc)   XCENC  =       322.44522481
  PAW double counting   =     12249.27850793   -12170.51614461
  entropy T*S    EENTRO =         0.00138353
  eigenvalues    EBANDS =     -2894.07546535
  atomic energy  EATOM  =     15281.81476201
  Solvation  Ediel_sol  =         0.00000000
  ---------------------------------------------------
  free energy    TOTEN  =      -107.46012486 eV

  energy without entropy =     -107.46150838  energy(sigma->0) =     -107.46058603


--------------------------------------------------------------------------------------------------------




--------------------------------------- Iteration      1(   6)  ---------------------------------------


    POTLOK:  cpu time      0.0245: real time      0.0245
    SETDIJ:  cpu time      0.0020: real time      0.0020
     EDDAV:  cpu time      6.1064: real time      6.1070
       DOS:  cpu time      0.0004: real time      0.0004
    CHARGE:  cpu time      0.0662: real time      0.0662
    MIXING:  cpu time      0.0005: real time      0.0005
    --------------------------------------------
      LOOP:  cpu time      6.1999: real time      6.2006

 eigenvalue-minimisations  :  5248
 total energy-change (2. order) :-0.2738070E+02  (-0.1748526E+02)
 number of electron     132.9999877 magnetization 
 augmentation part       46.3766746 magnetization 

 Broyden mixing:
  rms(total) = 0.65156E+01    rms(broyden)= 0.65155E+01
  rms(prec ) = 0.92766E+01
  weight for this iteration     100.00

 eigenvalues of (default mixing * dielectric matrix)
  average eigenvalue GAMMA=   0.2454
  0.2454

 Free energy of the ion-electron system (eV)
  ---------------------------------------------------
  alpha Z        PSCENC =       105.70989314
  Ewald energy   TEWEN  =     18413.80910048
  -Hartree energ DENC   =    -31229.36373098
  -exchange      EXHF   =         0.00000000
  -V(xc)+E(xc)   XCENC  =       310.53499806
  PAW double counting   =     12880.37371477   -12807.88391195
  entropy T*S    EENTRO =        -0.00990914
  eigenvalues    EBANDS =     -3089.82573711
  atomic energy  EATOM  =     15281.81476201
  Solvation  Ediel_sol  =         0.00000000
  ---------------------------------------------------
  free energy    TOTEN  =      -134.84082071 eV

  energy without entropy =     -134.83091157  energy(sigma->0) =     -134.83751766


--------------------------------------------------------------------------------------------------------




--------------------------------------- Iteration      1(   7)  ---------------------------------------


    POTLOK:  cpu time      0.0262: real time      0.0262
    SETDIJ:  cpu time      0.0018: real time      0.0018
     EDDAV:  cpu time      5.1785: real time      5.1789
       DOS:  cpu time      0.0004: real time      0.0004
    CHARGE:  cpu time      0.0659: real time      0.0659
    MIXING:  cpu time      0.0005: real time      0.0005
    --------------------------------------------
      LOOP:  cpu time      5.2733: real time      5.2737

 eigenvalue-minimisations  :  4544
 total energy-change (2. order) : 0.3376072E+02  (-0.2216867E+02)
 number of electron     132.9999859 magnetization 
 augmentation part       39.9745925 magnetization 

 Broyden mixing:
  rms(total) = 0.33116E+01    rms(broyden)= 0.33113E+01
  rms(prec ) = 0.45686E+01
  weight for this iteration     100.00

 eigenvalues of (default mixing * dielectric matrix)
  average eigenvalue GAMMA=   0.3406
  0.5322  0.1489

 Free energy of the ion-electron system (eV)
  ---------------------------------------------------
  alpha Z        PSCENC =       105.70989314
  Ewald energy   TEWEN  =     18413.80910048
  -Hartree energ DENC   =    -31329.67885571
  -exchange      EXHF   =         0.00000000
  -V(xc)+E(xc)   XCENC  =       314.87285296
  PAW double counting   =     13078.57026175   -13001.91730111
  entropy T*S    EENTRO =        -0.00093975
  eigenvalues    EBANDS =     -2964.25987053
  atomic energy  EATOM  =     15281.81476201
  Solvation  Ediel_sol  =         0.00000000
  ---------------------------------------------------
  free energy    TOTEN  =      -101.08009675 eV

  energy without entropy =     -101.07915701  energy(sigma->0) =     -101.07978350


--------------------------------------------------------------------------------------------------------




--------------------------------------- Iteration      1(   8)  ---------------------------------------


    POTLOK:  cpu time      0.0256: real time      0.0256
    SETDIJ:  cpu time      0.0020: real time      0.0020
     EDDAV:  cpu time      5.1097: real time      5.1103
       DOS:  cpu time      0.0004: real time      0.0004
    CHARGE:  cpu time      0.0662: real time      0.0662
    MIXING:  cpu time      0.0005: real time      0.0005
    --------------------------------------------
      LOOP:  cpu time      5.2044: real time      5.2049

 eigenvalue-minimisations  :  4608
 total energy-change (2. order) : 0.9408307E+01  (-0.5641160E+01)
 number of electron     132.9999866 magnetization 
 augmentation part       36.8744108 magnetization 

 Broyden mixing:
  rms(total) = 0.15731E+01    rms(broyden)= 0.15728E+01
  rms(prec ) = 0.19646E+01
  weight for this iteration     100.00

 eigenvalues of (default mixing * dielectric matrix)
  average eigenvalue GAMMA=   0.4187
  0.8457  0.2563  0.1540

 Free energy of the ion-electron system (eV)
  ---------------------------------------------------
  alpha Z        PSCENC =       105.70989314
  Ewald energy   TEWEN  =     18413.80910048
  -Hartree energ DENC   =    -31438.66281253
  -exchange      EXHF   =         0.00000000
  -V(xc)+E(xc)   XCENC  =       317.72754929
  PAW double counting   =     13349.07992769   -13268.47401324
  entropy T*S    EENTRO =        -0.01345813
  eigenvalues    EBANDS =     -2852.66273889
  atomic energy  EATOM  =     15281.81476201
  Solvation  Ediel_sol  =         0.00000000
  ---------------------------------------------------
  free energy    TOTEN  =       -91.67179019 eV

  energy without entropy =      -91.65833206  energy(sigma->0) =      -91.66730415


--------------------------------------------------------------------------------------------------------




--------------------------------------- Iteration      1(   9)  ---------------------------------------


    POTLOK:  cpu time      0.0261: real time      0.0261
    SETDIJ:  cpu time      0.0019: real time      0.0019
     EDDAV:  cpu time      6.0243: real time      6.0246
       DOS:  cpu time      0.0004: real time      0.0004
    CHARGE:  cpu time      0.0662: real time      0.0662
    MIXING:  cpu time      0.0005: real time      0.0005
    --------------------------------------------
      LOOP:  cpu time      6.1194: real time      6.1197

 eigenvalue-minimisations  :  5248
 total energy-change (2. order) : 0.3255559E+01  (-0.1124594E+01)
 number of electron     132.9999870 magnetization 
 augmentation part       36.6567713 magnetization 

 Broyden mixing:
  rms(total) = 0.95151E+00    rms(broyden)= 0.95143E+00
  rms(prec ) = 0.11315E+01
  weight for this iteration     100.00

 eigenvalues of (default mixing * dielectric matrix)
  average eigenvalue GAMMA=   0.5215
  1.3314  0.1525  0.3012  0.3012

 Free energy of the ion-electron system (eV)
  ---------------------------------------------------
  alpha Z        PSCENC =       105.70989314
  Ewald energy   TEWEN  =     18413.80910048
  -Hartree energ DENC   =    -31446.02904454
  -exchange      EXHF   =         0.00000000
  -V(xc)+E(xc)   XCENC  =       317.30283135
  PAW double counting   =     13582.27706988   -13498.92553805
  entropy T*S    EENTRO =         0.00511642
  eigenvalues    EBANDS =     -2844.38042169
  atomic energy  EATOM  =     15281.81476201
  Solvation  Ediel_sol  =         0.00000000
  ---------------------------------------------------
  free energy    TOTEN  =       -88.41623100 eV

  energy without entropy =      -88.42134742  energy(sigma->0) =      -88.41793647


--------------------------------------------------------------------------------------------------------




--------------------------------------- Iteration      1(  10)  ---------------------------------------


    POTLOK:  cpu time      0.0255: real time      0.0255
    SETDIJ:  cpu time      0.0019: real time      0.0019
     EDDAV:  cpu time      4.9463: real time      4.9465
       DOS:  cpu time      0.0007: real time      0.0007
    CHARGE:  cpu time      0.0662: real time      0.0662
    MIXING:  cpu time      0.0006: real time      0.0006
    --------------------------------------------
      LOOP:  cpu time      5.0412: real time      5.0414

 eigenvalue-minimisations  :  4352
 total energy-change (2. order) : 0.1557239E+01  (-0.4640832E+00)
 number of electron     132.9999867 magnetization 
 augmentation part       37.4685539 magnetization 

 Broyden mixing:
  rms(total) = 0.61629E+00    rms(broyden)= 0.61622E+00
  rms(prec ) = 0.73605E+00
  weight for this iteration     100.00

 eigenvalues of (default mixing * dielectric matrix)
  average eigenvalue GAMMA=   0.5117
  1.4722  0.3537  0.3537  0.1533  0.2256

 Free energy of the ion-electron system (eV)
  ---------------------------------------------------
  alpha Z        PSCENC =       105.70989314
  Ewald energy   TEWEN  =     18413.80910048
  -Hartree energ DENC   =    -31420.23960643
  -exchange      EXHF   =         0.00000000
  -V(xc)+E(xc)   XCENC  =       315.85145162
  PAW double counting   =     13793.62131591   -13707.28053884
  entropy T*S    EENTRO =         0.00855070
  eigenvalues    EBANDS =     -2870.15392025
  atomic energy  EATOM  =     15281.81476201
  Solvation  Ediel_sol  =         0.00000000
  ---------------------------------------------------
  free energy    TOTEN  =       -86.85899167 eV

  energy without entropy =      -86.86754237  energy(sigma->0) =      -86.86184191


--------------------------------------------------------------------------------------------------------




--------------------------------------- Iteration      1(  11)  ---------------------------------------


    POTLOK:  cpu time      0.0253: real time      0.0253
    SETDIJ:  cpu time      0.0019: real time      0.0019
     EDDAV:  cpu time      5.6916: real time      5.6920
       DOS:  cpu time      0.0004: real time      0.0004
    CHARGE:  cpu time      0.0661: real time      0.0661
    MIXING:  cpu time      0.0006: real time      0.0006
    --------------------------------------------
      LOOP:  cpu time      5.7858: real time      5.7862

 eigenvalue-minimisations  :  4992
 total energy-change (2. order) : 0.2945911E+00  (-0.2656913E+00)
 number of electron     132.9999868 magnetization 
 augmentation part       37.5993044 magnetization 

 Broyden mixing:
  rms(total) = 0.53094E+00    rms(broyden)= 0.53087E+00
  rms(prec ) = 0.62951E+00
  weight for this iteration     100.00

 eigenvalues of (default mixing * dielectric matrix)
  average eigenvalue GAMMA=   0.6697
  1.9973  1.0671  0.3770  0.2585  0.1518  0.1666

 Free energy of the ion-electron system (eV)
  ---------------------------------------------------
  alpha Z        PSCENC =       105.70989314
  Ewald energy   TEWEN  =     18413.80910048
  -Hartree energ DENC   =    -31420.11305070
  -exchange      EXHF   =         0.00000000
  -V(xc)+E(xc)   XCENC  =       315.45333346
  PAW double counting   =     13884.52414679   -13796.20252573
  entropy T*S    EENTRO =         0.00429745
  eigenvalues    EBANDS =     -2871.56435750
  atomic energy  EATOM  =     15281.81476201
  Solvation  Ediel_sol  =         0.00000000
  ---------------------------------------------------
  free energy    TOTEN  =       -86.56440060 eV

  energy without entropy =      -86.56869805  energy(sigma->0) =      -86.56583308


--------------------------------------------------------------------------------------------------------




--------------------------------------- Iteration      1(  12)  ---------------------------------------


    POTLOK:  cpu time      0.0256: real time      0.0256
    SETDIJ:  cpu time      0.0019: real time      0.0019
     EDDAV:  cpu time      5.2732: real time      5.2735
       DOS:  cpu time      0.0004: real time      0.0004
    CHARGE:  cpu time      0.0660: real time      0.0660
    MIXING:  cpu time      0.0006: real time      0.0006
    --------------------------------------------
      LOOP:  cpu time      5.3676: real time      5.3679

 eigenvalue-minimisations  :  4608
 total energy-change (2. order) : 0.3897254E+00  (-0.1951496E+00)
 number of electron     132.9999867 magnetization 
 augmentation part       38.0450734 magnetization 

 Broyden mixing:
  rms(total) = 0.24899E+00    rms(broyden)= 0.24891E+00
  rms(prec ) = 0.29380E+00
  weight for this iteration     100.00

 eigenvalues of (default mixing * dielectric matrix)
  average eigenvalue GAMMA=   0.7556
  1.8012  1.8012  0.7330  0.3878  0.2547  0.1519  0.1593

 Free energy of the ion-electron system (eV)
  ---------------------------------------------------
  alpha Z        PSCENC =       105.70989314
  Ewald energy   TEWEN  =     18413.80910048
  -Hartree energ DENC   =    -31427.95853115
  -exchange      EXHF   =         0.00000000
  -V(xc)+E(xc)   XCENC  =       314.67647004
  PAW double counting   =     14108.00731227   -14012.99059747
  entropy T*S    EENTRO =         0.00772281
  eigenvalues    EBANDS =     -2869.25080730
  atomic energy  EATOM  =     15281.81476201
  Solvation  Ediel_sol  =         0.00000000
  ---------------------------------------------------
  free energy    TOTEN  =       -86.17467517 eV

  energy without entropy =      -86.18239798  energy(sigma->0) =      -86.17724944


--------------------------------------------------------------------------------------------------------




--------------------------------------- Iteration      1(  13)  ---------------------------------------


    POTLOK:  cpu time      0.0252: real time      0.0252
    SETDIJ:  cpu time      0.0018: real time      0.0018
     EDDAV:  cpu time      4.9732: real time      4.9736
       DOS:  cpu time      0.0004: real time      0.0004
    CHARGE:  cpu time      0.0664: real time      0.0664
    MIXING:  cpu time      0.0006: real time      0.0006
    --------------------------------------------
      LOOP:  cpu time      5.0676: real time      5.0680

 eigenvalue-minimisations  :  4416
 total energy-change (2. order) : 0.3482017E-01  (-0.2257407E-01)
 number of electron     132.9999868 magnetization 
 augmentation part       38.0023009 magnetization 

 Broyden mixing:
  rms(total) = 0.12033E+00    rms(broyden)= 0.12032E+00
  rms(prec ) = 0.13950E+00
  weight for this iteration     100.00

 eigenvalues of (default mixing * dielectric matrix)
  average eigenvalue GAMMA=   0.8737
  2.1948  2.1948  0.9235  0.7311  0.3797  0.2551  0.1521  0.1586

 Free energy of the ion-electron system (eV)
  ---------------------------------------------------
  alpha Z        PSCENC =       105.70989314
  Ewald energy   TEWEN  =     18413.80910048
  -Hartree energ DENC   =    -31440.32945554
  -exchange      EXHF   =         0.00000000
  -V(xc)+E(xc)   XCENC  =       314.85408476
  PAW double counting   =     14112.93666828   -14014.23274123
  entropy T*S    EENTRO =         0.00709267
  eigenvalues    EBANDS =     -2860.70925957
  atomic energy  EATOM  =     15281.81476201
  Solvation  Ediel_sol  =         0.00000000
  ---------------------------------------------------
  free energy    TOTEN  =       -86.13985501 eV

  energy without entropy =      -86.14694767  energy(sigma->0) =      -86.14221923


--------------------------------------------------------------------------------------------------------




--------------------------------------- Iteration      1(  14)  ---------------------------------------


    POTLOK:  cpu time      0.0260: real time      0.0260
    SETDIJ:  cpu time      0.0020: real time      0.0020
     EDDAV:  cpu time      5.2992: real time      5.2996
       DOS:  cpu time      0.0004: real time      0.0004
    CHARGE:  cpu time      0.0664: real time      0.0664
    MIXING:  cpu time      0.0006: real time      0.0006
    --------------------------------------------
      LOOP:  cpu time      5.3945: real time      5.3949

 eigenvalue-minimisations  :  4672
 total energy-change (2. order) : 0.5767798E-02  (-0.4499694E-02)
 number of electron     132.9999868 magnetization 
 augmentation part       37.8983830 magnetization 

 Broyden mixing:
  rms(total) = 0.73040E-01    rms(broyden)= 0.73031E-01
  rms(prec ) = 0.92195E-01
  weight for this iteration     100.00

 eigenvalues of (default mixing * dielectric matrix)
  average eigenvalue GAMMA=   0.9360
  2.3085  2.3085  1.2557  0.9185  0.6861  0.3810  0.2549  0.1521  0.1586

 Free energy of the ion-electron system (eV)
  ---------------------------------------------------
  alpha Z        PSCENC =       105.70989314
  Ewald energy   TEWEN  =     18413.80910048
  -Hartree energ DENC   =    -31457.61005746
  -exchange      EXHF   =         0.00000000
  -V(xc)+E(xc)   XCENC  =       315.16041201
  PAW double counting   =     14100.90982486   -13998.82658941
  entropy T*S    EENTRO =         0.00628613
  eigenvalues    EBANDS =     -2847.10771896
  atomic energy  EATOM  =     15281.81476201
  Solvation  Ediel_sol  =         0.00000000
  ---------------------------------------------------
  free energy    TOTEN  =       -86.13408721 eV

  energy without entropy =      -86.14037333  energy(sigma->0) =      -86.13618258


--------------------------------------------------------------------------------------------------------




--------------------------------------- Iteration      1(  15)  ---------------------------------------


    POTLOK:  cpu time      0.0254: real time      0.0254
    SETDIJ:  cpu time      0.0019: real time      0.0019
     EDDAV:  cpu time      4.6078: real time      4.6082
       DOS:  cpu time      0.0004: real time      0.0004
    CHARGE:  cpu time      0.0661: real time      0.0661
    MIXING:  cpu time      0.0006: real time      0.0006
    --------------------------------------------
      LOOP:  cpu time      4.7022: real time      4.7026

 eigenvalue-minimisations  :  4160
 total energy-change (2. order) : 0.1492371E-02  (-0.2227302E-02)
 number of electron     132.9999868 magnetization 
 augmentation part       37.8530403 magnetization 

 Broyden mixing:
  rms(total) = 0.25741E-01    rms(broyden)= 0.25729E-01
  rms(prec ) = 0.35019E-01
  weight for this iteration     100.00

 eigenvalues of (default mixing * dielectric matrix)
  average eigenvalue GAMMA=   0.9770
  2.2840  2.2840  1.7711  0.9923  0.7956  0.6968  0.3807  0.2549  0.1521  0.1586

 Free energy of the ion-electron system (eV)
  ---------------------------------------------------
  alpha Z        PSCENC =       105.70989314
  Ewald energy   TEWEN  =     18413.80910048
  -Hartree energ DENC   =    -31466.92762343
  -exchange      EXHF   =         0.00000000
  -V(xc)+E(xc)   XCENC  =       315.31284813
  PAW double counting   =     14095.46183804   -13992.03528078
  entropy T*S    EENTRO =         0.00656134
  eigenvalues    EBANDS =     -2839.28469377
  atomic energy  EATOM  =     15281.81476201
  Solvation  Ediel_sol  =         0.00000000
  ---------------------------------------------------
  free energy    TOTEN  =       -86.13259484 eV

  energy without entropy =      -86.13915618  energy(sigma->0) =      -86.13478195


--------------------------------------------------------------------------------------------------------




--------------------------------------- Iteration      1(  16)  ---------------------------------------


    POTLOK:  cpu time      0.0257: real time      0.0257
    SETDIJ:  cpu time      0.0019: real time      0.0019
     EDDAV:  cpu time      5.1750: real time      5.1752
       DOS:  cpu time      0.0004: real time      0.0004
    CHARGE:  cpu time      0.0661: real time      0.0661
    MIXING:  cpu time      0.0007: real time      0.0007
    --------------------------------------------
      LOOP:  cpu time      5.2698: real time      5.2699

 eigenvalue-minimisations  :  4544
 total energy-change (2. order) :-0.1920442E-02  (-0.5969802E-03)
 number of electron     132.9999868 magnetization 
 augmentation part       37.8360236 magnetization 

 Broyden mixing:
  rms(total) = 0.20458E-01    rms(broyden)= 0.20456E-01
  rms(prec ) = 0.28411E-01
  weight for this iteration     100.00

 eigenvalues of (default mixing * dielectric matrix)
  average eigenvalue GAMMA=   1.0411
  2.6306  2.6306  1.7301  1.1470  0.9451  0.7113  0.7113  0.3808  0.2549  0.1521
  0.1586

 Free energy of the ion-electron system (eV)
  ---------------------------------------------------
  alpha Z        PSCENC =       105.70989314
  Ewald energy   TEWEN  =     18413.80910048
  -Hartree energ DENC   =    -31472.67308344
  -exchange      EXHF   =         0.00000000
  -V(xc)+E(xc)   XCENC  =       315.37360821
  PAW double counting   =     14094.95557378   -13991.20518546
  entropy T*S    EENTRO =         0.00660821
  eigenvalues    EBANDS =     -2833.92579221
  atomic energy  EATOM  =     15281.81476201
  Solvation  Ediel_sol  =         0.00000000
  ---------------------------------------------------
  free energy    TOTEN  =       -86.13451528 eV

  energy without entropy =      -86.14112349  energy(sigma->0) =      -86.13671802


--------------------------------------------------------------------------------------------------------




--------------------------------------- Iteration      1(  17)  ---------------------------------------


    POTLOK:  cpu time      0.0258: real time      0.0258
    SETDIJ:  cpu time      0.0019: real time      0.0019
     EDDAV:  cpu time      4.6557: real time      4.6561
       DOS:  cpu time      0.0004: real time      0.0004
    CHARGE:  cpu time      0.0661: real time      0.0661
    MIXING:  cpu time      0.0007: real time      0.0007
    --------------------------------------------
      LOOP:  cpu time      4.7507: real time      4.7510

 eigenvalue-minimisations  :  4224
 total energy-change (2. order) :-0.2415864E-02  (-0.5250645E-03)
 number of electron     132.9999868 magnetization 
 augmentation part       37.8126324 magnetization 

 Broyden mixing:
  rms(total) = 0.17161E-01    rms(broyden)= 0.17158E-01
  rms(prec ) = 0.22947E-01
  weight for this iteration     100.00

 eigenvalues of (default mixing * dielectric matrix)
  average eigenvalue GAMMA=   1.1351
  3.1894  2.3315  2.3315  1.5517  0.9991  0.9090  0.6813  0.6813  0.3808  0.2549
  0.1521  0.1586

 Free energy of the ion-electron system (eV)
  ---------------------------------------------------
  alpha Z        PSCENC =       105.70989314
  Ewald energy   TEWEN  =     18413.80910048
  -Hartree energ DENC   =    -31477.18215836
  -exchange      EXHF   =         0.00000000
  -V(xc)+E(xc)   XCENC  =       315.42764221
  PAW double counting   =     14084.29811115   -13980.53849371
  entropy T*S    EENTRO =         0.00649107
  eigenvalues    EBANDS =     -2829.48227913
  atomic energy  EATOM  =     15281.81476201
  Solvation  Ediel_sol  =         0.00000000
  ---------------------------------------------------
  free energy    TOTEN  =       -86.13693114 eV

  energy without entropy =      -86.14342221  energy(sigma->0) =      -86.13909483


--------------------------------------------------------------------------------------------------------




--------------------------------------- Iteration      1(  18)  ---------------------------------------


    POTLOK:  cpu time      0.0263: real time      0.0263
    SETDIJ:  cpu time      0.0025: real time      0.0025
     EDDAV:  cpu time      4.7891: real time      4.7894
       DOS:  cpu time      0.0004: real time      0.0004
    CHARGE:  cpu time      0.0661: real time      0.0661
    MIXING:  cpu time      0.0007: real time      0.0007
    --------------------------------------------
      LOOP:  cpu time      4.8850: real time      4.8853

 eigenvalue-minimisations  :  4288
 total energy-change (2. order) :-0.3736715E-03  (-0.1583493E-03)
 number of electron     132.9999868 magnetization 
 augmentation part       37.8233132 magnetization 

 Broyden mixing:
  rms(total) = 0.62024E-02    rms(broyden)= 0.62019E-02
  rms(prec ) = 0.82189E-02
  weight for this iteration     100.00

 eigenvalues of (default mixing * dielectric matrix)
  average eigenvalue GAMMA=   1.1628
  3.0928  3.0928  1.8874  1.8874  0.1521  0.1586  0.2549  0.3808  0.9988  0.9988
  0.8792  0.6891  0.6442

 Free energy of the ion-electron system (eV)
  ---------------------------------------------------
  alpha Z        PSCENC =       105.70989314
  Ewald energy   TEWEN  =     18413.80910048
  -Hartree energ DENC   =    -31481.43917554
  -exchange      EXHF   =         0.00000000
  -V(xc)+E(xc)   XCENC  =       315.42702426
  PAW double counting   =     14085.06315936   -13981.16128621
  entropy T*S    EENTRO =         0.00655955
  eigenvalues    EBANDS =     -2825.36734188
  atomic energy  EATOM  =     15281.81476201
  Solvation  Ediel_sol  =         0.00000000
  ---------------------------------------------------
  free energy    TOTEN  =       -86.13730481 eV

  energy without entropy =      -86.14386437  energy(sigma->0) =      -86.13949133


--------------------------------------------------------------------------------------------------------




--------------------------------------- Iteration      1(  19)  ---------------------------------------


    POTLOK:  cpu time      0.0262: real time      0.0262
    SETDIJ:  cpu time      0.0020: real time      0.0020
     EDDAV:  cpu time      4.7659: real time      4.7663
       DOS:  cpu time      0.0006: real time      0.0006
    CHARGE:  cpu time      0.0672: real time      0.0672
    MIXING:  cpu time      0.0007: real time      0.0007
    --------------------------------------------
      LOOP:  cpu time      4.8628: real time      4.8631

 eigenvalue-minimisations  :  4224
 total energy-change (2. order) :-0.3312448E-03  (-0.2016602E-04)
 number of electron     132.9999868 magnetization 
 augmentation part       37.8249803 magnetization 

 Broyden mixing:
  rms(total) = 0.33755E-02    rms(broyden)= 0.33746E-02
  rms(prec ) = 0.49611E-02
  weight for this iteration     100.00

 eigenvalues of (default mixing * dielectric matrix)
  average eigenvalue GAMMA=   1.2979
  4.5436  2.6519  2.2319  2.2319  1.3019  1.1793  0.1521  0.1586  0.2549  0.3808
  0.9028  0.8411  0.6697  0.6697

 Free energy of the ion-electron system (eV)
  ---------------------------------------------------
  alpha Z        PSCENC =       105.70989314
  Ewald energy   TEWEN  =     18413.80910048
  -Hartree energ DENC   =    -31482.58636284
  -exchange      EXHF   =         0.00000000
  -V(xc)+E(xc)   XCENC  =       315.41948294
  PAW double counting   =     14082.61369770   -13978.85465838
  entropy T*S    EENTRO =         0.00653964
  eigenvalues    EBANDS =     -2824.07009077
  atomic energy  EATOM  =     15281.81476201
  Solvation  Ediel_sol  =         0.00000000
  ---------------------------------------------------
  free energy    TOTEN  =       -86.13763606 eV

  energy without entropy =      -86.14417570  energy(sigma->0) =      -86.13981594


--------------------------------------------------------------------------------------------------------




--------------------------------------- Iteration      1(  20)  ---------------------------------------


    POTLOK:  cpu time      0.0263: real time      0.0263
    SETDIJ:  cpu time      0.0020: real time      0.0020
     EDDAV:  cpu time      4.5680: real time      4.5682
       DOS:  cpu time      0.0004: real time      0.0004
    CHARGE:  cpu time      0.0665: real time      0.0665
    MIXING:  cpu time      0.0008: real time      0.0008
    --------------------------------------------
      LOOP:  cpu time      4.6640: real time      4.6642

 eigenvalue-minimisations  :  4160
 total energy-change (2. order) :-0.1927732E-03  (-0.1664836E-04)
 number of electron     132.9999868 magnetization 
 augmentation part       37.8290340 magnetization 

 Broyden mixing:
  rms(total) = 0.18639E-02    rms(broyden)= 0.18631E-02
  rms(prec ) = 0.29626E-02
  weight for this iteration     100.00

 eigenvalues of (default mixing * dielectric matrix)
  average eigenvalue GAMMA=   1.3871
  5.0224  3.2272  2.3495  2.3495  1.6861  1.1033  1.1033  0.1521  0.1586  0.2549
  0.3808  0.8420  0.8420  0.6674  0.6674

 Free energy of the ion-electron system (eV)
  ---------------------------------------------------
  alpha Z        PSCENC =       105.70989314
  Ewald energy   TEWEN  =     18413.80910048
  -Hartree energ DENC   =    -31483.88270653
  -exchange      EXHF   =         0.00000000
  -V(xc)+E(xc)   XCENC  =       315.41461120
  PAW double counting   =     14081.51759555   -13977.79374956
  entropy T*S    EENTRO =         0.00654255
  eigenvalues    EBANDS =     -2822.73387767
  atomic energy  EATOM  =     15281.81476201
  Solvation  Ediel_sol  =         0.00000000
  ---------------------------------------------------
  free energy    TOTEN  =       -86.13782883 eV

  energy without entropy =      -86.14437138  energy(sigma->0) =      -86.14000968


--------------------------------------------------------------------------------------------------------




--------------------------------------- Iteration      1(  21)  ---------------------------------------


    POTLOK:  cpu time      0.0252: real time      0.0252
    SETDIJ:  cpu time      0.0018: real time      0.0018
     EDDAV:  cpu time      5.0316: real time      5.0321
       DOS:  cpu time      0.0004: real time      0.0004
    CHARGE:  cpu time      0.0661: real time      0.0661
    MIXING:  cpu time      0.0008: real time      0.0008
    --------------------------------------------
      LOOP:  cpu time      5.1259: real time      5.1264

 eigenvalue-minimisations  :  4416
 total energy-change (2. order) :-0.2933828E-03  (-0.6749997E-05)
 number of electron     132.9999868 magnetization 
 augmentation part       37.8297469 magnetization 

 Broyden mixing:
  rms(total) = 0.10810E-02    rms(broyden)= 0.10807E-02
  rms(prec ) = 0.16969E-02
  weight for this iteration     100.00

 eigenvalues of (default mixing * dielectric matrix)
  average eigenvalue GAMMA=   1.4472
[...]
     46      -3.2343      2.00000
     47      -2.9438      2.00000
     48      -2.5944      2.00000
     49      -2.4049      2.00000
     50      -2.0657      2.00000
     51      -1.9632      2.00000
     52      -1.8515      2.00000
     53      -1.6593      2.00000
     54      -1.5884      2.00000
     55      -1.4777      2.00000
     56      -1.2333      2.00000
     57      -1.2110      2.00000
     58      -0.9095      2.00000
     59      -0.7977      2.00000
     60      -0.6406      2.00000
     61      -0.5754      2.00000
     62      -0.4691      2.00000
     63      -0.2475      2.02776
     64      -0.2341      2.03883
     65      -0.1940      2.07006
     66      -0.1403      1.94783
     67      -0.0693      1.05605
     68       0.0110      0.03587
     69       0.0507     -0.06983
     70       0.1536     -0.00805
     71       0.2023     -0.00098
     72       0.2328     -0.00020
     73       0.3278     -0.00000
     74       0.3813     -0.00000
     75       0.4866     -0.00000
     76       0.6300     -0.00000
     77       0.7498     -0.00000
     78       0.8352     -0.00000
     79       0.8419     -0.00000
     80       1.0358     -0.00000
     81       1.0379     -0.00000
     82       1.1259     -0.00000
     83       1.1945     -0.00000
     84       1.3385     -0.00000
     85       1.3613     -0.00000
     86       1.5646     -0.00000
     87       1.5726     -0.00000
     88       1.6236     -0.00000
     89       1.6571     -0.00000
     90       1.8201     -0.00000
     91       1.8969     -0.00000
     92       2.0632      0.00000
     93       2.0961      0.00000
     94       2.1719      0.00000
     95       2.2226      0.00000
     96       2.2490      0.00000
     97       2.5215      0.00000
     98       2.6406      0.00000
     99       2.6790      0.00000
    100       2.7624      0.00000
    101       3.0826      0.00000
    102       3.3202      0.00000
    103       3.5533      0.00000
    104       3.6708      0.00000
    105       3.8037      0.00000
    106       3.8745      0.00000
    107       4.1813      0.00000
    108       4.3052      0.00000
    109       4.3497      0.00000
    110       4.3684      0.00000
    111       4.6249      0.00000
    112       4.7631      0.00000
    113       4.8933      0.00000
    114       4.9437      0.00000
    115       5.1495      0.00000
    116       5.2269      0.00000
    117       5.3487      0.00000
    118       5.3969      0.00000
    119       5.7627      0.00000
    120       5.8450      0.00000
    121       5.8807      0.00000
    122       6.1299      0.00000
    123       6.1592      0.00000
    124       6.2149      0.00000
    125       6.2660      0.00000
    126       6.3112      0.00000
    127       6.5576      0.00000
    128       6.6577      0.00000

 k-point    12 :       0.5000    0.5000    0.0000
  band No.  band energies     occupation 
      1     -57.3594      2.00000
      2     -57.3593      2.00000
      3     -57.1927      2.00000
      4     -57.1923      2.00000
      5     -57.0572      2.00000
      6     -57.0571      2.00000
      7     -56.7434      2.00000
      8     -56.7401      2.00000
      9     -33.7761      2.00000
     10     -33.7751      2.00000
     11     -33.6529      2.00000
     12     -33.6521      2.00000
     13     -33.5993      2.00000
     14     -33.5986      2.00000
     15     -33.4942      2.00000
     16     -33.4862      2.00000
     17     -33.4117      2.00000
     18     -33.4115      2.00000
     19     -33.3999      2.00000
     20     -33.3980      2.00000
     21     -33.3015      2.00000
     22     -33.3007      2.00000
     23     -33.2666      2.00000
     24     -33.2664      2.00000
     25     -33.2411      2.00000
     26     -33.2410      2.00000
     27     -33.0756      2.00000
     28     -33.0695      2.00000
     29     -33.0629      2.00000
     30     -33.0231      2.00000
     31     -32.9467      2.00000
     32     -32.9417      2.00000
     33     -15.3327      2.00000
     34     -15.2168      2.00000
     35     -15.1885      2.00000
     36     -15.1346      2.00000
     37     -15.1258      2.00000
     38      -8.7109      2.00000
     39      -7.1895      2.00000
     40      -6.4802      2.00000
     41      -6.3434      2.00000
     42      -5.5478      2.00000
     43      -5.3382      2.00000
     44      -4.7783      2.00000
     45      -4.6258      2.00000
     46      -2.6571      2.00000
     47      -2.6355      2.00000
     48      -2.6290      2.00000
     49      -2.5078      2.00000
     50      -2.1962      2.00000
     51      -1.8945      2.00000
     52      -1.8070      2.00000
     53      -1.7305      2.00000
     54      -1.3825      2.00000
     55      -1.2475      2.00000
     56      -1.1762      2.00000
     57      -0.9500      2.00000
     58      -0.9153      2.00000
     59      -0.6051      2.00000
     60      -0.5608      2.00000
     61      -0.5181      2.00000
     62      -0.4246      2.00000
     63      -0.3021      2.00421
     64      -0.2392      2.03440
     65      -0.1830      2.06992
     66      -0.1343      1.90731
     67      -0.0621      0.93399
     68      -0.0577      0.85945
     69       0.0650     -0.06893
     70       0.0899     -0.04993
     71       0.1333     -0.01636
     72       0.2782     -0.00001
     73       0.2960     -0.00000
     74       0.3830     -0.00000
     75       0.4978     -0.00000
     76       0.5184     -0.00000
     77       0.5528     -0.00000
     78       0.6097     -0.00000
     79       0.9177     -0.00000
     80       0.9244     -0.00000
     81       1.0115     -0.00000
     82       1.0765     -0.00000
     83       1.1128     -0.00000
     84       1.1426     -0.00000
     85       1.3185     -0.00000
     86       1.5354     -0.00000
     87       1.6372     -0.00000
     88       1.6376     -0.00000
     89       1.6935     -0.00000
     90       1.8006     -0.00000
     91       1.9502      0.00000
     92       1.9578      0.00000
     93       1.9802      0.00000
     94       2.0885      0.00000
     95       2.3120      0.00000
     96       2.3318      0.00000
     97       2.5611      0.00000
     98       2.5728      0.00000
     99       2.7964      0.00000
    100       2.9206      0.00000
    101       3.2639      0.00000
    102       3.3792      0.00000
    103       3.4771      0.00000
    104       3.6137      0.00000
    105       4.0811      0.00000
    106       4.0813      0.00000
    107       4.1661      0.00000
    108       4.2096      0.00000
    109       4.4087      0.00000
    110       4.5522      0.00000
    111       4.5619      0.00000
    112       4.8287      0.00000
    113       4.9197      0.00000
    114       4.9870      0.00000
    115       5.0065      0.00000
    116       5.1997      0.00000
    117       5.2199      0.00000
    118       5.3106      0.00000
    119       5.3515      0.00000
    120       5.5093      0.00000
    121       5.5200      0.00000
    122       5.6642      0.00000
    123       5.7378      0.00000
    124       5.8472      0.00000
    125       5.9103      0.00000
    126       6.4694      0.00000
    127       6.6962      0.00000
    128       6.6991      0.00000


--------------------------------------------------------------------------------------------------------


 soft charge-density along one line, spin component           1
         0         1         2         3         4         5         6         7         8         9
 total charge-density along one line
 
 pseudopotential strength for first ion, spin component:           1
 -2.836 -24.290  -0.005  -0.012  -0.000   0.004  -0.004  -0.000
-24.290  11.480   0.000   0.027  -0.000  -0.001  -0.002  -0.000
 -0.005   0.000 -27.875   0.010  -0.000  10.843  -0.006   0.000
 -0.012   0.027   0.010 -27.932  -0.000  -0.006  10.878   0.000
 -0.000  -0.000  -0.000  -0.000 -27.757   0.000   0.000  10.761
  0.004  -0.001  10.843  -0.006   0.000   4.898   0.004  -0.000
 -0.004  -0.002  -0.006  10.878   0.000   0.004   4.883  -0.000
 -0.000  -0.000   0.000   0.000  10.761  -0.000  -0.000   4.931
 -0.000  -0.000   0.000   0.000  -0.003  -0.000  -0.000   0.002
  0.009  -0.001   0.001  -0.003   0.000  -0.000   0.002  -0.000
 -0.049  -0.011   0.002   0.003  -0.000  -0.001  -0.003   0.000
 -0.000  -0.000   0.000  -0.000   0.011  -0.000   0.000  -0.005
  0.041   0.012   0.003   0.005  -0.000  -0.002  -0.002   0.000
 -0.000  -0.000   0.000   0.000  -0.003  -0.000  -0.000   0.002
  0.011  -0.002   0.001  -0.004   0.000   0.001   0.003  -0.000
 -0.061  -0.013   0.002   0.003  -0.000  -0.001  -0.001   0.000
 -0.000  -0.000   0.000  -0.000   0.012  -0.000   0.000  -0.005
  0.051   0.014   0.004   0.006   0.000  -0.002  -0.003   0.000
 total augmentation occupancy for first ion, spin component:           1
  1.995  -0.053  -0.000  -0.003  -0.000  -0.000  -0.008  -0.000  -0.000   0.006  -0.014   0.000   0.020   0.000  -0.006   0.016
 -0.053   1.353  -0.001  -0.027  -0.000  -0.006   0.090   0.000  -0.000  -0.024  -0.176  -0.000   0.185  -0.000  -0.009   0.105
 -0.000  -0.001   1.984   0.000   0.000  -0.036   0.001  -0.000  -0.000  -0.031   0.004  -0.000   0.005   0.000   0.020  -0.003
 -0.003  -0.027   0.000   1.985   0.000   0.001  -0.034  -0.000   0.000  -0.001  -0.054  -0.000  -0.007  -0.000   0.001   0.038
 -0.000  -0.000   0.000   0.000   1.984  -0.000  -0.000  -0.034  -0.002  -0.000  -0.000  -0.046  -0.000   0.002   0.000   0.000
 -0.000  -0.006  -0.036   0.001  -0.000   0.074  -0.000   0.000   0.000   0.177  -0.005   0.000  -0.011  -0.000  -0.095  -0.003
 -0.008   0.090   0.001  -0.034  -0.000  -0.000   0.054   0.000  -0.000   0.001   0.166   0.000  -0.068   0.000  -0.002  -0.051
 -0.000   0.000  -0.000  -0.000  -0.034   0.000   0.000   0.076  -0.009   0.000   0.000   0.104  -0.000   0.000  -0.000  -0.000
 -0.000  -0.000  -0.000   0.000  -0.002   0.000  -0.000  -0.009   1.726   0.000  -0.000   0.078   0.000  -0.669  -0.000   0.000
  0.006  -0.024  -0.031  -0.001  -0.000   0.177   0.001   0.000   0.000   1.335   0.049   0.000   0.042  -0.000  -0.530  -0.025
 -0.014  -0.176   0.004  -0.054  -0.000  -0.005   0.166   0.000  -0.000   0.049   1.183   0.000  -0.262   0.000  -0.026  -0.344
  0.000  -0.000  -0.000  -0.000  -0.046   0.000   0.000   0.104   0.078   0.000   0.000   1.200   0.000  -0.029  -0.000  -0.000
  0.020   0.185   0.005  -0.007  -0.000  -0.011  -0.068  -0.000   0.000   0.042  -0.262   0.000   1.588  -0.000  -0.021   0.068
  0.000  -0.000   0.000  -0.000   0.002  -0.000   0.000   0.000  -0.669  -0.000   0.000  -0.029  -0.000   0.283   0.000  -0.000
 -0.006  -0.009   0.020   0.001   0.000  -0.095  -0.002  -0.000  -0.000  -0.530  -0.026  -0.000  -0.021   0.000   0.248   0.013
  0.016   0.105  -0.003   0.038   0.000  -0.003  -0.051  -0.000   0.000  -0.025  -0.344  -0.000   0.068  -0.000   0.013   0.124
  0.000   0.000   0.000   0.000   0.032  -0.000  -0.000  -0.068  -0.029  -0.000  -0.000  -0.451  -0.000   0.014   0.000   0.000
 -0.019  -0.036  -0.004   0.006   0.000  -0.002   0.023  -0.000  -0.000  -0.023   0.075  -0.000  -0.541   0.000   0.014  -0.017


------------------------ aborting loop because EDIFF is reached ----------------------------------------


    CHARGE:  cpu time      0.0730: real time      0.0730
    FORLOC:  cpu time      0.0013: real time      0.0013
    FORNL :  cpu time      0.9414: real time      0.9414
    STRESS:  cpu time      3.3224: real time      3.3225
    FORCOR:  cpu time      0.0235: real time      0.0235
    FORHAR:  cpu time      0.0057: real time      0.0057
    MIXING:  cpu time      0.0010: real time      0.0010
    OFIELD:  cpu time      0.0000: real time      0.0000

  FORCE on cell =-STRESS in cart. coord.  units (eV):
  Direction    XX          YY          ZZ          XY          YZ          ZX
  --------------------------------------------------------------------------------------
  Alpha Z   105.70989   105.70989   105.70989
  Ewald   25138.26122 24408.67815-31133.14520     0.00000    -0.00000     0.00000
  Hartree 28666.85649 28062.25202-25243.80377    -0.00000    -0.00000    -0.00000
  E(xc)    -647.80338  -648.82181  -649.86667    -0.00000    -0.00000    -0.00000
  Local  -55376.09699-54008.48105 54859.02614    -0.00000     0.00000    -0.00000
  n-local  -127.64914   -80.46475  -100.92492     0.76222    -0.00000     0.00000
  augment   623.16036   602.00415   602.13606     0.00000    -0.00000     0.00000
  Kinetic  1607.65663  1547.88805  1553.32451    -2.40418     0.00000    -0.00000
  Fock        0.00000     0.00000     0.00000     0.00000     0.00000     0.00000
  -------------------------------------------------------------------------------------
  Total      -9.90491   -11.23536    -7.54395    -0.00000    -0.00000    -0.00000
  in kB     -16.64614   -18.88209   -12.67833    -0.00000    -0.00000    -0.00000
  external pressure =      -16.07 kB  Pullay stress =        0.00 kB


 VOLUME and BASIS-vectors are now :
 -----------------------------------------------------------------------------
  energy-cutoff  :      520.00
  volume of cell :      953.34
      direct lattice vectors                 reciprocal lattice vectors
     5.858455502  0.000000000  0.000000000     0.170693453 -0.000000000 -0.000000000
     0.000000000  8.300273972  0.000000000     0.000000000  0.120477951 -0.000000000
     0.000000000  0.000000000 19.605233279     0.000000000  0.000000000  0.051006789

  length of vectors
     5.858455502  8.300273972 19.605233279     0.170693453  0.120477951  0.051006789


 FORCES acting on ions
    electron-ion (+dipol)            ewald-force                    non-local-force                 convergence-correction
 -----------------------------------------------------------------------------------------------
   0.429E-14 -.116E+02 0.128E+04   0.224E-14 0.115E+02 -.127E+04   -.988E-16 0.100E+00 -.539E+01   -.681E-13 -.152E-03 0.347E-03
   0.121E-13 0.116E+02 0.128E+04   -.591E-13 -.115E+02 -.127E+04   -.112E-15 -.100E+00 -.539E+01   -.737E-13 0.152E-03 0.347E-03
   0.717E-12 -.100E+02 0.130E+04   -.371E-13 0.104E+02 -.130E+04   -.108E-15 -.271E+00 -.404E+01   0.214E-13 -.177E-03 0.313E-03
   0.729E-12 0.100E+02 0.130E+04   0.400E-13 -.104E+02 -.130E+04   -.581E-16 0.271E+00 -.404E+01   0.713E-13 0.177E-03 0.313E-03
   -.361E-13 -.512E+02 -.783E+03   0.581E-13 0.524E+02 0.782E+03   -.415E-16 -.960E+00 0.824E+00   0.197E-14 0.245E-04 0.252E-05
   -.294E-13 0.512E+02 -.783E+03   -.820E-14 -.524E+02 0.782E+03   0.759E-16 0.960E+00 0.824E+00   0.160E-14 -.245E-04 0.252E-05
   0.685E-12 -.202E+03 -.780E+03   0.122E-12 0.203E+03 0.779E+03   -.309E-16 -.963E+00 0.862E+00   0.407E-13 -.234E-03 -.188E-03
   0.738E-12 0.202E+03 -.780E+03   -.740E-13 -.203E+03 0.779E+03   0.813E-16 0.963E+00 0.862E+00   0.748E-13 0.234E-03 -.188E-03
   0.893E+01 -.341E-13 0.876E+02   -.896E+01 0.369E-13 -.878E+02   -.764E-01 -.169E-17 -.831E-01   0.405E-04 0.456E-14 0.593E-04
   0.307E+02 0.332E-13 0.149E+03   -.323E+02 -.157E-13 -.151E+03   0.159E+01 0.954E-17 0.470E+00   0.517E-04 -.143E-13 0.460E-04
   -.893E+01 0.586E-12 0.876E+02   0.896E+01 -.357E-13 -.878E+02   0.764E-01 -.169E-17 -.831E-01   -.405E-04 0.697E-14 0.593E-04
   -.307E+02 0.272E-12 0.149E+03   0.323E+02 -.136E-13 -.151E+03   -.159E+01 0.954E-17 0.470E+00   -.517E-04 -.154E-13 0.460E-04
   0.173E+02 -.156E-13 -.415E+03   -.171E+02 0.342E-14 0.409E+03   -.680E+00 0.833E-16 0.445E+01   0.630E-05 -.764E-14 -.546E-04
   0.259E+02 0.444E-13 -.448E+03   -.281E+02 -.228E-13 0.445E+03   0.236E+01 0.694E-16 0.333E+01   -.645E-05 0.342E-15 -.468E-04
   -.173E+02 0.478E-12 -.415E+03   0.171E+02 -.888E-14 0.409E+03   0.680E+00 0.833E-16 0.445E+01   -.630E-05 -.895E-14 -.546E-04
   -.259E+02 0.348E-13 -.448E+03   0.281E+02 0.193E-13 0.445E+03   -.236E+01 0.694E-16 0.333E+01   0.645E-05 -.962E-16 -.468E-04
   0.118E-11 0.144E-11 -.784E+03   0.692E-13 -.554E-13 0.785E+03   -.191E-16 -.191E-16 -.937E+00   -.180E-13 -.109E-12 -.187E-03
 -----------------------------------------------------------------------------------------------
   0.426E-11 0.853E-11 0.605E-01   -.186E-14 -.640E-13 -.568E-12   -.191E-16 -.142E-15 -.593E-01   0.510E-13 0.247E-12 0.771E-03
 
 
 POSITION                                       TOTAL-FORCE (eV/Angst)
 -----------------------------------------------------------------------------------
      0.00000      0.15500      7.50000         0.000000      0.046169      0.743768
      0.00000      3.99514      7.50000         0.000000     -0.046169      0.743768
      2.92923      8.26298      7.50000         0.000000      0.088346      1.086949
      2.92923      4.18743      7.50000         0.000000     -0.088346      1.086949
      0.00000      8.26298     10.42923         0.000000      0.210886     -0.036616
      0.00000      4.18743     10.42923        -0.000000     -0.210886     -0.036616
      2.92923      0.38499     10.42923         0.000000      0.107499      0.040834
      2.92923      3.76515     10.42923        -0.000000     -0.107499      0.040834
      1.42176      2.07507      8.92176        -0.100562     -0.000000     -0.324740
      1.25322      6.22521      8.75322         0.044328     -0.000000     -1.111791
      4.43669      2.07507      8.92176         0.100562     -0.000000     -0.324740
      4.60523      6.22521      8.75322        -0.044328     -0.000000     -1.111791
      1.42176      2.07507     11.93669        -0.535593     -0.000000     -0.626719
      1.25322      6.22521     12.10523         0.157460      0.000000      0.134830
      4.43669      2.07507     11.93669         0.535593     -0.000000     -0.626719
      4.60523      6.22521     12.10523        -0.157460      0.000000      0.134830
      2.92923      6.22521     10.42923         0.000000      0.000000      0.186970
 -----------------------------------------------------------------------------------
    total drift:                                0.000000      0.000000      0.001984


--------------------------------------------------------------------------------------------------------



  FREE ENERGIE OF THE ION-ELECTRON SYSTEM (eV)
  ---------------------------------------------------
  free  energy   TOTEN  =       -86.13882025 eV

  energy  without entropy=      -86.14532202  energy(sigma->0) =      -86.14098750
 


--------------------------------------------------------------------------------------------------------


    POTLOK:  cpu time      0.0264: real time      0.0264


--------------------------------------------------------------------------------------------------------


 writing wavefunctions
     LOOP+:  cpu time    141.7339: real time    141.7436
    4ORBIT:  cpu time      0.0000: real time      0.0000

 total amount of memory used by VASP MPI-rank0   193609. kBytes
=======================================================================

   base                                    :      30000. kBytes
   nonl-proj                               :     140721. kBytes
   fftplans                                :       2082. kBytes
   grid                                    :      10540. kBytes
   one-center                              :        264. kBytes
   wavefun                                 :      10002. kBytes
 
  
  
 General timing and accounting informations for this job:
 ========================================================
  
                  Total CPU time used (sec):      146.841
                            User time (sec):      140.091
                          System time (sec):        6.750
                         Elapsed time (sec):      147.105
  
                   Maximum memory used (kb):      382128.
                   Average memory used (kb):          N/A
  
                          Minor page faults:        65288
                          Major page faults:           19
                 Voluntary context switches:          132
