<?xml version="1.0" encoding="ISO-8859-1"?>
<modeling>
 <generator>
  <i name="program" type="string">vasp </i>
  <i name="version" type="string">6.5.0  </i>
  <i name="subversion" type="string">16Dec24 (build Apr 17 2025 17:55:45) complex                          parallel </i>
  <i name="platform" type="string">LinuxIFC </i>
  <i name="date" type="string">2025 06 10 </i>
  <i name="time" type="string">15:38:07 </i>
 </generator>
 <incar>
  <i type="int" name="ISTART">     0</i>
  <i type="string" name="PREC">N</i>
  <i type="string" name="ALGO">N</i>
  <i type="int" name="ICHARG">     2</i>
  <i type="int" name="NELM">   500</i>
  <i type="int" name="IBRION">    -1</i>
  <i name="EDIFF">      0.00001000</i>
  <i name="EDIFFG">     -0.01000000</i>
  <i type="int" name="NSW">     0</i>
  <i type="int" name="ISIF">     3</i>
  <i name="ENCUT">    520.00000000</i>
  <i type="logical" name="LREAL"> F  </i>
  <i type="int" name="ISMEAR">     1</i>
  <i name="SIGMA">      0.10000000</i>
  <i type="logical" name="LVTOT"> T  </i>
  <i type="logical" name="LVHAR"> T  </i>
 </incar>
 <primitive_cell>
  <structure name="primitive_cell" >
   <crystal>
    <varray name="basis" >
     <v>       5.85845550       0.00000000       0.00000000 </v>
     <v>       0.00000000       8.30027397       0.00000000 </v>
     <v>       0.00000000       0.00000000      19.60523328 </v>
    </varray>
    <i name="volume">    953.33947761 </i>
    <varray name="rec_basis" >
     <v>       0.17069345      -0.00000000      -0.00000000 </v>
     <v>       0.00000000       0.12047795      -0.00000000 </v>
     <v>       0.00000000       0.00000000       0.05100679 </v>
    </varray>
   </crystal>
   <varray name="positions" >
    <v>       1.00000000       0.01867368       0.38255092 </v>
    <v>       1.00000000       0.48132632       0.38255092 </v>
    <v>       0.50000000       0.99550713       0.38255092 </v>
    <v>       0.50000000       0.50449287       0.38255092 </v>
    <v>       1.00000000       0.99550713       0.53196142 </v>
    <v>       1.00000000       0.50449287       0.53196142 </v>
    <v>       0.50000000       0.04638282       0.53196142 </v>
    <v>       0.50000000       0.45361718       0.53196142 </v>
    <v>       0.24268531       0.25000000       0.45507039 </v>
    <v>       0.21391683       0.75000000       0.44647376 </v>
    <v>       0.75731469       0.25000000       0.45507039 </v>
    <v>       0.78608317       0.75000000       0.44647376 </v>
    <v>       0.24268531       0.25000000       0.60885246 </v>
    <v>       0.21391683       0.75000000       0.61744908 </v>
    <v>       0.75731469       0.25000000       0.60885246 </v>
    <v>       0.78608317       0.75000000       0.61744908 </v>
    <v>       0.50000000       0.75000000       0.53196142 </v>
   </varray>
  </structure>
  <varray name="primitive_index" >
   <v type="int" >        1 </v>
   <v type="int" >        2 </v>
   <v type="int" >        3 </v>
   <v type="int" >        4 </v>
   <v type="int" >        5 </v>
   <v type="int" >        6 </v>
   <v type="int" >        7 </v>
   <v type="int" >        8 </v>
   <v type="int" >        9 </v>
   <v type="int" >       10 </v>
   <v type="int" >       11 </v>
   <v type="int" >       12 </v>
   <v type="int" >       13 </v>
   <v type="int" >       14 </v>
   <v type="int" >       15 </v>
   <v type="int" >       16 </v>
   <v type="int" >       17 </v>
  </varray>
 </primitive_cell>
 <kpoints>
  <generation param="Gamma">
   <v type="int" name="divisions">       6        4        1 </v>
   <v name="usershift">      0.00000000       0.00000000       0.00000000 </v>
   <v name="genvec1">      0.16666667      -0.00000000       0.00000000 </v>
   <v name="genvec2">      0.00000000       0.25000000       0.00000000 </v>
   <v name="genvec3">      0.00000000       0.00000000       1.00000000 </v>
   <v name="shift">      0.00000000       0.00000000       0.00000000 </v>
  </generation>
  <varray name="kpointlist" >
   <v>       0.00000000       0.00000000       0.00000000 </v>
   <v>       0.16666667       0.00000000       0.00000000 </v>
   <v>       0.33333333       0.00000000       0.00000000 </v>
   <v>       0.50000000       0.00000000       0.00000000 </v>
   <v>       0.00000000       0.25000000       0.00000000 </v>
   <v>       0.16666667       0.25000000       0.00000000 </v>
   <v>       0.33333333       0.25000000       0.00000000 </v>
   <v>       0.50000000       0.25000000       0.00000000 </v>
   <v>       0.00000000       0.50000000       0.00000000 </v>
   <v>       0.16666667       0.50000000       0.00000000 </v>
   <v>       0.33333333       0.50000000       0.00000000 </v>
   <v>       0.50000000       0.50000000       0.00000000 </v>
  </varray>
  <varray name="weights" >
   <v>       0.04166667 </v>
   <v>       0.08333333 </v>
   <v>       0.08333333 </v>
   <v>       0.04166667 </v>
   <v>       0.08333333 </v>
   <v>       0.16666667 </v>
   <v>       0.16666667 </v>
   <v>       0.08333333 </v>
   <v>       0.04166667 </v>
   <v>       0.08333333 </v>
   <v>       0.08333333 </v>
   <v>       0.04166667 </v>
  </varray>
 </kpoints>
 <parameters>
  <separator name="general" >
   <i type="string" name="SYSTEM">unknown system</i>
   <i type="logical" name="LCOMPAT"> F  </i>
  </separator>
  <separator name="electronic" >
   <i type="string" name="PREC">n</i>
   <i name="ENMAX">    520.00000000</i>
   <i name="ENAUG">    490.69000000</i>
   <i name="EDIFF">      0.00001000</i>
   <i type="int" name="IALGO">    38</i>
   <i type="int" name="IWAVPR">    10</i>
   <i type="int" name="NBANDS">   128</i>
   <i type="int" name="NBANDSLOW">    -1</i>
   <i type="int" name="NBANDSHIGH">    -1</i>
   <i name="NELECT">    133.00000000</i>
   <i type="int" name="TURBO">     0</i>
   <i type="int" name="IRESTART">     0</i>
   <i type="int" name="NREBOOT">     0</i>
   <i type="int" name="NMIN">     0</i>
   <i name="EREF">      0.00000000</i>
   <separator name="electronic smearing" >
    <i type="int" name="ISMEAR">     1</i>
    <i name="SIGMA">      0.10000000</i>
    <i name="KSPACING">      0.50000000</i>
    <i type="logical" name="KGAMMA"> T  </i>
    <i type="logical" name="KBLOWUP"> T  </i>
   </separator>
   <separator name="electronic projectors" >
    <i type="logical" name="LREAL"> F  </i>
    <v name="ROPT">      0.00000000      0.00000000      0.00000000</v>
    <i type="int" name="LMAXPAW">  -100</i>
    <i type="int" name="LMAXMIX">     2</i>
    <i type="logical" name="NLSPLINE"> F  </i>
   </separator>
   <separator name="electronic startup" >
    <i type="int" name="ISTART">     0</i>
    <i type="int" name="ICHARG">     2</i>
    <i type="int" name="INIWAV">     1</i>
   </separator>
   <separator name="electronic spin" >
    <i type="int" name="ISPIN">     1</i>
    <i type="logical" name="LNONCOLLINEAR"> F  </i>
    <v name="MAGMOM">      1.00000000      1.00000000      1.00000000      1.00000000      1.00000000      1.00000000      1.00000000      1.00000000      1.00000000      1.00000000      1.00000000      1.00000000      1.00000000      1.00000000      1.00000000      1.00000000      1.00000000</v>
    <i name="NUPDOWN">     -1.00000000</i>
    <i type="logical" name="LSORBIT"> F  </i>
    <v name="SAXIS">      0.00000000      0.00000000      1.00000000</v>
    <i type="logical" name="LSPIRAL"> F  </i>
    <v name="QSPIRAL">      0.00000000      0.00000000      0.00000000</v>
    <i type="logical" name="LZEROZ"> F  </i>
   </separator>
   <separator name="electronic exchange-correlation" >
    <i type="logical" name="LASPH"> F  </i>
   </separator>
   <separator name="electronic convergence" >
    <i type="int" name="NELM">   500</i>
    <i type="int" name="NELMDL">    -5</i>
    <i type="int" name="NELMIN">     2</i>
    <i name="ENINI">    520.00000000</i>
    <separator name="electronic convergence detail" >
     <i type="logical" name="LDIAG"> T  </i>
     <i type="logical" name="LSUBROT"> F  </i>
     <i name="WEIMIN">      0.00000000</i>
     <i name="EBREAK">      0.00000002</i>
     <i name="DEPER">      0.30000000</i>
     <i type="int" name="NRMM">     4</i>
     <i name="TIME">      0.40000000</i>
    </separator>
   </separator>
   <separator name="electronic mixer" >
    <i name="AMIX">      0.40000000</i>
    <i name="BMIX">      1.00000000</i>
    <i name="AMIN">      0.10000000</i>
    <i name="AMIX_MAG">      1.60000000</i>
    <i name="BMIX_MAG">      1.00000000</i>
    <separator name="electronic mixer details" >
     <i type="int" name="IMIX">     4</i>
     <i type="logical" name="MIXFIRST"> F  </i>
     <i type="int" name="MAXMIX">   -45</i>
     <i name="WC">    100.00000000</i>
     <i type="int" name="INIMIX">     1</i>
     <i type="int" name="MIXPRE">     1</i>
     <i type="int" name="MREMOVE">     5</i>
    </separator>
   </separator>
   <separator name="electronic dipolcorrection" >
    <i type="logical" name="LDIPOL"> F  </i>
    <i type="logical" name="LMONO"> F  </i>
    <i type="int" name="IDIPOL">     0</i>
    <i name="EPSILON">      1.00000000</i>
    <v name="DIPOL">   -100.00000000   -100.00000000   -100.00000000</v>
    <i name="EFIELD">      0.00000000</i>
    <i type="logical" name="LVACPOTAV"> F  </i>
   </separator>
  </separator>
  <separator name="grids" >
   <i type="int" name="NGX">    36</i>
   <i type="int" name="NGY">    48</i>
   <i type="int" name="NGZ">   112</i>
   <i type="int" name="NGXF">    72</i>
   <i type="int" name="NGYF">    96</i>
   <i type="int" name="NGZF">   224</i>
   <i type="logical" name="ADDGRID"> F  </i>
  </separator>
  <separator name="ionic" >
   <i type="int" name="NSW">     0</i>
   <i type="int" name="IBRION">    -1</i>
   <i type="int" name="MDALGO">     0</i>
   <i type="int" name="ISIF">     3</i>
   <i name="PSTRESS">      0.00000000</i>
   <i name="EDIFFG">     -0.01000000</i>
   <i type="int" name="NFREE">     0</i>
   <i name="POTIM">      0.50000000</i>
   <i name="SMASS">     -3.00000000</i>
   <i name="SCALEE">      1.00000000</i>
  </separator>
  <separator name="ionic md" >
   <i name="TEBEG">      0.00010000</i>
   <i name="TEEND">      0.00010000</i>
   <i type="int" name="NBLOCK">     1</i>
   <i type="int" name="KBLOCK">     1</i>
   <i type="int" name="NPACO">   256</i>
   <i name="APACO">     10.00000000</i>
  </separator>
  <separator name="symmetry" >
   <i type="int" name="ISYM">     2</i>
   <i name="SYMPREC">      0.00001000</i>
  </separator>
  <separator name="dos" >
   <i type="int" name="LORBIT">     0</i>
   <v name="RWIGS">     -1.00000000     -1.00000000     -1.00000000</v>
   <i type="int" name="NEDOS">   301</i>
   <i name="EMIN">     10.00000000</i>
   <i name="EMAX">    -10.00000000</i>
   <i name="EFERMI">      0.00000000</i>
  </separator>
  <separator name="writing" >
   <i type="int" name="NWRITE">     2</i>
   <i type="logical" name="LWAVE"> T  </i>
   <i type="logical" name="LDOWNSAMPLE"> F  </i>
   <i type="logical" name="LCHARG"> T  </i>
   <i type="logical" name="LPARD"> F  </i>
   <i type="logical" name="LVTOT"> F  </i>
   <i type="logical" name="LVHAR"> T  </i>
   <i type="logical" name="LELF"> F  </i>
   <i type="logical" name="LOPTICS"> F  </i>
   <v name="STM">      0.00000000      0.00000000      0.00000000      0.00000000      0.00000000      0.00000000      0.00000000</v>
  </separator>
  <separator name="performance" >
   <i type="int" name="NPAR">    64</i>
   <i type="int" name="NSIM">     4</i>
   <i type="int" name="NBLK">    -1</i>
   <i type="logical" name="LPLANE"> T  </i>
   <i type="logical" name="LSCALAPACK"> T  </i>
   <i type="logical" name="LSCAAWARE"> F  </i>
   <i type="logical" name="LSCALU"> F  </i>
   <i type="logical" name="LASYNC"> F  </i>
   <i type="logical" name="LORBITALREAL"> F  </i>
  </separator>
  <separator name="miscellaneous" >
   <i type="int" name="IDIOT">     3</i>
   <i type="int" name="PHON_NSTRUCT">    -1</i>
   <i type="logical" name="LMUSIC"> F  </i>
   <v name="POMASS">     47.88000000     26.98100000     69.72300000</v>
   <v name="DARWINR">      0.00000000      0.00000000      0.00000000</v>
   <v name="DARWINV">      1.00000000      1.00000000      1.00000000</v>
   <i type="logical" name="LCORR"> T  </i>
  </separator>
  <i type="logical" name="GGA_COMPAT"> T  </i>
  <i type="logical" name="LBERRY"> F  </i>
  <i type="int" name="ICORELEVEL">     0</i>
  <i type="logical" name="LDAU"> F  </i>
  <i type="int" name="I_CONSTRAINED_M">     0</i>
  <separator name="electronic exchange-correlation" >
   <i type="string" name="GGA    ">PE</i>
   <i type="string" name="XC_C">1</i>
   <i type="int" name="VOSKOWN">     0</i>
   <i type="logical" name="LHFCALC"> F  </i>
   <i type="string" name="PRECFOCK"></i>
   <i type="logical" name="LSYMGRAD"> F  </i>
   <i type="logical" name="LHFONE"> F  </i>
   <i type="logical" name="LRHFCALC"> F  </i>
   <i type="logical" name="LTHOMAS"> F  </i>
   <i type="logical" name="LMODELHF"> F  </i>
   <i type="logical" name="LFOCKACE"> F  </i>
   <i name="ENCUT4O">     -1.00000000</i>
   <i type="int" name="EXXOEP">     0</i>
   <i type="int" name="FOURORBIT">     0</i>
   <i name="AEXX">      0.00000000</i>
   <i name="HFALPHA">      0.00000000</i>
   <i name="MCALPHA">      0.00000000</i>
   <i name="ALDAX">      1.00000000</i>
   <i name="AGGAX">      1.00000000</i>
   <i name="AMGGAX">      1.00000000</i>
   <i name="ALDAC">      1.00000000</i>
   <i name="AGGAC">      1.00000000</i>
   <i name="AMGGAC">      1.00000000</i>
   <i type="int" name="NKREDX">     1</i>
   <i type="int" name="NKREDY">     1</i>
   <i type="int" name="NKREDZ">     1</i>
   <i type="logical" name="SHIFTRED"> F  </i>
   <i type="logical" name="ODDONLY"> F  </i>
   <i type="logical" name="EVENONLY"> F  </i>
   <i type="int" name="LMAXFOCK">     0</i>
   <i type="int" name="NMAXFOCKAE">     0</i>
   <i type="logical" name="LFOCKAEDFT"> F  </i>
   <i name="HFSCREEN">      0.00000000</i>
   <i name="HFSCREENC">      0.00000000</i>
   <i type="int" name="NBANDSGWLOW">     0</i>
  </separator>
  <separator name="vdW DFT" >
   <i type="logical" name="LUSE_VDW"> F  </i>
   <i type="int" name="IVDW_NL">    -1</i>
   <i type="logical" name="LSPIN_VDW"> F  </i>
   <i name="ZAB_VDW">     -0.84910000</i>
   <i name="GAMMA_VDW">      1.39626340</i>
   <i name="ALPHA_VDW">      0.00000000</i>
   <i name="PARAM1">      0.12340000</i>
   <i name="PARAM2">      1.00000000</i>
   <i name="BPARAM">      6.30000000</i>
   <i name="CPARAM">      0.00930000</i>
  </separator>
  <separator name="model GW" >
   <i type="int" name="MODEL_GW">     0</i>
   <i name="MODEL_EPS0">     33.64727568</i>
   <i name="MODEL_ALPHA">      1.00000000</i>
  </separator>
  <separator name="linear response parameters" >
   <i type="logical" name="LEPSILON"> F  </i>
   <i type="logical" name="LRPA"> F  </i>
   <i type="logical" name="LNABLA"> F  </i>
   <i type="logical" name="LVEL"> F  </i>
   <i name="CSHIFT">      0.10000000</i>
   <i name="OMEGAMAX">     -1.00000000</i>
   <i name="DEG_THRESHOLD">      0.00200000</i>
   <i name="RTIME">     -0.10000000</i>
   <i name="WPLASMAI">      0.00000000</i>
   <v name="DFIELD">      0.00000000      0.00000000      0.00000000</v>
   <v name="WPLASMA">      0.00000000      0.00000000      0.00000000      0.00000000      0.00000000      0.00000000      0.00000000      0.00000000      0.00000000</v>
  </separator>
  <separator name="orbital magnetization" >
   <i type="logical" name="NUCIND"> F  </i>
   <v name="MAGPOS">      0.00000000      0.00000000      0.00000000</v>
   <i type="logical" name="LNICSALL"> T  </i>
   <i type="logical" name="ORBITALMAG"> F  </i>
   <i type="logical" name="LMAGBLOCH"> F  </i>
   <i type="logical" name="LCHIMAG"> F  </i>
   <i type="logical" name="LGAUGE"> T  </i>
   <i type="int" name="MAGATOM">     0</i>
   <v name="MAGDIPOL">      0.00000000      0.00000000      0.00000000</v>
   <v name="AVECCONST">      0.00000000      0.00000000      0.00000000</v>
  </separator>
  <separator name="response functions" >
   <i type="logical" name="LALL_IN_ONE"> F  </i>
   <i type="int" name="IALL_IN_ONE">    -1</i>
   <i type="int" name="NBANDS_WAVE">    -1</i>
   <i type="logical" name="LFINITE_TEMPERATURE"> F  </i>
   <i type="logical" name="LADDER"> F  </i>
   <i type="logical" name="LRPAFORCE"> F  </i>
   <i type="logical" name="LFXC"> F  </i>
   <i type="logical" name="LHARTREE"> T  </i>
   <i type="int" name="IBSE">     2</i>
   <v type="int" name="KPOINT">    -1     0     0     0</v>
   <i type="logical" name="LTCTC"> F  </i>
   <i type="logical" name="LTCTE"> F  </i>
   <i type="logical" name="LTETE"> F  </i>
   <i type="logical" name="LTRIPLET"> F  </i>
   <i type="logical" name="LFXCEPS"> F  </i>
   <i type="logical" name="LFXHEG"> F  </i>
   <i type="int" name="NATURALO">     2</i>
   <i type="logical" name="LHOLEGF"> F  </i>
   <i type="logical" name="L2ORDER"> F  </i>
   <i type="logical" name="LDMP1"> F  </i>
   <i type="logical" name="LMP2LT"> F  </i>
   <i type="logical" name="LSMP2LT"> F  </i>
   <i type="logical" name="LGWLF"> F  </i>
   <i name="ENCUTGW">     -1.60000002</i>
   <i name="ENCUTGWSOFT">     -1.60000002</i>
   <i name="ENCUTLF">     -1.00000000</i>
   <i type="logical" name="ESF_SPLINES"> F  </i>
   <i name="ESF_CONV">      0.01000000</i>
   <i type="int" name="ESF_NINTER">    15</i>
   <i type="int" name="LMAXMP2">    -1</i>
   <i name="SCISSOR">      0.00000000</i>
   <i type="int" name="NOMEGA">     0</i>
   <i type="int" name="NOMEGAR">     0</i>
   <i type="int" name="NBANDSGW">    -1</i>
   <i type="int" name="NBANDSO">    -1</i>
   <i type="int" name="NBANDSV">    -1</i>
   <i type="int" name="NELMGW">     1</i>
   <i type="int" name="NELMHF">     1</i>
   <i type="int" name="DIM">     3</i>
   <i type="int" name="IESPILON">     4</i>
   <i type="int" name="ANTIRES">     0</i>
   <i name="OMEGAMAX">    -30.00000000</i>
   <i name="OMEGAMIN">    -30.00000000</i>
   <i name="OMEGATL">   -200.00000000</i>
   <i type="int" name="OMEGAGRID">     0</i>
   <i name="CSHIFT">     -0.10000000</i>
   <i type="logical" name="LSELFENERGY"> F  </i>
   <i type="logical" name="LSPECTRAL"> F  </i>
   <i type="logical" name="LSPECTRALGW"> F  </i>
   <i type="logical" name="LSINGLES"> F  </i>
   <i type="logical" name="LFERMIGW"> F  </i>
   <i type="logical" name="ODDONLYGW"> F  </i>
   <i type="logical" name="EVENONLYGW"> F  </i>
   <i type="int" name="NKREDLFX">     1</i>
   <i type="int" name="NKREDLFY">     1</i>
   <i type="int" name="NKREDLFZ">     1</i>
   <i type="int" name="MAXMEM">  2800</i>
   <i type="int" name="TELESCOPE">     0</i>
   <i type="int" name="NTAUPAR">    -1</i>
   <i type="int" name="NOMEGAPAR">    -1</i>
   <i name="DAMP_NEWTON">      0.80000001</i>
   <i name="LAMBDA">      1.00000000</i>
  </separator>
  <separator name="External order field" >
   <i name="OFIELD_KAPPA">      0.00000000</i>
   <v name="OFIELD_K">      0.00000000      0.00000000      0.00000000</v>
   <i name="OFIELD_Q6_NEAR">      0.00000000</i>
   <i name="OFIELD_Q6_FAR">      0.00000000</i>
   <i name="OFIELD_A">      0.00000000</i>
  </separator>
  <separator name="optional k-points parameters" >
   <i type="int" name="KPOINTS_OPT_MODE">     1</i>
   <i type="logical" name="LKPOINTS_OPT"> F  </i>
  </separator>
 </parameters>
 <atominfo>
  <atoms>      17 </atoms>
  <types>       3 </types>
  <array name="atoms" >
   <dimension dim="1">ion</dimension>
   <field type="string">element</field>
   <field type="int">atomtype</field>
   <set>
    <rc><c>Ti</c><c>   1</c></rc>
    <rc><c>Ti</c><c>   1</c></rc>
    <rc><c>Ti</c><c>   1</c></rc>
    <rc><c>Ti</c><c>   1</c></rc>
    <rc><c>Ti</c><c>   1</c></rc>
    <rc><c>Ti</c><c>   1</c></rc>
    <rc><c>Ti</c><c>   1</c></rc>
    <rc><c>Ti</c><c>   1</c></rc>
    <rc><c>Al</c><c>   2</c></rc>
    <rc><c>Al</c><c>   2</c></rc>
    <rc><c>Al</c><c>   2</c></rc>
    <rc><c>Al</c><c>   2</c></rc>
    <rc><c>Al</c><c>   2</c></rc>
    <rc><c>Al</c><c>   2</c></rc>
    <rc><c>Al</c><c>   2</c></rc>
    <rc><c>Al</c><c>   2</c></rc>
    <rc><c>Ga</c><c>   3</c></rc>
   </set>
  </array>
  <array name="atomtypes" >
   <dimension dim="1">type</dimension>
   <field type="int">atomspertype</field>
   <field type="string">element</field>
   <field>mass</field>
   <field>valence</field>
   <field type="string">pseudopotential</field>
   <set>
    <rc><c>   8</c><c>Ti</c><c>     47.88000000</c><c>     12.00000000</c><c>  PAW_PBE Ti_sv 26Sep2005               </c></rc>
    <rc><c>   8</c><c>Al</c><c>     26.98100000</c><c>      3.00000000</c><c>  PAW_PBE Al 04Jan2001                  </c></rc>
    <rc><c>   1</c><c>Ga</c><c>     69.72300000</c><c>     13.00000000</c><c>  PAW_PBE Ga_d 06Jul2010                </c></rc>
   </set>
  </array>
 </atominfo>
 <structure name="initialpos" >
  <crystal>
   <varray name="basis" >
    <v>       5.85845550       0.00000000       0.00000000 </v>
    <v>       0.00000000       8.30027397       0.00000000 </v>
    <v>       0.00000000       0.00000000      19.60523328 </v>
   </varray>
   <i name="volume">    953.33947761 </i>
   <varray name="rec_basis" >
    <v>       0.17069345      -0.00000000      -0.00000000 </v>
    <v>       0.00000000       0.12047795      -0.00000000 </v>
    <v>       0.00000000       0.00000000       0.05100679 </v>
   </varray>
  </crystal>
  <varray name="positions" >
   <v>       0.00000000       0.01867368       0.38255092 </v>
   <v>       0.00000000       0.48132632       0.38255092 </v>
   <v>       0.50000000       0.99550713       0.38255092 </v>
   <v>       0.50000000       0.50449287       0.38255092 </v>
   <v>       0.00000000       0.99550713       0.53196142 </v>
   <v>       0.00000000       0.50449287       0.53196142 </v>
   <v>       0.50000000       0.04638282       0.53196142 </v>
   <v>       0.50000000       0.45361718       0.53196142 </v>
   <v>       0.24268531       0.25000000       0.45507039 </v>
   <v>       0.21391683       0.75000000       0.44647376 </v>
   <v>       0.75731469       0.25000000       0.45507039 </v>
   <v>       0.78608317       0.75000000       0.44647376 </v>
   <v>       0.24268531       0.25000000       0.60885246 </v>
   <v>       0.21391683       0.75000000       0.61744908 </v>
   <v>       0.75731469       0.25000000       0.60885246 </v>
   <v>       0.78608317       0.75000000       0.61744908 </v>
   <v>       0.50000000       0.75000000       0.53196142 </v>
  </varray>
 </structure>
 <calculation>
  <scstep>
   <time name="dav">    3.10    3.10</time>
   <time name="total">    3.14    3.14</time>
   <energy>
    <i name="alphaZ">    105.70989314 </i>
    <i name="ewald">  18413.80910048 </i>
    <i name="hartreedc"> -31415.92738679 </i>
    <i name="XCdc">    322.44522481 </i>
    <i name="pawpsdc">  12249.27850793 </i>
    <i name="pawaedc"> -12170.51614461 </i>
    <i name="eentropy">     -0.00186626 </i>
    <i name="bandstr">  -1825.46186700 </i>
    <i name="atom">  15281.81476201 </i>
    <i name="e_fr_energy">    961.15022371 </i>
    <i name="e_wo_entrp">    961.15208997 </i>
    <i name="e_0_energy">    961.15084580 </i>
   </energy>
  </scstep>
  <scstep>
   <time name="dav">    3.59    3.59</time>
   <time name="total">    3.59    3.59</time>
   <energy>
    <i name="e_fr_energy">      4.82001408 </i>
    <i name="e_wo_entrp">      4.81088226 </i>
    <i name="e_0_energy">      4.81697014 </i>
   </energy>
  </scstep>
  <scstep>
   <time name="dav">    7.36    7.36</time>
   <time name="total">    7.36    7.36</time>
   <energy>
    <i name="e_fr_energy">   -100.89054218 </i>
    <i name="e_wo_entrp">   -100.89295603 </i>
    <i name="e_0_energy">   -100.89134680 </i>
   </energy>
  </scstep>
  <scstep>
   <time name="dav">    3.87    3.87</time>
   <time name="total">    3.87    3.87</time>
   <energy>
    <i name="e_fr_energy">   -107.03991160 </i>
    <i name="e_wo_entrp">   -107.04131960 </i>
    <i name="e_0_energy">   -107.04038093 </i>
   </energy>
  </scstep>
  <scstep>
   <time name="dav">    6.21    6.21</time>
   <time name="total">    6.27    6.27</time>
   <energy>
    <i name="e_fr_energy">   -107.46012486 </i>
    <i name="e_wo_entrp">   -107.46150838 </i>
    <i name="e_0_energy">   -107.46058603 </i>
   </energy>
  </scstep>
  <scstep>
   <time name="dav">    6.11    6.11</time>
   <time name="total">    6.20    6.20</time>
   <energy>
    <i name="e_fr_energy">   -134.84082071 </i>
    <i name="e_wo_entrp">   -134.83091157 </i>
    <i name="e_0_energy">   -134.83751766 </i>
   </energy>
  </scstep>
  <scstep>
   <time name="dav">    5.18    5.18</time>
   <time name="total">    5.27    5.27</time>
   <energy>
    <i name="e_fr_energy">   -101.08009675 </i>
    <i name="e_wo_entrp">   -101.07915701 </i>
    <i name="e_0_energy">   -101.07978350 </i>
   </energy>
  </scstep>
  <scstep>
   <time name="dav">    5.11    5.11</time>
   <time name="total">    5.20    5.20</time>
   <energy>
    <i name="e_fr_energy">    -91.67179019 </i>
    <i name="e_wo_entrp">    -91.65833206 </i>
    <i name="e_0_energy">    -91.66730415 </i>
   </energy>
  </scstep>
  <scstep>
   <time name="dav">    6.02    6.02</time>
   <time name="total">    6.12    6.12</time>
   <energy>
    <i name="e_fr_energy">    -88.41623100 </i>
    <i name="e_wo_entrp">    -88.42134742 </i>
    <i name="e_0_energy">    -88.41793647 </i>
   </energy>
  </scstep>
  <scstep>
   <time name="dav">    4.95    4.95</time>
   <time name="total">    5.04    5.04</time>
   <energy>
    <i name="e_fr_energy">    -86.85899167 </i>
    <i name="e_wo_entrp">    -86.86754237 </i>
    <i name="e_0_energy">    -86.86184191 </i>
   </energy>
  </scstep>
  <scstep>
   <time name="dav">    5.69    5.69</time>
   <time name="total">    5.79    5.79</time>
   <energy>
    <i name="e_fr_energy">    -86.56440060 </i>
    <i name="e_wo_entrp">    -86.56869805 </i>
    <i name="e_0_energy">    -86.56583308 </i>
   </energy>
  </scstep>
  <scstep>
   <time name="dav">    5.27    5.27</time>
   <time name="total">    5.37    5.37</time>
   <energy>
    <i name="e_fr_energy">    -86.17467517 </i>
    <i name="e_wo_entrp">    -86.18239798 </i>
    <i name="e_0_energy">    -86.17724944 </i>
   </energy>
  </scstep>
  <scstep>
   <time name="dav">    4.97    4.97</time>
   <time name="total">    5.07    5.07</time>
   <energy>
    <i name="e_fr_energy">    -86.13985501 </i>
    <i name="e_wo_entrp">    -86.14694767 </i>
    <i name="e_0_energy">    -86.14221923 </i>
   </energy>
  </scstep>
  <scstep>
   <time name="dav">    5.30    5.30</time>
   <time name="total">    5.39    5.39</time>
   <energy>
    <i name="e_fr_energy">    -86.13408721 </i>
    <i name="e_wo_entrp">    -86.14037333 </i>
    <i name="e_0_energy">    -86.13618258 </i>
   </energy>
  </scstep>
  <scstep>
   <time name="dav">    4.61    4.61</time>
   <time name="total">    4.70    4.70</time>
   <energy>
    <i name="e_fr_energy">    -86.13259484 </i>
    <i name="e_wo_entrp">    -86.13915618 </i>
    <i name="e_0_energy">    -86.13478195 </i>
   </energy>
  </scstep>
  <scstep>
   <time name="dav">    5.18    5.18</time>
   <time name="total">    5.27    5.27</time>
   <energy>
    <i name="e_fr_energy">    -86.13451528 </i>
    <i name="e_wo_entrp">    -86.14112349 </i>
    <i name="e_0_energy">    -86.13671802 </i>
   </energy>
  </scstep>
  <scstep>
   <time name="dav">    4.66    4.66</time>
   <time name="total">    4.75    4.75</time>
   <energy>
    <i name="e_fr_energy">    -86.13693114 </i>
    <i name="e_wo_entrp">    -86.14342221 </i>
    <i name="e_0_energy">    -86.13909483 </i>
   </energy>
  </scstep>
  <scstep>
   <time name="dav">    4.79    4.79</time>
   <time name="total">    4.89    4.89</time>
   <energy>
    <i name="e_fr_energy">    -86.13730481 </i>
    <i name="e_wo_entrp">    -86.14386437 </i>
    <i name="e_0_energy">    -86.13949133 </i>
   </energy>
  </scstep>
  <scstep>
   <time name="dav">    4.77    4.77</time>
   <time name="total">    4.86    4.86</time>
   <energy>
    <i name="e_fr_energy">    -86.13763606 </i>
    <i name="e_wo_entrp">    -86.14417570 </i>
    <i name="e_0_energy">    -86.13981594 </i>
   </energy>
  </scstep>
  <scstep>
   <time name="dav">    4.57    4.57</time>
   <time name="total">    4.66    4.66</time>
   <energy>
    <i name="e_fr_energy">    -86.13782883 </i>
    <i name="e_wo_entrp">    -86.14437138 </i>
    <i name="e_0_energy">    -86.14000968 </i>
   </energy>
  </scstep>
  <scstep>
   <time name="dav">    5.03    5.03</time>
   <time name="total">    5.13    5.13</time>
   <energy>
    <i name="e_fr_energy">    -86.13812222 </i>
    <i name="e_wo_entrp">    -86.14465094 </i>
    <i name="e_0_energy">    -86.14029846 </i>
   </energy>
  </scstep>
  <scstep>
   <time name="dav">    4.93    4.93</time>
   <time name="total">    5.03    5.03</time>
   <energy>
    <i name="e_fr_energy">    -86.13835760 </i>
    <i name="e_wo_entrp">    -86.14487380 </i>
    <i name="e_0_energy">    -86.14052967 </i>
   </energy>
  </scstep>
  <scstep>
   <time name="dav">    4.78    4.78</time>
   <time name="total">    4.88    4.88</time>
   <energy>
    <i name="e_fr_energy">    -86.13860869 </i>
    <i name="e_wo_entrp">    -86.14511158 </i>
    <i name="e_0_energy">    -86.14077632 </i>
   </energy>
  </scstep>
  <scstep>
   <time name="dav">    4.30    4.30</time>
   <time name="total">    4.39    4.39</time>
   <energy>
    <i name="e_fr_energy">    -86.13872587 </i>
    <i name="e_wo_entrp">    -86.14522880 </i>
    <i name="e_0_energy">    -86.14089351 </i>
   </energy>
  </scstep>
  <scstep>
   <time name="dav">    3.91    3.91</time>
   <time name="total">    4.00    4.00</time>
   <energy>
    <i name="e_fr_energy">    -86.13879870 </i>
    <i name="e_wo_entrp">    -86.14530091 </i>
    <i name="e_0_energy">    -86.14096611 </i>
   </energy>
  </scstep>
  <scstep>
   <time name="dav">    4.04    4.04</time>
   <time name="total">    4.13    4.13</time>
   <energy>
    <i name="e_fr_energy">    -86.13881565 </i>
    <i name="e_wo_entrp">    -86.14531770 </i>
    <i name="e_0_energy">    -86.14098300 </i>
   </energy>
  </scstep>
  <scstep>
   <time name="dav">    3.84    3.84</time>
   <time name="total">    3.87    3.87</time>
   <energy>
    <i name="alphaZ">    105.70989314 </i>
    <i name="ewald">  18413.80910048 </i>
    <i name="hartreedc"> -31485.31362175 </i>
    <i name="XCdc">    315.41449197 </i>
    <i name="pawpsdc">  14081.99688557 </i>
    <i name="pawaedc"> -13978.30147660 </i>
    <i name="eentropy">      0.00650177 </i>
    <i name="bandstr">  -2821.27535683 </i>
    <i name="atom">  15281.81476201 </i>
    <i name="e_fr_energy">    -86.13882025 </i>
    <i name="e_wo_entrp">    -86.14532202 </i>
    <i name="e_0_energy">    -86.14098750 </i>
   </energy>
  </scstep>
  <structure>
   <crystal>
    <varray name="basis" >
     <v>       5.85845550       0.00000000       0.00000000 </v>
     <v>       0.00000000       8.30027397       0.00000000 </v>
     <v>       0.00000000       0.00000000      19.60523328 </v>
    </varray>
    <i name="volume">    953.33947761 </i>
    <varray name="rec_basis" >
     <v>       0.17069345      -0.00000000      -0.00000000 </v>
     <v>       0.00000000       0.12047795      -0.00000000 </v>
     <v>       0.00000000       0.00000000       0.05100679 </v>
    </varray>
   </crystal>
   <varray name="positions" >
    <v>       0.00000000       0.01867368       0.38255092 </v>
    <v>       0.00000000       0.48132632       0.38255092 </v>
    <v>       0.50000000       0.99550713       0.38255092 </v>
    <v>       0.50000000       0.50449287       0.38255092 </v>
    <v>       0.00000000       0.99550713       0.53196142 </v>
    <v>       0.00000000       0.50449287       0.53196142 </v>
    <v>       0.50000000       0.04638282       0.53196142 </v>
    <v>       0.50000000       0.45361718       0.53196142 </v>
    <v>       0.24268531       0.25000000       0.45507039 </v>
    <v>       0.21391683       0.75000000       0.44647376 </v>
    <v>       0.75731469       0.25000000       0.45507039 </v>
    <v>       0.78608317       0.75000000       0.44647376 </v>
    <v>       0.24268531       0.25000000       0.60885246 </v>
    <v>       0.21391683       0.75000000       0.61744908 </v>
    <v>       0.75731469       0.25000000       0.60885246 </v>
    <v>       0.78608317       0.75000000       0.61744908 </v>
    <v>       0.50000000       0.75000000       0.53196142 </v>
   </varray>
  </structure>
  <varray name="forces" >
   <v>       0.00000000       0.04616949       0.74376792 </v>
   <v>       0.00000000      -0.04616949       0.74376792 </v>
   <v>       0.00000000       0.08834565       1.08694864 </v>
   <v>       0.00000000      -0.08834565       1.08694864 </v>
   <v>       0.00000000       0.21088641      -0.03661582 </v>
   <v>      -0.00000000      -0.21088641      -0.03661582 </v>
   <v>       0.00000000       0.10749940       0.04083357 </v>
   <v>      -0.00000000      -0.10749940       0.04083357 </v>
   <v>      -0.10056183      -0.00000000      -0.32473976 </v>
   <v>       0.04432823      -0.00000000      -1.11179073 </v>
   <v>       0.10056183      -0.00000000      -0.32473976 </v>
   <v>      -0.04432823      -0.00000000      -1.11179073 </v>
   <v>      -0.53559319      -0.00000000      -0.62671864 </v>
   <v>       0.15745980       0.00000000       0.13482978 </v>
   <v>       0.53559319      -0.00000000      -0.62671864 </v>
   <v>      -0.15745980       0.00000000       0.13482978 </v>
   <v>       0.00000000       0.00000000       0.18697007 </v>
  </varray>
  <varray name="stress" >
   <v>     -16.64613768      -0.00000000      -0.00000000 </v>
   <v>      -0.00000000     -18.88208623      -0.00000000 </v>
   <v>      -0.00000000      -0.00000000     -12.67832615 </v>
  </varray>
  <energy>
   <i name="e_fr_energy">    -86.13882025 </i>
   <i name="e_wo_entrp">    -86.14532202 </i>
   <i name="e_0_energy">    -86.14098750 </i>
  </energy>
  <time name="totalsc">  141.73  141.74</time>
  <eigenvalues>
   <array>
    <dimension dim="1">band</dimension>
    <dimension dim="2">kpoint</dimension>
    <dimension dim="3">spin</dimension>
    <field>eigene</field>
    <field>occ</field>
    <set>
     <set comment="spin 1">
      <set comment="kpoint 1">
       <r>  -57.3612    1.0000 </r>
       <r>  -57.3609    1.0000 </r>
       <r>  -57.1909    1.0000 </r>
       <r>  -57.1904    1.0000 </r>
       <r>  -57.0581    1.0000 </r>
       <r>  -57.0578    1.0000 </r>
       <r>  -56.7426    1.0000 </r>
       <r>  -56.7392    1.0000 </r>
       <r>  -33.7785    1.0000 </r>
       <r>  -33.7755    1.0000 </r>
       <r>  -33.6577    1.0000 </r>
       <r>  -33.6520    1.0000 </r>
       <r>  -33.5969    1.0000 </r>
       <r>  -33.5956    1.0000 </r>
       <r>  -33.5221    1.0000 </r>
       <r>  -33.5209    1.0000 </r>
       <r>  -33.4930    1.0000 </r>
       <r>  -33.4811    1.0000 </r>
       <r>  -33.4032    1.0000 </r>
       <r>  -33.3938    1.0000 </r>
       <r>  -33.2979    1.0000 </r>
       <r>  -33.2960    1.0000 </r>
       <r>  -33.2681    1.0000 </r>
       <r>  -33.2672    1.0000 </r>
       <r>  -33.1890    1.0000 </r>
       <r>  -33.1884    1.0000 </r>
       <r>  -33.0758    1.0000 </r>
       <r>  -33.0683    1.0000 </r>
       <r>  -33.0675    1.0000 </r>
       <r>  -33.0208    1.0000 </r>
       <r>  -32.8878    1.0000 </r>
       <r>  -32.8837    1.0000 </r>
       <r>  -15.3320    1.0000 </r>
       <r>  -15.2181    1.0000 </r>
       <r>  -15.1897    1.0000 </r>
       <r>  -15.1346    1.0000 </r>
       <r>  -15.1254    1.0000 </r>
       <r>   -9.2417    1.0000 </r>
       <r>   -7.1710    1.0000 </r>
       <r>   -6.5354    1.0000 </r>
       <r>   -5.4910    1.0000 </r>
       <r>   -5.0907    1.0000 </r>
       <r>   -4.9008    1.0000 </r>
       <r>   -4.5165    1.0000 </r>
       <r>   -4.1084    1.0000 </r>
       <r>   -3.3310    1.0000 </r>
       <r>   -2.9631    1.0000 </r>
       <r>   -2.9400    1.0000 </r>
       <r>   -2.8011    1.0000 </r>
       <r>   -2.5691    1.0000 </r>
       <r>   -2.3047    1.0000 </r>
       <r>   -2.0109    1.0000 </r>
       <r>   -1.8926    1.0000 </r>
       <r>   -1.7162    1.0000 </r>
       <r>   -1.5593    1.0000 </r>
       <r>   -1.2139    1.0000 </r>
       <r>   -1.1373    1.0000 </r>
       <r>   -0.9482    1.0000 </r>
       <r>   -0.9140    1.0000 </r>
       <r>   -0.7666    1.0000 </r>
       <r>   -0.5384    1.0000 </r>
       <r>   -0.5079    1.0000 </r>
       <r>   -0.4610    1.0000 </r>
       <r>   -0.4242    1.0000 </r>
       <r>   -0.3309    1.0006 </r>
       <r>   -0.2392    1.0172 </r>
       <r>   -0.1914    1.0353 </r>
       <r>   -0.0937    0.7248 </r>
       <r>    0.0345   -0.0257 </r>
       <r>    0.1022   -0.0193 </r>
       <r>    0.1746   -0.0017 </r>
       <r>    0.2092   -0.0003 </r>
       <r>    0.2828   -0.0000 </r>
       <r>    0.5957   -0.0000 </r>
       <r>    0.6832   -0.0000 </r>
       <r>    0.7006   -0.0000 </r>
       <r>    0.7689   -0.0000 </r>
       <r>    0.9861   -0.0000 </r>
       <r>    1.0851   -0.0000 </r>
       <r>    1.2083   -0.0000 </r>
       <r>    1.2167   -0.0000 </r>
       <r>    1.2741   -0.0000 </r>
       <r>    1.2955   -0.0000 </r>
       <r>    1.3959   -0.0000 </r>
       <r>    1.5012   -0.0000 </r>
       <r>    1.5243   -0.0000 </r>
       <r>    1.5361   -0.0000 </r>
       <r>    1.6679   -0.0000 </r>
       <r>    1.7051   -0.0000 </r>
       <r>    1.8688   -0.0000 </r>
       <r>    1.9114   -0.0000 </r>
       <r>    1.9121   -0.0000 </r>
       <r>    2.0932    0.0000 </r>
       <r>    2.1201    0.0000 </r>
       <r>    2.1758    0.0000 </r>
       <r>    2.2378    0.0000 </r>
       <r>    2.7316    0.0000 </r>
       <r>    2.7848    0.0000 </r>
       <r>    2.8915    0.0000 </r>
       <r>    3.0625    0.0000 </r>
       <r>    3.1903    0.0000 </r>
       <r>    3.3877    0.0000 </r>
       <r>    3.6647    0.0000 </r>
       <r>    3.7619    0.0000 </r>
       <r>    3.9522    0.0000 </r>
       <r>    4.0282    0.0000 </r>
       <r>    4.0329    0.0000 </r>
       <r>    4.1053    0.0000 </r>
       <r>    4.4152    0.0000 </r>
       <r>    4.4707    0.0000 </r>
       <r>    4.5541    0.0000 </r>
       <r>    4.6788    0.0000 </r>
       <r>    5.0237    0.0000 </r>
       <r>    5.1362    0.0000 </r>
       <r>    5.1732    0.0000 </r>
       <r>    5.2464    0.0000 </r>
       <r>    5.2908    0.0000 </r>
       <r>    5.4139    0.0000 </r>
       <r>    5.7135    0.0000 </r>
       <r>    5.8573    0.0000 </r>
       <r>    5.9008    0.0000 </r>
       <r>    5.9346    0.0000 </r>
       <r>    5.9587    0.0000 </r>
       <r>    6.1585    0.0000 </r>
       <r>    6.1946    0.0000 </r>
       <r>    6.2116    0.0000 </r>
       <r>    6.3271    0.0000 </r>
       <r>    6.4731    0.0000 </r>
      </set>
      <set comment="kpoint 2">
       <r>  -57.3608    1.0000 </r>
       <r>  -57.3605    1.0000 </r>
       <r>  -57.1914    1.0000 </r>
       <r>  -57.1908    1.0000 </r>
       <r>  -57.0580    1.0000 </r>
       <r>  -57.0576    1.0000 </r>
       <r>  -56.7428    1.0000 </r>
       <r>  -56.7394    1.0000 </r>
       <r>  -33.7782    1.0000 </r>
       <r>  -33.7752    1.0000 </r>
       <r>  -33.6572    1.0000 </r>
       <r>  -33.6515    1.0000 </r>
       <r>  -33.5975    1.0000 </r>
       <r>  -33.5963    1.0000 </r>
       <r>  -33.5045    1.0000 </r>
       <r>  -33.5026    1.0000 </r>
       <r>  -33.4917    1.0000 </r>
       <r>  -33.4806    1.0000 </r>
       <r>  -33.4034    1.0000 </r>
       <r>  -33.3940    1.0000 </r>
       <r>  -33.2857    1.0000 </r>
       <r>  -33.2839    1.0000 </r>
       <r>  -33.2678    1.0000 </r>
       <r>  -33.2668    1.0000 </r>
       <r>  -33.2087    1.0000 </r>
       <r>  -33.2080    1.0000 </r>
       <r>  -33.0759    1.0000 </r>
       <r>  -33.0686    1.0000 </r>
       <r>  -33.0675    1.0000 </r>
       <r>  -33.0206    1.0000 </r>
       <r>  -32.9008    1.0000 </r>
       <r>  -32.8965    1.0000 </r>
       <r>  -15.3322    1.0000 </r>
       <r>  -15.2179    1.0000 </r>
       <r>  -15.1894    1.0000 </r>
       <r>  -15.1346    1.0000 </r>
       <r>  -15.1255    1.0000 </r>
       <r>   -9.1517    1.0000 </r>
       <r>   -7.0900    1.0000 </r>
       <r>   -6.4297    1.0000 </r>
       <r>   -5.9861    1.0000 </r>
       <r>   -5.3851    1.0000 </r>
       <r>   -4.7173    1.0000 </r>
       <r>   -4.3856    1.0000 </r>
       <r>   -3.9880    1.0000 </r>
       <r>   -3.8415    1.0000 </r>
       <r>   -3.1548    1.0000 </r>
       <r>   -2.9044    1.0000 </r>
       <r>   -2.4705    1.0000 </r>
       <r>   -2.3154    1.0000 </r>
       <r>   -2.1704    1.0000 </r>
       <r>   -1.8780    1.0000 </r>
       <r>   -1.6469    1.0000 </r>
       <r>   -1.5580    1.0000 </r>
       <r>   -1.5254    1.0000 </r>
       <r>   -1.1876    1.0000 </r>
       <r>   -1.1282    1.0000 </r>
       <r>   -1.0435    1.0000 </r>
       <r>   -0.9050    1.0000 </r>
       <r>   -0.7464    1.0000 </r>
       <r>   -0.6590    1.0000 </r>
       <r>   -0.5496    1.0000 </r>
       <r>   -0.4087    1.0000 </r>
       <r>   -0.4028    1.0000 </r>
       <r>   -0.3161    1.0012 </r>
       <r>   -0.2139    1.0286 </r>
       <r>   -0.1675    1.0266 </r>
       <r>   -0.1376    0.9653 </r>
       <r>   -0.0428    0.3090 </r>
       <r>    0.0897   -0.0250 </r>
       <r>    0.2016   -0.0005 </r>
       <r>    0.3522   -0.0000 </r>
       <r>    0.6175   -0.0000 </r>
       <r>    0.6378   -0.0000 </r>
       <r>    0.6866   -0.0000 </r>
       <r>    0.7743   -0.0000 </r>
       <r>    0.8079   -0.0000 </r>
       <r>    0.9605   -0.0000 </r>
       <r>    1.0250   -0.0000 </r>
       <r>    1.1024   -0.0000 </r>
       <r>    1.1256   -0.0000 </r>
       <r>    1.1750   -0.0000 </r>
       <r>    1.2224   -0.0000 </r>
       <r>    1.3321   -0.0000 </r>
       <r>    1.3909   -0.0000 </r>
       <r>    1.4589   -0.0000 </r>
       <r>    1.4865   -0.0000 </r>
       <r>    1.6963   -0.0000 </r>
       <r>    1.7626   -0.0000 </r>
       <r>    1.7746   -0.0000 </r>
       <r>    1.8639   -0.0000 </r>
       <r>    1.8844   -0.0000 </r>
       <r>    2.0237    0.0000 </r>
       <r>    2.0612    0.0000 </r>
       <r>    2.1367    0.0000 </r>
       <r>    2.2996    0.0000 </r>
       <r>    2.4996    0.0000 </r>
       <r>    2.6495    0.0000 </r>
       <r>    2.7749    0.0000 </r>
       <r>    2.8800    0.0000 </r>
       <r>    3.2903    0.0000 </r>
       <r>    3.4817    0.0000 </r>
       <r>    3.7876    0.0000 </r>
       <r>    3.9347    0.0000 </r>
       <r>    4.0422    0.0000 </r>
       <r>    4.0710    0.0000 </r>
       <r>    4.1239    0.0000 </r>
       <r>    4.2076    0.0000 </r>
       <r>    4.3361    0.0000 </r>
       <r>    4.5495    0.0000 </r>
       <r>    4.6720    0.0000 </r>
       <r>    4.7089    0.0000 </r>
       <r>    4.8332    0.0000 </r>
       <r>    5.1273    0.0000 </r>
       <r>    5.3002    0.0000 </r>
       <r>    5.3646    0.0000 </r>
       <r>    5.5215    0.0000 </r>
       <r>    5.5248    0.0000 </r>
       <r>    5.7138    0.0000 </r>
       <r>    5.8317    0.0000 </r>
       <r>    5.8909    0.0000 </r>
       <r>    5.9077    0.0000 </r>
       <r>    6.0047    0.0000 </r>
       <r>    6.0661    0.0000 </r>
       <r>    6.1772    0.0000 </r>
       <r>    6.1777    0.0000 </r>
       <r>    6.3312    0.0000 </r>
       <r>    6.3367    0.0000 </r>
      </set>
      <set comment="kpoint 3">
       <r>  -57.3599    1.0000 </r>
       <r>  -57.3596    1.0000 </r>
       <r>  -57.1923    1.0000 </r>
       <r>  -57.1918    1.0000 </r>
       <r>  -57.0576    1.0000 </r>
       <r>  -57.0572    1.0000 </r>
       <r>  -56.7432    1.0000 </r>
       <r>  -56.7399    1.0000 </r>
       <r>  -33.7775    1.0000 </r>
       <r>  -33.7745    1.0000 </r>
       <r>  -33.6559    1.0000 </r>
       <r>  -33.6503    1.0000 </r>
       <r>  -33.5989    1.0000 </r>
       <r>  -33.5976    1.0000 </r>
       <r>  -33.4959    1.0000 </r>
       <r>  -33.4845    1.0000 </r>
       <r>  -33.4515    1.0000 </r>
       <r>  -33.4500    1.0000 </r>
       <r>  -33.4037    1.0000 </r>
       <r>  -33.3944    1.0000 </r>
       <r>  -33.2677    1.0000 </r>
       <r>  -33.2667    1.0000 </r>
       <r>  -33.2653    1.0000 </r>
       <r>  -33.2642    1.0000 </r>
       <r>  -33.2524    1.0000 </r>
       <r>  -33.2512    1.0000 </r>
       <r>  -33.0762    1.0000 </r>
       <r>  -33.0692    1.0000 </r>
       <r>  -33.0670    1.0000 </r>
       <r>  -33.0199    1.0000 </r>
       <r>  -32.9299    1.0000 </r>
       <r>  -32.9251    1.0000 </r>
       <r>  -15.3325    1.0000 </r>
       <r>  -15.2176    1.0000 </r>
       <r>  -15.1888    1.0000 </r>
       <r>  -15.1346    1.0000 </r>
       <r>  -15.1257    1.0000 </r>
       <r>   -8.9207    1.0000 </r>
       <r>   -7.0819    1.0000 </r>
       <r>   -6.5409    1.0000 </r>
       <r>   -6.0698    1.0000 </r>
       <r>   -5.4949    1.0000 </r>
       <r>   -5.0715    1.0000 </r>
       <r>   -4.7536    1.0000 </r>
       <r>   -4.0098    1.0000 </r>
       <r>   -3.8909    1.0000 </r>
       <r>   -3.2592    1.0000 </r>
       <r>   -2.7691    1.0000 </r>
       <r>   -2.1788    1.0000 </r>
       <r>   -2.1073    1.0000 </r>
       <r>   -1.8330    1.0000 </r>
       <r>   -1.6073    1.0000 </r>
       <r>   -1.5956    1.0000 </r>
       <r>   -1.4317    1.0000 </r>
       <r>   -1.2962    1.0000 </r>
       <r>   -1.2919    1.0000 </r>
       <r>   -1.0642    1.0000 </r>
       <r>   -1.0550    1.0000 </r>
       <r>   -0.8365    1.0000 </r>
       <r>   -0.6780    1.0000 </r>
       <r>   -0.4593    1.0000 </r>
       <r>   -0.3280    1.0007 </r>
       <r>   -0.3016    1.0022 </r>
       <r>   -0.2891    1.0035 </r>
       <r>   -0.2416    1.0162 </r>
       <r>   -0.0944    0.7295 </r>
       <r>   -0.0885    0.6847 </r>
       <r>   -0.0124    0.1106 </r>
       <r>    0.0326   -0.0237 </r>
       <r>    0.0618   -0.0350 </r>
       <r>    0.2558   -0.0000 </r>
       <r>    0.4138   -0.0000 </r>
       <r>    0.4932   -0.0000 </r>
       <r>    0.6019   -0.0000 </r>
       <r>    0.6961   -0.0000 </r>
       <r>    0.7834   -0.0000 </r>
       <r>    0.7914   -0.0000 </r>
       <r>    0.8835   -0.0000 </r>
       <r>    0.9114   -0.0000 </r>
       <r>    0.9908   -0.0000 </r>
       <r>    1.0660   -0.0000 </r>
       <r>    1.0817   -0.0000 </r>
       <r>    1.0996   -0.0000 </r>
       <r>    1.2509   -0.0000 </r>
       <r>    1.2845   -0.0000 </r>
       <r>    1.3055   -0.0000 </r>
       <r>    1.3727   -0.0000 </r>
       <r>    1.4043   -0.0000 </r>
       <r>    1.6512   -0.0000 </r>
       <r>    1.6685   -0.0000 </r>
       <r>    1.7177   -0.0000 </r>
       <r>    1.7762   -0.0000 </r>
       <r>    1.8449   -0.0000 </r>
       <r>    1.8722   -0.0000 </r>
       <r>    2.0685    0.0000 </r>
       <r>    2.2065    0.0000 </r>
       <r>    2.2893    0.0000 </r>
       <r>    2.8842    0.0000 </r>
       <r>    2.9058    0.0000 </r>
       <r>    3.1394    0.0000 </r>
       <r>    3.3808    0.0000 </r>
       <r>    3.5733    0.0000 </r>
       <r>    3.7337    0.0000 </r>
       <r>    4.0291    0.0000 </r>
       <r>    4.1177    0.0000 </r>
       <r>    4.2538    0.0000 </r>
       <r>    4.2707    0.0000 </r>
       <r>    4.4283    0.0000 </r>
       <r>    4.4935    0.0000 </r>
       <r>    4.5601    0.0000 </r>
       <r>    4.5797    0.0000 </r>
       <r>    4.7010    0.0000 </r>
       <r>    4.9442    0.0000 </r>
       <r>    4.9755    0.0000 </r>
       <r>    5.2207    0.0000 </r>
       <r>    5.3360    0.0000 </r>
       <r>    5.5421    0.0000 </r>
       <r>    5.5426    0.0000 </r>
       <r>    5.5764    0.0000 </r>
       <r>    5.6684    0.0000 </r>
       <r>    5.7176    0.0000 </r>
       <r>    5.8186    0.0000 </r>
       <r>    5.8829    0.0000 </r>
       <r>    5.9068    0.0000 </r>
       <r>    6.0905    0.0000 </r>
       <r>    6.2884    0.0000 </r>
       <r>    6.3243    0.0000 </r>
       <r>    6.5363    0.0000 </r>
      </set>
      <set comment="kpoint 4">
       <r>  -57.3595    1.0000 </r>
       <r>  -57.3592    1.0000 </r>
       <r>  -57.1928    1.0000 </r>
       <r>  -57.1922    1.0000 </r>
       <r>  -57.0574    1.0000 </r>
       <r>  -57.0570    1.0000 </r>
       <r>  -56.7434    1.0000 </r>
       <r>  -56.7401    1.0000 </r>
       <r>  -33.7771    1.0000 </r>
       <r>  -33.7742    1.0000 </r>
       <r>  -33.6553    1.0000 </r>
       <r>  -33.6497    1.0000 </r>
       <r>  -33.5996    1.0000 </r>
       <r>  -33.5983    1.0000 </r>
       <r>  -33.4961    1.0000 </r>
       <r>  -33.4843    1.0000 </r>
       <r>  -33.4122    1.0000 </r>
       <r>  -33.4111    1.0000 </r>
       <r>  -33.4035    1.0000 </r>
       <r>  -33.3943    1.0000 </r>
       <r>  -33.3017    1.0000 </r>
       <r>  -33.3005    1.0000 </r>
       <r>  -33.2669    1.0000 </r>
       <r>  -33.2660    1.0000 </r>
       <r>  -33.2418    1.0000 </r>
       <r>  -33.2404    1.0000 </r>
       <r>  -33.0762    1.0000 </r>
       <r>  -33.0696    1.0000 </r>
       <r>  -33.0663    1.0000 </r>
       <r>  -33.0190    1.0000 </r>
       <r>  -32.9467    1.0000 </r>
       <r>  -32.9417    1.0000 </r>
       <r>  -15.3327    1.0000 </r>
       <r>  -15.2174    1.0000 </r>
       <r>  -15.1885    1.0000 </r>
       <r>  -15.1346    1.0000 </r>
       <r>  -15.1257    1.0000 </r>
       <r>   -8.7548    1.0000 </r>
       <r>   -7.3476    1.0000 </r>
       <r>   -6.1613    1.0000 </r>
       <r>   -6.1474    1.0000 </r>
       <r>   -5.6222    1.0000 </r>
       <r>   -5.3934    1.0000 </r>
       <r>   -4.6336    1.0000 </r>
       <r>   -4.4878    1.0000 </r>
       <r>   -3.5022    1.0000 </r>
       <r>   -3.3635    1.0000 </r>
       <r>   -2.7206    1.0000 </r>
       <r>   -2.4769    1.0000 </r>
       <r>   -1.8037    1.0000 </r>
       <r>   -1.7419    1.0000 </r>
       <r>   -1.7224    1.0000 </r>
       <r>   -1.5165    1.0000 </r>
       <r>   -1.3151    1.0000 </r>
       <r>   -1.1383    1.0000 </r>
       <r>   -1.1185    1.0000 </r>
       <r>   -0.9925    1.0000 </r>
       <r>   -0.9433    1.0000 </r>
       <r>   -0.6945    1.0000 </r>
       <r>   -0.6082    1.0000 </r>
       <r>   -0.3121    1.0014 </r>
       <r>   -0.2627    1.0089 </r>
       <r>   -0.2233    1.0243 </r>
       <r>   -0.0923    0.7143 </r>
       <r>   -0.0858    0.6635 </r>
       <r>   -0.0628    0.4729 </r>
       <r>   -0.0174    0.1372 </r>
       <r>    0.0010    0.0508 </r>
       <r>    0.0116    0.0161 </r>
       <r>    0.0464   -0.0337 </r>
       <r>    0.0833   -0.0280 </r>
       <r>    0.4444   -0.0000 </r>
       <r>    0.4872   -0.0000 </r>
       <r>    0.4895   -0.0000 </r>
       <r>    0.6134   -0.0000 </r>
       <r>    0.7125   -0.0000 </r>
       <r>    0.7664   -0.0000 </r>
       <r>    0.8159   -0.0000 </r>
       <r>    0.8362   -0.0000 </r>
       <r>    1.0108   -0.0000 </r>
       <r>    1.0606   -0.0000 </r>
       <r>    1.0722   -0.0000 </r>
       <r>    1.1161   -0.0000 </r>
       <r>    1.1921   -0.0000 </r>
       <r>    1.2148   -0.0000 </r>
       <r>    1.2586   -0.0000 </r>
       <r>    1.2857   -0.0000 </r>
       <r>    1.3270   -0.0000 </r>
       <r>    1.3539   -0.0000 </r>
       <r>    1.6069   -0.0000 </r>
       <r>    1.6272   -0.0000 </r>
       <r>    1.6674   -0.0000 </r>
       <r>    1.7409   -0.0000 </r>
       <r>    1.8486   -0.0000 </r>
       <r>    1.9021   -0.0000 </r>
       <r>    2.0020    0.0000 </r>
       <r>    2.7141    0.0000 </r>
       <r>    2.8041    0.0000 </r>
       <r>    3.2520    0.0000 </r>
       <r>    3.2621    0.0000 </r>
       <r>    3.2833    0.0000 </r>
       <r>    3.7603    0.0000 </r>
       <r>    3.8170    0.0000 </r>
       <r>    3.9124    0.0000 </r>
       <r>    4.1202    0.0000 </r>
       <r>    4.2506    0.0000 </r>
       <r>    4.4835    0.0000 </r>
       <r>    4.6394    0.0000 </r>
       <r>    4.6570    0.0000 </r>
       <r>    4.7037    0.0000 </r>
       <r>    4.8279    0.0000 </r>
       <r>    4.8485    0.0000 </r>
       <r>    4.8775    0.0000 </r>
       <r>    4.9165    0.0000 </r>
       <r>    4.9443    0.0000 </r>
       <r>    5.0185    0.0000 </r>
       <r>    5.0214    0.0000 </r>
       <r>    5.3065    0.0000 </r>
       <r>    5.3256    0.0000 </r>
       <r>    5.4882    0.0000 </r>
       <r>    5.4931    0.0000 </r>
       <r>    5.5745    0.0000 </r>
       <r>    5.6220    0.0000 </r>
       <r>    6.1532    0.0000 </r>
       <r>    6.2688    0.0000 </r>
       <r>    6.2924    0.0000 </r>
       <r>    6.5241    0.0000 </r>
       <r>    6.5615    0.0000 </r>
      </set>
      <set comment="kpoint 5">
       <r>  -57.3612    1.0000 </r>
       <r>  -57.3610    1.0000 </r>
       <r>  -57.1909    1.0000 </r>
       <r>  -57.1904    1.0000 </r>
       <r>  -57.0581    1.0000 </r>
       <r>  -57.0578    1.0000 </r>
       <r>  -56.7425    1.0000 </r>
       <r>  -56.7393    1.0000 </r>
       <r>  -33.7781    1.0000 </r>
       <r>  -33.7759    1.0000 </r>
       <r>  -33.6569    1.0000 </r>
       <r>  -33.6529    1.0000 </r>
       <r>  -33.5967    1.0000 </r>
       <r>  -33.5958    1.0000 </r>
       <r>  -33.5220    1.0000 </r>
       <r>  -33.5211    1.0000 </r>
       <r>  -33.4921    1.0000 </r>
       <r>  -33.4819    1.0000 </r>
       <r>  -33.4019    1.0000 </r>
       <r>  -33.3951    1.0000 </r>
       <r>  -33.2977    1.0000 </r>
       <r>  -33.2962    1.0000 </r>
       <r>  -33.2680    1.0000 </r>
       <r>  -33.2673    1.0000 </r>
       <r>  -33.1889    1.0000 </r>
       <r>  -33.1884    1.0000 </r>
       <r>  -33.0752    1.0000 </r>
       <r>  -33.0683    1.0000 </r>
       <r>  -33.0662    1.0000 </r>
       <r>  -33.0228    1.0000 </r>
       <r>  -32.8878    1.0000 </r>
       <r>  -32.8837    1.0000 </r>
       <r>  -15.3320    1.0000 </r>
       <r>  -15.2178    1.0000 </r>
       <r>  -15.1897    1.0000 </r>
       <r>  -15.1346    1.0000 </r>
       <r>  -15.1254    1.0000 </r>
       <r>   -9.2038    1.0000 </r>
       <r>   -7.3041    1.0000 </r>
       <r>   -6.5129    1.0000 </r>
       <r>   -5.5656    1.0000 </r>
       <r>   -5.1065    1.0000 </r>
       <r>   -4.8979    1.0000 </r>
       <r>   -4.1046    1.0000 </r>
       <r>   -4.0771    1.0000 </r>
       <r>   -3.2776    1.0000 </r>
       <r>   -2.9857    1.0000 </r>
       <r>   -2.8999    1.0000 </r>
       <r>   -2.8852    1.0000 </r>
       <r>   -2.5440    1.0000 </r>
       <r>   -2.4827    1.0000 </r>
       <r>   -2.1345    1.0000 </r>
       <r>   -1.9163    1.0000 </r>
       <r>   -1.8378    1.0000 </r>
       <r>   -1.8067    1.0000 </r>
       <r>   -1.2623    1.0000 </r>
       <r>   -1.1126    1.0000 </r>
       <r>   -0.8844    1.0000 </r>
       <r>   -0.8754    1.0000 </r>
       <r>   -0.7025    1.0000 </r>
       <r>   -0.6404    1.0000 </r>
       <r>   -0.6213    1.0000 </r>
       <r>   -0.5840    1.0000 </r>
       <r>   -0.4152    1.0000 </r>
       <r>   -0.3877    1.0000 </r>
       <r>   -0.2164    1.0275 </r>
       <r>   -0.0332    0.2382 </r>
       <r>    0.0297   -0.0201 </r>
       <r>    0.0549   -0.0354 </r>
       <r>    0.1425   -0.0060 </r>
       <r>    0.3702   -0.0000 </r>
       <r>    0.4745   -0.0000 </r>
       <r>    0.5899   -0.0000 </r>
       <r>    0.5909   -0.0000 </r>
       <r>    0.6613   -0.0000 </r>
       <r>    0.7416   -0.0000 </r>
       <r>    0.7939   -0.0000 </r>
       <r>    0.7993   -0.0000 </r>
       <r>    0.9842   -0.0000 </r>
       <r>    1.1544   -0.0000 </r>
       <r>    1.3137   -0.0000 </r>
       <r>    1.3430   -0.0000 </r>
       <r>    1.3917   -0.0000 </r>
       <r>    1.4336   -0.0000 </r>
       <r>    1.4982   -0.0000 </r>
       <r>    1.5252   -0.0000 </r>
       <r>    1.5529   -0.0000 </r>
       <r>    1.6683   -0.0000 </r>
       <r>    1.6703   -0.0000 </r>
       <r>    1.6778   -0.0000 </r>
       <r>    1.8286   -0.0000 </r>
       <r>    1.9751    0.0000 </r>
       <r>    2.0872    0.0000 </r>
       <r>    2.1129    0.0000 </r>
       <r>    2.1250    0.0000 </r>
       <r>    2.4512    0.0000 </r>
       <r>    2.5298    0.0000 </r>
       <r>    2.8688    0.0000 </r>
       <r>    2.9407    0.0000 </r>
       <r>    2.9629    0.0000 </r>
       <r>    3.0374    0.0000 </r>
       <r>    3.2476    0.0000 </r>
       <r>    3.4262    0.0000 </r>
       <r>    3.7726    0.0000 </r>
       <r>    3.8199    0.0000 </r>
       <r>    3.8493    0.0000 </r>
       <r>    4.1434    0.0000 </r>
       <r>    4.2455    0.0000 </r>
       <r>    4.3043    0.0000 </r>
       <r>    4.4586    0.0000 </r>
       <r>    4.6055    0.0000 </r>
       <r>    4.6487    0.0000 </r>
       <r>    4.9543    0.0000 </r>
       <r>    5.0201    0.0000 </r>
       <r>    5.0904    0.0000 </r>
       <r>    5.1498    0.0000 </r>
       <r>    5.3246    0.0000 </r>
       <r>    5.5949    0.0000 </r>
       <r>    5.6399    0.0000 </r>
       <r>    5.7087    0.0000 </r>
       <r>    5.9107    0.0000 </r>
       <r>    5.9129    0.0000 </r>
       <r>    6.1316    0.0000 </r>
       <r>    6.1421    0.0000 </r>
       <r>    6.2477    0.0000 </r>
       <r>    6.3604    0.0000 </r>
       <r>    6.4972    0.0000 </r>
       <r>    6.6344    0.0000 </r>
      </set>
      <set comment="kpoint 6">
       <r>  -57.3607    1.0000 </r>
       <r>  -57.3605    1.0000 </r>
       <r>  -57.1914    1.0000 </r>
       <r>  -57.1909    1.0000 </r>
       <r>  -57.0579    1.0000 </r>
       <r>  -57.0577    1.0000 </r>
       <r>  -56.7427    1.0000 </r>
       <r>  -56.7395    1.0000 </r>
       <r>  -33.7778    1.0000 </r>
       <r>  -33.7756    1.0000 </r>
       <r>  -33.6563    1.0000 </r>
       <r>  -33.6523    1.0000 </r>
       <r>  -33.5974    1.0000 </r>
       <r>  -33.5964    1.0000 </r>
       <r>  -33.5043    1.0000 </r>
       <r>  -33.5029    1.0000 </r>
       <r>  -33.4910    1.0000 </r>
       <r>  -33.4814    1.0000 </r>
       <r>  -33.4021    1.0000 </r>
       <r>  -33.3953    1.0000 </r>
       <r>  -33.2855    1.0000 </r>
       <r>  -33.2841    1.0000 </r>
       <r>  -33.2677    1.0000 </r>
       <r>  -33.2670    1.0000 </r>
       <r>  -33.2087    1.0000 </r>
       <r>  -33.2081    1.0000 </r>
       <r>  -33.0754    1.0000 </r>
       <r>  -33.0686    1.0000 </r>
       <r>  -33.0661    1.0000 </r>
       <r>  -33.0226    1.0000 </r>
       <r>  -32.9008    1.0000 </r>
       <r>  -32.8965    1.0000 </r>
       <r>  -15.3322    1.0000 </r>
       <r>  -15.2176    1.0000 </r>
       <r>  -15.1894    1.0000 </r>
       <r>  -15.1346    1.0000 </r>
       <r>  -15.1255    1.0000 </r>
       <r>   -9.1161    1.0000 </r>
       <r>   -7.2025    1.0000 </r>
       <r>   -6.4161    1.0000 </r>
       <r>   -5.9905    1.0000 </r>
       <r>   -5.4590    1.0000 </r>
       <r>   -4.7524    1.0000 </r>
       <r>   -4.0854    1.0000 </r>
       <r>   -3.8606    1.0000 </r>
       <r>   -3.8208    1.0000 </r>
       <r>   -3.2011    1.0000 </r>
       <r>   -2.8499    1.0000 </r>
       <r>   -2.5649    1.0000 </r>
       <r>   -2.3339    1.0000 </r>
       <r>   -2.0859    1.0000 </r>
       <r>   -2.0526    1.0000 </r>
       <r>   -1.8443    1.0000 </r>
       <r>   -1.7470    1.0000 </r>
       <r>   -1.5681    1.0000 </r>
       <r>   -1.2172    1.0000 </r>
       <r>   -1.0471    1.0000 </r>
       <r>   -0.9236    1.0000 </r>
       <r>   -0.9182    1.0000 </r>
       <r>   -0.8000    1.0000 </r>
       <r>   -0.7287    1.0000 </r>
       <r>   -0.5432    1.0000 </r>
       <r>   -0.5208    1.0000 </r>
       <r>   -0.3461    1.0003 </r>
       <r>   -0.3050    1.0019 </r>
       <r>   -0.2156    1.0278 </r>
       <r>   -0.0758    0.5824 </r>
       <r>    0.0209   -0.0057 </r>
       <r>    0.0431   -0.0322 </r>
       <r>    0.1310   -0.0088 </r>
       <r>    0.2871   -0.0000 </r>
       <r>    0.4427   -0.0000 </r>
       <r>    0.5557   -0.0000 </r>
       <r>    0.5977   -0.0000 </r>
       <r>    0.6729   -0.0000 </r>
       <r>    0.7456   -0.0000 </r>
       <r>    0.8077   -0.0000 </r>
       <r>    0.9754   -0.0000 </r>
       <r>    1.0008   -0.0000 </r>
       <r>    1.0728   -0.0000 </r>
       <r>    1.1492   -0.0000 </r>
       <r>    1.2185   -0.0000 </r>
       <r>    1.2945   -0.0000 </r>
       <r>    1.3147   -0.0000 </r>
       <r>    1.4202   -0.0000 </r>
       <r>    1.4727   -0.0000 </r>
       <r>    1.5781   -0.0000 </r>
       <r>    1.6003   -0.0000 </r>
       <r>    1.6989   -0.0000 </r>
       <r>    1.7663   -0.0000 </r>
       <r>    1.8782   -0.0000 </r>
       <r>    1.9739    0.0000 </r>
       <r>    2.0517    0.0000 </r>
       <r>    2.0625    0.0000 </r>
       <r>    2.1749    0.0000 </r>
       <r>    2.2347    0.0000 </r>
       <r>    2.5966    0.0000 </r>
       <r>    2.6591    0.0000 </r>
       <r>    2.8159    0.0000 </r>
       <r>    3.0020    0.0000 </r>
       <r>    3.1218    0.0000 </r>
       <r>    3.3253    0.0000 </r>
       <r>    3.5156    0.0000 </r>
       <r>    3.7487    0.0000 </r>
       <r>    3.9042    0.0000 </r>
       <r>    3.9441    0.0000 </r>
       <r>    4.0442    0.0000 </r>
       <r>    4.2238    0.0000 </r>
       <r>    4.2931    0.0000 </r>
       <r>    4.3497    0.0000 </r>
       <r>    4.6457    0.0000 </r>
       <r>    4.7668    0.0000 </r>
       <r>    4.9023    0.0000 </r>
       <r>    5.1891    0.0000 </r>
       <r>    5.2560    0.0000 </r>
       <r>    5.2894    0.0000 </r>
       <r>    5.4405    0.0000 </r>
       <r>    5.6155    0.0000 </r>
       <r>    5.7507    0.0000 </r>
       <r>    5.7768    0.0000 </r>
       <r>    5.8056    0.0000 </r>
       <r>    5.9691    0.0000 </r>
       <r>    6.1404    0.0000 </r>
       <r>    6.2464    0.0000 </r>
       <r>    6.2700    0.0000 </r>
       <r>    6.3751    0.0000 </r>
       <r>    6.5898    0.0000 </r>
       <r>    6.6046    0.0000 </r>
      </set>
      <set comment="kpoint 7">
       <r>  -57.3599    1.0000 </r>
       <r>  -57.3596    1.0000 </r>
       <r>  -57.1923    1.0000 </r>
       <r>  -57.1918    1.0000 </r>
       <r>  -57.0575    1.0000 </r>
       <r>  -57.0573    1.0000 </r>
       <r>  -56.7432    1.0000 </r>
       <r>  -56.7399    1.0000 </r>
       <r>  -33.7771    1.0000 </r>
       <r>  -33.7749    1.0000 </r>
       <r>  -33.6551    1.0000 </r>
       <r>  -33.6511    1.0000 </r>
       <r>  -33.5987    1.0000 </r>
       <r>  -33.5978    1.0000 </r>
       <r>  -33.4951    1.0000 </r>
       <r>  -33.4854    1.0000 </r>
       <r>  -33.4514    1.0000 </r>
       <r>  -33.4502    1.0000 </r>
       <r>  -33.4024    1.0000 </r>
       <r>  -33.3956    1.0000 </r>
       <r>  -33.2676    1.0000 </r>
       <r>  -33.2668    1.0000 </r>
       <r>  -33.2652    1.0000 </r>
       <r>  -33.2643    1.0000 </r>
       <r>  -33.2522    1.0000 </r>
       <r>  -33.2513    1.0000 </r>
       <r>  -33.0758    1.0000 </r>
       <r>  -33.0692    1.0000 </r>
       <r>  -33.0655    1.0000 </r>
       <r>  -33.0219    1.0000 </r>
       <r>  -32.9299    1.0000 </r>
       <r>  -32.9251    1.0000 </r>
       <r>  -15.3325    1.0000 </r>
       <r>  -15.2173    1.0000 </r>
       <r>  -15.1888    1.0000 </r>
       <r>  -15.1346    1.0000 </r>
       <r>  -15.1257    1.0000 </r>
       <r>   -8.8922    1.0000 </r>
       <r>   -7.0398    1.0000 </r>
       <r>   -6.6872    1.0000 </r>
       <r>   -6.0364    1.0000 </r>
       <r>   -5.5806    1.0000 </r>
       <r>   -5.1431    1.0000 </r>
       <r>   -4.7269    1.0000 </r>
       <r>   -3.9552    1.0000 </r>
       <r>   -3.6561    1.0000 </r>
       <r>   -3.1984    1.0000 </r>
       <r>   -2.5811    1.0000 </r>
       <r>   -2.2173    1.0000 </r>
       <r>   -2.0754    1.0000 </r>
       <r>   -1.8620    1.0000 </r>
       <r>   -1.7203    1.0000 </r>
       <r>   -1.6657    1.0000 </r>
       <r>   -1.5445    1.0000 </r>
       <r>   -1.4703    1.0000 </r>
       <r>   -1.2969    1.0000 </r>
       <r>   -1.0764    1.0000 </r>
       <r>   -0.9818    1.0000 </r>
       <r>   -0.7647    1.0000 </r>
       <r>   -0.6373    1.0000 </r>
       <r>   -0.5232    1.0000 </r>
       <r>   -0.3672    1.0001 </r>
       <r>   -0.3404    1.0004 </r>
       <r>   -0.2952    1.0028 </r>
       <r>   -0.2253    1.0234 </r>
       <r>   -0.1447    0.9865 </r>
       <r>   -0.0612    0.4593 </r>
       <r>    0.0082    0.0262 </r>
       <r>    0.0631   -0.0348 </r>
       <r>    0.1346   -0.0078 </r>
       <r>    0.2789   -0.0000 </r>
       <r>    0.3167   -0.0000 </r>
       <r>    0.3816   -0.0000 </r>
       <r>    0.5059   -0.0000 </r>
       <r>    0.6018   -0.0000 </r>
       <r>    0.6270   -0.0000 </r>
       <r>    0.7642   -0.0000 </r>
       <r>    0.8415   -0.0000 </r>
       <r>    0.8729   -0.0000 </r>
       <r>    0.9996   -0.0000 </r>
       <r>    1.0787   -0.0000 </r>
       <r>    1.1101   -0.0000 </r>
       <r>    1.1651   -0.0000 </r>
       <r>    1.2486   -0.0000 </r>
       <r>    1.2742   -0.0000 </r>
       <r>    1.4199   -0.0000 </r>
       <r>    1.4858   -0.0000 </r>
       <r>    1.5429   -0.0000 </r>
       <r>    1.7008   -0.0000 </r>
       <r>    1.7809   -0.0000 </r>
       <r>    1.8245   -0.0000 </r>
       <r>    1.8760   -0.0000 </r>
       <r>    1.9315   -0.0000 </r>
       <r>    1.9874    0.0000 </r>
       <r>    2.1547    0.0000 </r>
       <r>    2.2965    0.0000 </r>
       <r>    2.5382    0.0000 </r>
       <r>    2.6075    0.0000 </r>
       <r>    2.9139    0.0000 </r>
       <r>    3.0537    0.0000 </r>
       <r>    3.1372    0.0000 </r>
       <r>    3.3443    0.0000 </r>
       <r>    3.6422    0.0000 </r>
       <r>    3.7905    0.0000 </r>
       <r>    3.8611    0.0000 </r>
       <r>    4.0753    0.0000 </r>
       <r>    4.1849    0.0000 </r>
       <r>    4.2718    0.0000 </r>
       <r>    4.4416    0.0000 </r>
       <r>    4.4938    0.0000 </r>
       <r>    4.6527    0.0000 </r>
       <r>    4.6915    0.0000 </r>
       <r>    4.8620    0.0000 </r>
       <r>    5.0127    0.0000 </r>
       <r>    5.3618    0.0000 </r>
       <r>    5.4359    0.0000 </r>
       <r>    5.5260    0.0000 </r>
       <r>    5.5640    0.0000 </r>
       <r>    5.6566    0.0000 </r>
       <r>    5.8048    0.0000 </r>
       <r>    5.8218    0.0000 </r>
       <r>    5.8473    0.0000 </r>
       <r>    5.9688    0.0000 </r>
       <r>    6.0568    0.0000 </r>
       <r>    6.2448    0.0000 </r>
       <r>    6.3256    0.0000 </r>
       <r>    6.3494    0.0000 </r>
       <r>    6.6275    0.0000 </r>
      </set>
      <set comment="kpoint 8">
       <r>  -57.3594    1.0000 </r>
       <r>  -57.3592    1.0000 </r>
       <r>  -57.1927    1.0000 </r>
       <r>  -57.1922    1.0000 </r>
       <r>  -57.0573    1.0000 </r>
       <r>  -57.0571    1.0000 </r>
       <r>  -56.7434    1.0000 </r>
       <r>  -56.7401    1.0000 </r>
       <r>  -33.7767    1.0000 </r>
       <r>  -33.7745    1.0000 </r>
       <r>  -33.6545    1.0000 </r>
       <r>  -33.6505    1.0000 </r>
       <r>  -33.5994    1.0000 </r>
       <r>  -33.5984    1.0000 </r>
       <r>  -33.4953    1.0000 </r>
       <r>  -33.4852    1.0000 </r>
       <r>  -33.4120    1.0000 </r>
       <r>  -33.4112    1.0000 </r>
       <r>  -33.4022    1.0000 </r>
       <r>  -33.3956    1.0000 </r>
       <r>  -33.3016    1.0000 </r>
       <r>  -33.3006    1.0000 </r>
       <r>  -33.2668    1.0000 </r>
       <r>  -33.2661    1.0000 </r>
       <r>  -33.2416    1.0000 </r>
       <r>  -33.2406    1.0000 </r>
       <r>  -33.0759    1.0000 </r>
       <r>  -33.0695    1.0000 </r>
       <r>  -33.0647    1.0000 </r>
       <r>  -33.0210    1.0000 </r>
       <r>  -32.9467    1.0000 </r>
       <r>  -32.9417    1.0000 </r>
       <r>  -15.3327    1.0000 </r>
       <r>  -15.2171    1.0000 </r>
       <r>  -15.1885    1.0000 </r>
       <r>  -15.1346    1.0000 </r>
       <r>  -15.1258    1.0000 </r>
       <r>   -8.7333    1.0000 </r>
       <r>   -7.2793    1.0000 </r>
       <r>   -6.3144    1.0000 </r>
       <r>   -6.2480    1.0000 </r>
       <r>   -5.5878    1.0000 </r>
       <r>   -5.3703    1.0000 </r>
       <r>   -4.7044    1.0000 </r>
       <r>   -4.5550    1.0000 </r>
       <r>   -3.2136    1.0000 </r>
       <r>   -3.0559    1.0000 </r>
       <r>   -2.6760    1.0000 </r>
       <r>   -2.4168    1.0000 </r>
       <r>   -1.8614    1.0000 </r>
       <r>   -1.8102    1.0000 </r>
       <r>   -1.5890    1.0000 </r>
       <r>   -1.5403    1.0000 </r>
       <r>   -1.5058    1.0000 </r>
       <r>   -1.4900    1.0000 </r>
       <r>   -1.0719    1.0000 </r>
       <r>   -0.8963    1.0000 </r>
       <r>   -0.7992    1.0000 </r>
       <r>   -0.6664    1.0000 </r>
       <r>   -0.6451    1.0000 </r>
       <r>   -0.5491    1.0000 </r>
       <r>   -0.3444    1.0003 </r>
       <r>   -0.1915    1.0353 </r>
       <r>   -0.1541    1.0079 </r>
       <r>   -0.1110    0.8414 </r>
       <r>   -0.0593    0.4429 </r>
       <r>   -0.0436    0.3153 </r>
       <r>    0.0016    0.0487 </r>
       <r>    0.0351   -0.0263 </r>
       <r>    0.0519   -0.0351 </r>
       <r>    0.1191   -0.0125 </r>
       <r>    0.2265   -0.0001 </r>
       <r>    0.3187   -0.0000 </r>
       <r>    0.4803   -0.0000 </r>
       <r>    0.5579   -0.0000 </r>
       <r>    0.6178   -0.0000 </r>
       <r>    0.7243   -0.0000 </r>
       <r>    0.7497   -0.0000 </r>
       <r>    0.8795   -0.0000 </r>
       <r>    0.9028   -0.0000 </r>
       <r>    0.9927   -0.0000 </r>
       <r>    1.0449   -0.0000 </r>
       <r>    1.1327   -0.0000 </r>
       <r>    1.1839   -0.0000 </r>
       <r>    1.2251   -0.0000 </r>
       <r>    1.4073   -0.0000 </r>
       <r>    1.4387   -0.0000 </r>
       <r>    1.4664   -0.0000 </r>
       <r>    1.6504   -0.0000 </r>
       <r>    1.6768   -0.0000 </r>
       <r>    1.7653   -0.0000 </r>
       <r>    1.8126   -0.0000 </r>
       <r>    1.8811   -0.0000 </r>
       <r>    1.9302   -0.0000 </r>
       <r>    2.1717    0.0000 </r>
       <r>    2.3128    0.0000 </r>
       <r>    2.6363    0.0000 </r>
       <r>    2.7331    0.0000 </r>
       <r>    2.8362    0.0000 </r>
       <r>    3.0384    0.0000 </r>
       <r>    3.2988    0.0000 </r>
       <r>    3.3702    0.0000 </r>
       <r>    3.8667    0.0000 </r>
       <r>    3.8697    0.0000 </r>
       <r>    4.0608    0.0000 </r>
       <r>    4.0983    0.0000 </r>
       <r>    4.1810    0.0000 </r>
       <r>    4.2364    0.0000 </r>
       <r>    4.4836    0.0000 </r>
       <r>    4.6603    0.0000 </r>
       <r>    4.6874    0.0000 </r>
       <r>    4.8355    0.0000 </r>
       <r>    4.8762    0.0000 </r>
       <r>    4.9264    0.0000 </r>
       <r>    4.9998    0.0000 </r>
       <r>    5.1229    0.0000 </r>
       <r>    5.2091    0.0000 </r>
       <r>    5.3722    0.0000 </r>
       <r>    5.5192    0.0000 </r>
       <r>    5.5892    0.0000 </r>
       <r>    5.6098    0.0000 </r>
       <r>    5.9560    0.0000 </r>
       <r>    6.0007    0.0000 </r>
       <r>    6.1047    0.0000 </r>
       <r>    6.1379    0.0000 </r>
       <r>    6.1523    0.0000 </r>
       <r>    6.2017    0.0000 </r>
       <r>    6.4304    0.0000 </r>
      </set>
      <set comment="kpoint 9">
       <r>  -57.3611    1.0000 </r>
       <r>  -57.3610    1.0000 </r>
       <r>  -57.1909    1.0000 </r>
       <r>  -57.1904    1.0000 </r>
       <r>  -57.0580    1.0000 </r>
       <r>  -57.0579    1.0000 </r>
       <r>  -56.7425    1.0000 </r>
       <r>  -56.7393    1.0000 </r>
       <r>  -33.7775    1.0000 </r>
       <r>  -33.7765    1.0000 </r>
       <r>  -33.6552    1.0000 </r>
       <r>  -33.6546    1.0000 </r>
       <r>  -33.5966    1.0000 </r>
       <r>  -33.5959    1.0000 </r>
       <r>  -33.5216    1.0000 </r>
       <r>  -33.5214    1.0000 </r>
       <r>  -33.4911    1.0000 </r>
       <r>  -33.4829    1.0000 </r>
       <r>  -33.3995    1.0000 </r>
       <r>  -33.3975    1.0000 </r>
       <r>  -33.2974    1.0000 </r>
       <r>  -33.2965    1.0000 </r>
       <r>  -33.2677    1.0000 </r>
       <r>  -33.2676    1.0000 </r>
       <r>  -33.1889    1.0000 </r>
       <r>  -33.1885    1.0000 </r>
       <r>  -33.0748    1.0000 </r>
       <r>  -33.0683    1.0000 </r>
       <r>  -33.0645    1.0000 </r>
       <r>  -33.0250    1.0000 </r>
       <r>  -32.8878    1.0000 </r>
       <r>  -32.8837    1.0000 </r>
       <r>  -15.3320    1.0000 </r>
       <r>  -15.2175    1.0000 </r>
       <r>  -15.1897    1.0000 </r>
       <r>  -15.1346    1.0000 </r>
       <r>  -15.1254    1.0000 </r>
       <r>   -9.1624    1.0000 </r>
       <r>   -7.4330    1.0000 </r>
       <r>   -6.4787    1.0000 </r>
       <r>   -5.6438    1.0000 </r>
       <r>   -5.0901    1.0000 </r>
       <r>   -4.8950    1.0000 </r>
       <r>   -4.1009    1.0000 </r>
       <r>   -3.4221    1.0000 </r>
       <r>   -3.1748    1.0000 </r>
       <r>   -3.1293    1.0000 </r>
       <r>   -2.8708    1.0000 </r>
       <r>   -2.7668    1.0000 </r>
       <r>   -2.7284    1.0000 </r>
       <r>   -2.7202    1.0000 </r>
       <r>   -2.6812    1.0000 </r>
       <r>   -1.9317    1.0000 </r>
       <r>   -1.6706    1.0000 </r>
       <r>   -1.5780    1.0000 </r>
       <r>   -1.4803    1.0000 </r>
       <r>   -1.4406    1.0000 </r>
       <r>   -0.8585    1.0000 </r>
       <r>   -0.8538    1.0000 </r>
       <r>   -0.7289    1.0000 </r>
       <r>   -0.7232    1.0000 </r>
       <r>   -0.7200    1.0000 </r>
       <r>   -0.5691    1.0000 </r>
       <r>   -0.3592    1.0001 </r>
       <r>   -0.2015    1.0333 </r>
       <r>   -0.1833    1.0350 </r>
       <r>    0.0831   -0.0281 </r>
       <r>    0.1122   -0.0151 </r>
       <r>    0.2168   -0.0002 </r>
       <r>    0.3337   -0.0000 </r>
       <r>    0.3363   -0.0000 </r>
       <r>    0.4486   -0.0000 </r>
       <r>    0.5166   -0.0000 </r>
       <r>    0.5214   -0.0000 </r>
       <r>    0.6212   -0.0000 </r>
       <r>    0.7099   -0.0000 </r>
       <r>    0.7438   -0.0000 </r>
       <r>    0.9572   -0.0000 </r>
       <r>    1.2135   -0.0000 </r>
       <r>    1.3344   -0.0000 </r>
       <r>    1.3902   -0.0000 </r>
       <r>    1.4174   -0.0000 </r>
       <r>    1.4282   -0.0000 </r>
       <r>    1.4460   -0.0000 </r>
       <r>    1.5186   -0.0000 </r>
       <r>    1.6010   -0.0000 </r>
       <r>    1.6634   -0.0000 </r>
       <r>    1.6862   -0.0000 </r>
       <r>    1.6898   -0.0000 </r>
       <r>    1.7132   -0.0000 </r>
       <r>    1.7299   -0.0000 </r>
       <r>    1.7795   -0.0000 </r>
       <r>    2.0523    0.0000 </r>
       <r>    2.1341    0.0000 </r>
       <r>    2.1749    0.0000 </r>
       <r>    2.2092    0.0000 </r>
       <r>    2.3826    0.0000 </r>
       <r>    2.6471    0.0000 </r>
       <r>    2.6605    0.0000 </r>
       <r>    2.7927    0.0000 </r>
       <r>    3.1672    0.0000 </r>
       <r>    3.3636    0.0000 </r>
       <r>    3.6668    0.0000 </r>
       <r>    3.7159    0.0000 </r>
       <r>    3.8570    0.0000 </r>
       <r>    3.8590    0.0000 </r>
       <r>    4.0549    0.0000 </r>
       <r>    4.0747    0.0000 </r>
       <r>    4.2483    0.0000 </r>
       <r>    4.3465    0.0000 </r>
       <r>    4.4761    0.0000 </r>
       <r>    4.4810    0.0000 </r>
       <r>    4.6247    0.0000 </r>
       <r>    4.9084    0.0000 </r>
       <r>    4.9348    0.0000 </r>
       <r>    5.2444    0.0000 </r>
       <r>    5.5226    0.0000 </r>
       <r>    5.5327    0.0000 </r>
       <r>    5.7696    0.0000 </r>
       <r>    5.8290    0.0000 </r>
       <r>    5.9789    0.0000 </r>
       <r>    6.0166    0.0000 </r>
       <r>    6.1928    0.0000 </r>
       <r>    6.3587    0.0000 </r>
       <r>    6.4689    0.0000 </r>
       <r>    6.5604    0.0000 </r>
       <r>    6.5923    0.0000 </r>
       <r>    6.6306    0.0000 </r>
      </set>
      <set comment="kpoint 10">
       <r>  -57.3607    1.0000 </r>
       <r>  -57.3606    1.0000 </r>
       <r>  -57.1913    1.0000 </r>
       <r>  -57.1909    1.0000 </r>
       <r>  -57.0578    1.0000 </r>
       <r>  -57.0577    1.0000 </r>
       <r>  -56.7427    1.0000 </r>
       <r>  -56.7395    1.0000 </r>
       <r>  -33.7772    1.0000 </r>
       <r>  -33.7762    1.0000 </r>
       <r>  -33.6546    1.0000 </r>
       <r>  -33.6540    1.0000 </r>
       <r>  -33.5972    1.0000 </r>
       <r>  -33.5966    1.0000 </r>
       <r>  -33.5038    1.0000 </r>
       <r>  -33.5032    1.0000 </r>
       <r>  -33.4901    1.0000 </r>
       <r>  -33.4823    1.0000 </r>
       <r>  -33.3997    1.0000 </r>
       <r>  -33.3978    1.0000 </r>
       <r>  -33.2851    1.0000 </r>
       <r>  -33.2844    1.0000 </r>
       <r>  -33.2674    1.0000 </r>
       <r>  -33.2673    1.0000 </r>
       <r>  -33.2086    1.0000 </r>
       <r>  -33.2081    1.0000 </r>
       <r>  -33.0750    1.0000 </r>
       <r>  -33.0686    1.0000 </r>
       <r>  -33.0644    1.0000 </r>
       <r>  -33.0248    1.0000 </r>
       <r>  -32.9008    1.0000 </r>
       <r>  -32.8965    1.0000 </r>
       <r>  -15.3322    1.0000 </r>
       <r>  -15.2173    1.0000 </r>
       <r>  -15.1894    1.0000 </r>
       <r>  -15.1346    1.0000 </r>
       <r>  -15.1255    1.0000 </r>
       <r>   -9.0775    1.0000 </r>
       <r>   -7.3164    1.0000 </r>
       <r>   -6.3905    1.0000 </r>
       <r>   -5.9803    1.0000 </r>
       <r>   -5.5367    1.0000 </r>
       <r>   -4.7889    1.0000 </r>
       <r>   -3.9911    1.0000 </r>
       <r>   -3.7955    1.0000 </r>
       <r>   -3.2780    1.0000 </r>
       <r>   -3.1862    1.0000 </r>
       <r>   -2.9581    1.0000 </r>
       <r>   -2.7003    1.0000 </r>
       <r>   -2.4978    1.0000 </r>
       <r>   -2.4877    1.0000 </r>
       <r>   -1.9906    1.0000 </r>
       <r>   -1.8263    1.0000 </r>
       <r>   -1.6124    1.0000 </r>
       <r>   -1.5633    1.0000 </r>
       <r>   -1.3926    1.0000 </r>
       <r>   -1.2407    1.0000 </r>
       <r>   -0.9192    1.0000 </r>
       <r>   -0.8695    1.0000 </r>
       <r>   -0.8137    1.0000 </r>
       <r>   -0.6744    1.0000 </r>
       <r>   -0.6506    1.0000 </r>
       <r>   -0.4733    1.0000 </r>
       <r>   -0.2997    1.0023 </r>
       <r>   -0.2047    1.0323 </r>
       <r>   -0.2001    1.0337 </r>
       <r>    0.0436   -0.0324 </r>
       <r>    0.0456   -0.0334 </r>
       <r>    0.0993   -0.0206 </r>
       <r>    0.3091   -0.0000 </r>
       <r>    0.3127   -0.0000 </r>
       <r>    0.4160   -0.0000 </r>
       <r>    0.4364   -0.0000 </r>
       <r>    0.4409   -0.0000 </r>
       <r>    0.5615   -0.0000 </r>
       <r>    0.7361   -0.0000 </r>
       <r>    0.8971   -0.0000 </r>
       <r>    0.9832   -0.0000 </r>
       <r>    1.0835   -0.0000 </r>
       <r>    1.1563   -0.0000 </r>
       <r>    1.1770   -0.0000 </r>
       <r>    1.2827   -0.0000 </r>
       <r>    1.3904   -0.0000 </r>
       <r>    1.4442   -0.0000 </r>
       <r>    1.4551   -0.0000 </r>
       <r>    1.5241   -0.0000 </r>
       <r>    1.5332   -0.0000 </r>
       <r>    1.5826   -0.0000 </r>
       <r>    1.6542   -0.0000 </r>
       <r>    1.7473   -0.0000 </r>
       <r>    1.9567    0.0000 </r>
       <r>    2.0252    0.0000 </r>
       <r>    2.0536    0.0000 </r>
       <r>    2.1242    0.0000 </r>
       <r>    2.1702    0.0000 </r>
       <r>    2.2695    0.0000 </r>
       <r>    2.4811    0.0000 </r>
       <r>    2.6426    0.0000 </r>
       <r>    2.6465    0.0000 </r>
       <r>    2.7325    0.0000 </r>
       <r>    3.0043    0.0000 </r>
       <r>    3.4069    0.0000 </r>
       <r>    3.4314    0.0000 </r>
[...]
       <r>   -2.6355    1.0000 </r>
       <r>   -2.6290    1.0000 </r>
       <r>   -2.5078    1.0000 </r>
       <r>   -2.1962    1.0000 </r>
       <r>   -1.8945    1.0000 </r>
       <r>   -1.8070    1.0000 </r>
       <r>   -1.7305    1.0000 </r>
       <r>   -1.3825    1.0000 </r>
       <r>   -1.2475    1.0000 </r>
       <r>   -1.1762    1.0000 </r>
       <r>   -0.9500    1.0000 </r>
       <r>   -0.9153    1.0000 </r>
       <r>   -0.6051    1.0000 </r>
       <r>   -0.5608    1.0000 </r>
       <r>   -0.5181    1.0000 </r>
       <r>   -0.4246    1.0000 </r>
       <r>   -0.3021    1.0021 </r>
       <r>   -0.2392    1.0172 </r>
       <r>   -0.1830    1.0350 </r>
       <r>   -0.1343    0.9537 </r>
       <r>   -0.0621    0.4670 </r>
       <r>   -0.0577    0.4297 </r>
       <r>    0.0650   -0.0345 </r>
       <r>    0.0899   -0.0250 </r>
       <r>    0.1333   -0.0082 </r>
       <r>    0.2782   -0.0000 </r>
       <r>    0.2960   -0.0000 </r>
       <r>    0.3830   -0.0000 </r>
       <r>    0.4978   -0.0000 </r>
       <r>    0.5184   -0.0000 </r>
       <r>    0.5528   -0.0000 </r>
       <r>    0.6097   -0.0000 </r>
       <r>    0.9177   -0.0000 </r>
       <r>    0.9244   -0.0000 </r>
       <r>    1.0115   -0.0000 </r>
       <r>    1.0765   -0.0000 </r>
       <r>    1.1128   -0.0000 </r>
       <r>    1.1426   -0.0000 </r>
       <r>    1.3185   -0.0000 </r>
       <r>    1.5354   -0.0000 </r>
       <r>    1.6372   -0.0000 </r>
       <r>    1.6376   -0.0000 </r>
       <r>    1.6935   -0.0000 </r>
       <r>    1.8006   -0.0000 </r>
       <r>    1.9502    0.0000 </r>
       <r>    1.9578    0.0000 </r>
       <r>    1.9802    0.0000 </r>
       <r>    2.0885    0.0000 </r>
       <r>    2.3120    0.0000 </r>
       <r>    2.3318    0.0000 </r>
       <r>    2.5611    0.0000 </r>
       <r>    2.5728    0.0000 </r>
       <r>    2.7964    0.0000 </r>
       <r>    2.9206    0.0000 </r>
       <r>    3.2639    0.0000 </r>
       <r>    3.3792    0.0000 </r>
       <r>    3.4771    0.0000 </r>
       <r>    3.6137    0.0000 </r>
       <r>    4.0811    0.0000 </r>
       <r>    4.0813    0.0000 </r>
       <r>    4.1661    0.0000 </r>
       <r>    4.2096    0.0000 </r>
       <r>    4.4087    0.0000 </r>
       <r>    4.5522    0.0000 </r>
       <r>    4.5619    0.0000 </r>
       <r>    4.8287    0.0000 </r>
       <r>    4.9197    0.0000 </r>
       <r>    4.9870    0.0000 </r>
       <r>    5.0065    0.0000 </r>
       <r>    5.1997    0.0000 </r>
       <r>    5.2199    0.0000 </r>
       <r>    5.3106    0.0000 </r>
       <r>    5.3515    0.0000 </r>
       <r>    5.5093    0.0000 </r>
       <r>    5.5200    0.0000 </r>
       <r>    5.6642    0.0000 </r>
       <r>    5.7378    0.0000 </r>
       <r>    5.8472    0.0000 </r>
       <r>    5.9103    0.0000 </r>
       <r>    6.4694    0.0000 </r>
       <r>    6.6962    0.0000 </r>
       <r>    6.6991    0.0000 </r>
      </set>
     </set>
    </set>
   </array>
  </eigenvalues>
  <separator name="orbital magnetization" >
   <v name="MAGDIPOLOUT">      0.00000000      0.00000000      0.00000000</v>
  </separator>
  <dos>
   <i name="efermi">     -0.06603494 </i>
   <total>
    <array>
     <dimension dim="1">gridpoints</dimension>
     <dimension dim="2">spin</dimension>
     <field>energy</field>
     <field>total</field>
     <field>integrated</field>
     <set>
      <set comment="spin 1">
       <r>   -60.5670     0.0000     0.0000 </r>
       <r>   -60.3319     0.0000     0.0000 </r>
       <r>   -60.0968     0.0000     0.0000 </r>
       <r>   -59.8617     0.0000     0.0000 </r>
       <r>   -59.6266     0.0000     0.0000 </r>
       <r>   -59.3915     0.0000     0.0000 </r>
       <r>   -59.1564     0.0000     0.0000 </r>
       <r>   -58.9214     0.0000     0.0000 </r>
       <r>   -58.6863     0.0000     0.0000 </r>
       <r>   -58.4512     0.0000     0.0000 </r>
       <r>   -58.2161    -0.0000    -0.0000 </r>
       <r>   -57.9810    -0.0000    -0.0000 </r>
       <r>   -57.7459    -0.0000    -0.0000 </r>
       <r>   -57.5108    -0.4662    -0.1096 </r>
       <r>   -57.2757    17.4195     3.9855 </r>
       <r>   -57.0406    28.4459    10.6728 </r>
       <r>   -56.8056     6.7182    12.2522 </r>
       <r>   -56.5705    16.2514    16.0727 </r>
       <r>   -56.3354    -0.3094    16.0000 </r>
       <r>   -56.1003    -0.0000    16.0000 </r>
       <r>   -55.8652     0.0000    16.0000 </r>
       <r>   -55.6301     0.0000    16.0000 </r>
       <r>   -55.3950     0.0000    16.0000 </r>
       <r>   -55.1599     0.0000    16.0000 </r>
       <r>   -54.9249     0.0000    16.0000 </r>
       <r>   -54.6898     0.0000    16.0000 </r>
       <r>   -54.4547     0.0000    16.0000 </r>
       <r>   -54.2196     0.0000    16.0000 </r>
       <r>   -53.9845     0.0000    16.0000 </r>
       <r>   -53.7494     0.0000    16.0000 </r>
       <r>   -53.5143     0.0000    16.0000 </r>
       <r>   -53.2792     0.0000    16.0000 </r>
       <r>   -53.0441     0.0000    16.0000 </r>
       <r>   -52.8091     0.0000    16.0000 </r>
       <r>   -52.5740     0.0000    16.0000 </r>
       <r>   -52.3389     0.0000    16.0000 </r>
       <r>   -52.1038     0.0000    16.0000 </r>
       <r>   -51.8687     0.0000    16.0000 </r>
       <r>   -51.6336     0.0000    16.0000 </r>
       <r>   -51.3985     0.0000    16.0000 </r>
       <r>   -51.1634     0.0000    16.0000 </r>
       <r>   -50.9283     0.0000    16.0000 </r>
       <r>   -50.6933     0.0000    16.0000 </r>
       <r>   -50.4582     0.0000    16.0000 </r>
       <r>   -50.2231     0.0000    16.0000 </r>
       <r>   -49.9880     0.0000    16.0000 </r>
       <r>   -49.7529     0.0000    16.0000 </r>
       <r>   -49.5178     0.0000    16.0000 </r>
       <r>   -49.2827     0.0000    16.0000 </r>
       <r>   -49.0476     0.0000    16.0000 </r>
       <r>   -48.8125     0.0000    16.0000 </r>
       <r>   -48.5775     0.0000    16.0000 </r>
       <r>   -48.3424     0.0000    16.0000 </r>
       <r>   -48.1073     0.0000    16.0000 </r>
       <r>   -47.8722     0.0000    16.0000 </r>
       <r>   -47.6371     0.0000    16.0000 </r>
       <r>   -47.4020     0.0000    16.0000 </r>
       <r>   -47.1669     0.0000    16.0000 </r>
       <r>   -46.9318     0.0000    16.0000 </r>
       <r>   -46.6968     0.0000    16.0000 </r>
       <r>   -46.4617     0.0000    16.0000 </r>
       <r>   -46.2266     0.0000    16.0000 </r>
       <r>   -45.9915     0.0000    16.0000 </r>
       <r>   -45.7564     0.0000    16.0000 </r>
       <r>   -45.5213     0.0000    16.0000 </r>
       <r>   -45.2862     0.0000    16.0000 </r>
       <r>   -45.0511     0.0000    16.0000 </r>
       <r>   -44.8160     0.0000    16.0000 </r>
       <r>   -44.5810     0.0000    16.0000 </r>
       <r>   -44.3459     0.0000    16.0000 </r>
       <r>   -44.1108     0.0000    16.0000 </r>
       <r>   -43.8757     0.0000    16.0000 </r>
       <r>   -43.6406     0.0000    16.0000 </r>
       <r>   -43.4055     0.0000    16.0000 </r>
       <r>   -43.1704     0.0000    16.0000 </r>
       <r>   -42.9353     0.0000    16.0000 </r>
       <r>   -42.7002     0.0000    16.0000 </r>
       <r>   -42.4652     0.0000    16.0000 </r>
       <r>   -42.2301     0.0000    16.0000 </r>
       <r>   -41.9950     0.0000    16.0000 </r>
       <r>   -41.7599     0.0000    16.0000 </r>
       <r>   -41.5248     0.0000    16.0000 </r>
       <r>   -41.2897     0.0000    16.0000 </r>
       <r>   -41.0546     0.0000    16.0000 </r>
       <r>   -40.8195     0.0000    16.0000 </r>
       <r>   -40.5844     0.0000    16.0000 </r>
       <r>   -40.3494     0.0000    16.0000 </r>
       <r>   -40.1143     0.0000    16.0000 </r>
       <r>   -39.8792     0.0000    16.0000 </r>
       <r>   -39.6441     0.0000    16.0000 </r>
       <r>   -39.4090     0.0000    16.0000 </r>
       <r>   -39.1739     0.0000    16.0000 </r>
       <r>   -38.9388     0.0000    16.0000 </r>
       <r>   -38.7037     0.0000    16.0000 </r>
       <r>   -38.4686     0.0000    16.0000 </r>
       <r>   -38.2336     0.0000    16.0000 </r>
       <r>   -37.9985     0.0000    16.0000 </r>
       <r>   -37.7634     0.0000    16.0000 </r>
       <r>   -37.5283     0.0000    16.0000 </r>
       <r>   -37.2932     0.0000    16.0000 </r>
       <r>   -37.0581     0.0000    16.0000 </r>
       <r>   -36.8230     0.0000    16.0000 </r>
       <r>   -36.5879     0.0000    16.0000 </r>
       <r>   -36.3529     0.0000    16.0000 </r>
       <r>   -36.1178     0.0000    16.0000 </r>
       <r>   -35.8827     0.0000    16.0000 </r>
       <r>   -35.6476     0.0000    16.0000 </r>
       <r>   -35.4125     0.0000    16.0000 </r>
       <r>   -35.1774     0.0000    16.0000 </r>
       <r>   -34.9423     0.0000    16.0000 </r>
       <r>   -34.7072    -0.0000    16.0000 </r>
       <r>   -34.4721    -0.0000    16.0000 </r>
       <r>   -34.2371    -0.0000    16.0000 </r>
       <r>   -34.0020    -0.0547    15.9871 </r>
       <r>   -33.7669     9.0074    18.1047 </r>
       <r>   -33.5318    46.6922    29.0815 </r>
       <r>   -33.2967    59.3973    43.0451 </r>
       <r>   -33.0616    54.4010    55.8341 </r>
       <r>   -32.8265    34.6735    63.9855 </r>
       <r>   -32.5914     0.0625    64.0002 </r>
       <r>   -32.3563    -0.0008    64.0000 </r>
       <r>   -32.1213    -0.0000    64.0000 </r>
       <r>   -31.8862     0.0000    64.0000 </r>
       <r>   -31.6511     0.0000    64.0000 </r>
       <r>   -31.4160     0.0000    64.0000 </r>
       <r>   -31.1809     0.0000    64.0000 </r>
       <r>   -30.9458     0.0000    64.0000 </r>
       <r>   -30.7107     0.0000    64.0000 </r>
       <r>   -30.4756     0.0000    64.0000 </r>
       <r>   -30.2405     0.0000    64.0000 </r>
       <r>   -30.0055     0.0000    64.0000 </r>
       <r>   -29.7704     0.0000    64.0000 </r>
       <r>   -29.5353     0.0000    64.0000 </r>
       <r>   -29.3002     0.0000    64.0000 </r>
       <r>   -29.0651     0.0000    64.0000 </r>
       <r>   -28.8300     0.0000    64.0000 </r>
       <r>   -28.5949     0.0000    64.0000 </r>
       <r>   -28.3598     0.0000    64.0000 </r>
       <r>   -28.1247     0.0000    64.0000 </r>
       <r>   -27.8897     0.0000    64.0000 </r>
       <r>   -27.6546     0.0000    64.0000 </r>
       <r>   -27.4195     0.0000    64.0000 </r>
       <r>   -27.1844     0.0000    64.0000 </r>
       <r>   -26.9493     0.0000    64.0000 </r>
       <r>   -26.7142     0.0000    64.0000 </r>
       <r>   -26.4791     0.0000    64.0000 </r>
       <r>   -26.2440     0.0000    64.0000 </r>
       <r>   -26.0090     0.0000    64.0000 </r>
       <r>   -25.7739     0.0000    64.0000 </r>
       <r>   -25.5388     0.0000    64.0000 </r>
       <r>   -25.3037     0.0000    64.0000 </r>
       <r>   -25.0686     0.0000    64.0000 </r>
       <r>   -24.8335     0.0000    64.0000 </r>
       <r>   -24.5984     0.0000    64.0000 </r>
       <r>   -24.3633     0.0000    64.0000 </r>
       <r>   -24.1282     0.0000    64.0000 </r>
       <r>   -23.8932     0.0000    64.0000 </r>
       <r>   -23.6581     0.0000    64.0000 </r>
       <r>   -23.4230     0.0000    64.0000 </r>
       <r>   -23.1879     0.0000    64.0000 </r>
       <r>   -22.9528     0.0000    64.0000 </r>
       <r>   -22.7177     0.0000    64.0000 </r>
       <r>   -22.4826     0.0000    64.0000 </r>
       <r>   -22.2475     0.0000    64.0000 </r>
       <r>   -22.0124     0.0000    64.0000 </r>
       <r>   -21.7774     0.0000    64.0000 </r>
       <r>   -21.5423     0.0000    64.0000 </r>
       <r>   -21.3072     0.0000    64.0000 </r>
       <r>   -21.0721     0.0000    64.0000 </r>
       <r>   -20.8370     0.0000    64.0000 </r>
       <r>   -20.6019     0.0000    64.0000 </r>
       <r>   -20.3668     0.0000    64.0000 </r>
       <r>   -20.1317     0.0000    64.0000 </r>
       <r>   -19.8966     0.0000    64.0000 </r>
       <r>   -19.6616     0.0000    64.0000 </r>
       <r>   -19.4265     0.0000    64.0000 </r>
       <r>   -19.1914     0.0000    64.0000 </r>
       <r>   -18.9563     0.0000    64.0000 </r>
       <r>   -18.7212     0.0000    64.0000 </r>
       <r>   -18.4861     0.0000    64.0000 </r>
       <r>   -18.2510     0.0000    64.0000 </r>
       <r>   -18.0159     0.0000    64.0000 </r>
       <r>   -17.7808     0.0000    64.0000 </r>
       <r>   -17.5458     0.0000    64.0000 </r>
       <r>   -17.3107     0.0000    64.0000 </r>
       <r>   -17.0756     0.0000    64.0000 </r>
       <r>   -16.8405     0.0000    64.0000 </r>
       <r>   -16.6054     0.0000    64.0000 </r>
       <r>   -16.3703     0.0000    64.0000 </r>
       <r>   -16.1352    -0.0000    64.0000 </r>
       <r>   -15.9001    -0.0000    64.0000 </r>
       <r>   -15.6651    -0.0001    64.0000 </r>
       <r>   -15.4300    -0.2519    63.9408 </r>
       <r>   -15.1949    19.7440    68.5824 </r>
       <r>   -14.9598    23.3897    74.0810 </r>
       <r>   -14.7247    -0.3446    74.0000 </r>
       <r>   -14.4896    -0.0000    74.0000 </r>
       <r>   -14.2545     0.0000    74.0000 </r>
       <r>   -14.0194     0.0000    74.0000 </r>
       <r>   -13.7843     0.0000    74.0000 </r>
       <r>   -13.5493     0.0000    74.0000 </r>
       <r>   -13.3142     0.0000    74.0000 </r>
       <r>   -13.0791     0.0000    74.0000 </r>
       <r>   -12.8440     0.0000    74.0000 </r>
       <r>   -12.6089     0.0000    74.0000 </r>
       <r>   -12.3738     0.0000    74.0000 </r>
       <r>   -12.1387     0.0000    74.0000 </r>
       <r>   -11.9036     0.0000    74.0000 </r>
       <r>   -11.6685     0.0000    74.0000 </r>
       <r>   -11.4335     0.0000    74.0000 </r>
       <r>   -11.1984     0.0000    74.0000 </r>
       <r>   -10.9633     0.0000    74.0000 </r>
       <r>   -10.7282     0.0000    74.0000 </r>
       <r>   -10.4931     0.0000    74.0000 </r>
       <r>   -10.2580    -0.0000    74.0000 </r>
       <r>   -10.0229    -0.0000    74.0000 </r>
       <r>    -9.7878    -0.0000    74.0000 </r>
       <r>    -9.5527    -0.0000    74.0000 </r>
       <r>    -9.3177    -0.0522    73.9877 </r>
       <r>    -9.0826     3.5556    74.8236 </r>
       <r>    -8.8475     3.0312    75.5362 </r>
       <r>    -8.6124     2.0185    76.0107 </r>
       <r>    -8.3773    -0.0457    76.0000 </r>
       <r>    -8.1422    -0.0000    76.0000 </r>
       <r>    -7.9071    -0.0000    76.0000 </r>
       <r>    -7.6720    -0.0007    75.9998 </r>
       <r>    -7.4369     0.0924    76.0216 </r>
       <r>    -7.2019     3.6511    76.8799 </r>
       <r>    -6.9668     4.4348    77.9225 </r>
       <r>    -6.7317     1.2786    78.2231 </r>
       <r>    -6.4966     2.7831    78.8773 </r>
       <r>    -6.2615     5.0112    80.0554 </r>
       <r>    -6.0264     3.3539    80.8439 </r>
       <r>    -5.7913     3.4748    81.6608 </r>
       <r>    -5.5562     3.7880    82.5513 </r>
       <r>    -5.3212     5.9079    83.9402 </r>
       <r>    -5.0861     3.3794    84.7346 </r>
       <r>    -4.8510     2.2400    85.2612 </r>
       <r>    -4.6159     7.6580    87.0615 </r>
       <r>    -4.3808     1.9290    87.5150 </r>
       <r>    -4.1457     0.5946    87.6548 </r>
       <r>    -3.9106     7.7526    89.4774 </r>
       <r>    -3.6755     5.2816    90.7190 </r>
       <r>    -3.4404     1.2409    91.0107 </r>
       <r>    -3.2054     5.6571    92.3406 </r>
       <r>    -2.9703     5.7781    93.6990 </r>
       <r>    -2.7352     7.3629    95.4299 </r>
       <r>    -2.5001     9.2567    97.6061 </r>
       <r>    -2.2650     6.2295    99.0706 </r>
       <r>    -2.0299     8.8657   101.1548 </r>
       <r>    -1.7948    12.1166   104.0033 </r>
       <r>    -1.5597    14.8014   107.4829 </r>
       <r>    -1.3246    11.2485   110.1273 </r>
       <r>    -1.0896    11.7566   112.8911 </r>
       <r>    -0.8545    15.7765   116.6000 </r>
       <r>    -0.6194    17.7540   120.7738 </r>
       <r>    -0.3843    17.1744   124.8113 </r>
       <r>    -0.1492    26.2600   130.9847 </r>
       <r>     0.0859    29.8179   137.9946 </r>
       <r>     0.3210    19.1015   142.4851 </r>
       <r>     0.5561    20.3675   147.2733 </r>
       <r>     0.7912    25.9133   153.3652 </r>
       <r>     1.0262    22.2142   158.5875 </r>
       <r>     1.2613    29.7628   165.5844 </r>
       <r>     1.4964    28.3293   172.2443 </r>
       <r>     1.7315    27.7734   178.7735 </r>
       <r>     1.9666    24.5680   184.5492 </r>
       <r>     2.2017    22.4980   189.8382 </r>
       <r>     2.4368     9.9599   192.1797 </r>
       <r>     2.6719    12.3793   195.0899 </r>
       <r>     2.9070    12.2904   197.9792 </r>
       <r>     3.1420    11.4721   200.6762 </r>
       <r>     3.3771    10.1987   203.0738 </r>
       <r>     3.6122     7.8768   204.9255 </r>
       <r>     3.8473    12.5736   207.8815 </r>
       <r>     4.0824    16.8221   211.8361 </r>
       <r>     4.3175    19.6841   216.4637 </r>
       <r>     4.5526    14.1476   219.7896 </r>
       <r>     4.7877    16.4816   223.6642 </r>
       <r>     5.0227    16.2853   227.4927 </r>
       <r>     5.2578    12.9606   230.5396 </r>
       <r>     5.4929    15.6208   234.2119 </r>
       <r>     5.7280    18.9535   238.6676 </r>
       <r>     5.9631    22.7624   244.0188 </r>
       <r>     6.1982    16.6068   247.9229 </r>
       <r>     6.4333    19.6377   252.5395 </r>
       <r>     6.6684    11.9451   255.3476 </r>
       <r>     6.9035     2.8097   256.0082 </r>
       <r>     7.1385    -0.0348   256.0000 </r>
       <r>     7.3736    -0.0000   256.0000 </r>
       <r>     7.6087     0.0000   256.0000 </r>
       <r>     7.8438     0.0000   256.0000 </r>
       <r>     8.0789     0.0000   256.0000 </r>
       <r>     8.3140     0.0000   256.0000 </r>
       <r>     8.5491     0.0000   256.0000 </r>
       <r>     8.7842     0.0000   256.0000 </r>
       <r>     9.0193     0.0000   256.0000 </r>
       <r>     9.2543     0.0000   256.0000 </r>
       <r>     9.4894     0.0000   256.0000 </r>
       <r>     9.7245     0.0000   256.0000 </r>
       <r>     9.9596     0.0000   256.0000 </r>
      </set>
     </set>
    </array>
   </total>
  </dos>
 </calculation>
 <structure name="finalpos" >
  <crystal>
   <varray name="basis" >
    <v>       5.85845550       0.00000000       0.00000000 </v>
    <v>       0.00000000       8.30027397       0.00000000 </v>
    <v>       0.00000000       0.00000000      19.60523328 </v>
   </varray>
   <i name="volume">    953.33947761 </i>
   <varray name="rec_basis" >
    <v>       0.17069345      -0.00000000      -0.00000000 </v>
    <v>       0.00000000       0.12047795      -0.00000000 </v>
    <v>       0.00000000       0.00000000       0.05100679 </v>
   </varray>
  </crystal>
  <varray name="positions" >
   <v>       0.00000000       0.01867368       0.38255092 </v>
   <v>       0.00000000       0.48132632       0.38255092 </v>
   <v>       0.50000000       0.99550713       0.38255092 </v>
   <v>       0.50000000       0.50449287       0.38255092 </v>
   <v>       0.00000000       0.99550713       0.53196142 </v>
   <v>       0.00000000       0.50449287       0.53196142 </v>
   <v>       0.50000000       0.04638282       0.53196142 </v>
   <v>       0.50000000       0.45361718       0.53196142 </v>
   <v>       0.24268531       0.25000000       0.45507039 </v>
   <v>       0.21391683       0.75000000       0.44647376 </v>
   <v>       0.75731469       0.25000000       0.45507039 </v>
   <v>       0.78608317       0.75000000       0.44647376 </v>
   <v>       0.24268531       0.25000000       0.60885246 </v>
   <v>       0.21391683       0.75000000       0.61744908 </v>
   <v>       0.75731469       0.25000000       0.60885246 </v>
   <v>       0.78608317       0.75000000       0.61744908 </v>
   <v>       0.50000000       0.75000000       0.53196142 </v>
  </varray>
 </structure>
</modeling>
