unknown system                          
           1
     5.858456    0.000000    0.000000
     0.000000    8.300274    0.000000
     0.000000    0.000000   19.605233
   Ti   Al   Ga
     8     8     1
Direct configuration=     1
   0.00000000  0.01867368  0.38255092
   0.00000000  0.48132632  0.38255092
   0.50000000  0.99550713  0.38255092
   0.50000000  0.50449287  0.38255092
   0.00000000  0.99550713  0.53196142
   0.00000000  0.50449287  0.53196142
   0.50000000  0.04638282  0.53196142
   0.50000000  0.45361718  0.53196142
   0.24268531  0.25000000  0.45507039
   0.21391683  0.75000000  0.44647376
   0.75731469  0.25000000  0.45507039
   0.78608317  0.75000000  0.44647376
   0.24268531  0.25000000  0.60885246
   0.21391683  0.75000000  0.61744908
   0.75731469  0.25000000  0.60885246
   0.78608317  0.75000000  0.61744908
   0.50000000  0.75000000  0.53196142
