  17  17   0   0
  0.1675752E+02  0.5858456E-09  0.5858456E-09  0.8300274E-09  0.5000000E-15
  1.000000000000000E-004
  CAR 
 unknown system                          
     22.68391296    -52.35140760  301      8.01538893      1.00000000
    -52.351  0.0000E+00  0.0000E+00
    -52.101  0.0000E+00  0.0000E+00
    -51.851  0.0000E+00  0.0000E+00
    -51.601  0.0000E+00  0.0000E+00
    -51.351  0.0000E+00  0.0000E+00
    -51.101  0.0000E+00  0.0000E+00
    -50.851  0.0000E+00  0.0000E+00
    -50.601  0.0000E+00  0.0000E+00
    -50.350  0.0000E+00  0.0000E+00
    -50.100  0.0000E+00  0.0000E+00
    -49.850 -0.5546E-34 -0.1387E-34
    -49.600 -0.5158E-17 -0.1290E-17
    -49.350 -0.1434E-05 -0.3587E-06
    -49.100 -0.7024E+00 -0.1757E+00
    -48.850  0.3278E+02  0.8024E+01
    -48.600  0.2173E+02  0.1346E+02
    -48.350  0.1017E+02  0.1600E+02
    -48.099 -0.1882E-01  0.1600E+02
    -47.849 -0.2496E-09  0.1600E+02
    -47.599  0.0000E+00  0.1600E+02
    -47.349  0.0000E+00  0.1600E+02
    -47.099  0.0000E+00  0.1600E+02
    -46.849  0.0000E+00  0.1600E+02
    -46.599  0.0000E+00  0.1600E+02
    -46.349  0.0000E+00  0.1600E+02
    -46.098  0.0000E+00  0.1600E+02
    -45.848  0.0000E+00  0.1600E+02
    -45.598  0.0000E+00  0.1600E+02
    -45.348  0.0000E+00  0.1600E+02
    -45.098  0.0000E+00  0.1600E+02
    -44.848  0.0000E+00  0.1600E+02
    -44.598  0.0000E+00  0.1600E+02
    -44.348  0.0000E+00  0.1600E+02
    -44.098  0.0000E+00  0.1600E+02
    -43.847  0.0000E+00  0.1600E+02
    -43.597  0.0000E+00  0.1600E+02
    -43.347  0.0000E+00  0.1600E+02
    -43.097  0.0000E+00  0.1600E+02
    -42.847  0.0000E+00  0.1600E+02
    -42.597  0.0000E+00  0.1600E+02
    -42.347  0.0000E+00  0.1600E+02
    -42.097  0.0000E+00  0.1600E+02
    -41.846  0.0000E+00  0.1600E+02
    -41.596  0.0000E+00  0.1600E+02
    -41.346  0.0000E+00  0.1600E+02
    -41.096  0.0000E+00  0.1600E+02
    -40.846  0.0000E+00  0.1600E+02
    -40.596  0.0000E+00  0.1600E+02
    -40.346  0.0000E+00  0.1600E+02
    -40.096  0.0000E+00  0.1600E+02
    -39.846  0.0000E+00  0.1600E+02
    -39.595  0.0000E+00  0.1600E+02
    -39.345  0.0000E+00  0.1600E+02
    -39.095  0.0000E+00  0.1600E+02
    -38.845  0.0000E+00  0.1600E+02
    -38.595  0.0000E+00  0.1600E+02
    -38.345  0.0000E+00  0.1600E+02
    -38.095  0.0000E+00  0.1600E+02
    -37.845  0.0000E+00  0.1600E+02
    -37.594  0.0000E+00  0.1600E+02
    -37.344  0.0000E+00  0.1600E+02
    -37.094  0.0000E+00  0.1600E+02
    -36.844  0.0000E+00  0.1600E+02
    -36.594  0.0000E+00  0.1600E+02
    -36.344  0.0000E+00  0.1600E+02
    -36.094  0.0000E+00  0.1600E+02
    -35.844  0.0000E+00  0.1600E+02
    -35.594  0.0000E+00  0.1600E+02
    -35.343  0.0000E+00  0.1600E+02
    -35.093  0.0000E+00  0.1600E+02
    -34.843  0.0000E+00  0.1600E+02
    -34.593  0.0000E+00  0.1600E+02
    -34.343  0.0000E+00  0.1600E+02
    -34.093  0.0000E+00  0.1600E+02
    -33.843  0.0000E+00  0.1600E+02
    -33.593  0.0000E+00  0.1600E+02
    -33.342  0.0000E+00  0.1600E+02
    -33.092  0.0000E+00  0.1600E+02
    -32.842  0.0000E+00  0.1600E+02
    -32.592  0.0000E+00  0.1600E+02
    -32.342  0.0000E+00  0.1600E+02
    -32.092  0.0000E+00  0.1600E+02
    -31.842  0.0000E+00  0.1600E+02
    -31.592  0.0000E+00  0.1600E+02
    -31.342  0.0000E+00  0.1600E+02
    -31.091  0.0000E+00  0.1600E+02
    -30.841  0.0000E+00  0.1600E+02
    -30.591  0.0000E+00  0.1600E+02
    -30.341  0.0000E+00  0.1600E+02
    -30.091  0.0000E+00  0.1600E+02
    -29.841  0.0000E+00  0.1600E+02
    -29.591  0.0000E+00  0.1600E+02
    -29.341  0.0000E+00  0.1600E+02
    -29.090  0.0000E+00  0.1600E+02
    -28.840  0.0000E+00  0.1600E+02
    -28.590  0.0000E+00  0.1600E+02
    -28.340  0.0000E+00  0.1600E+02
    -28.090  0.0000E+00  0.1600E+02
    -27.840  0.0000E+00  0.1600E+02
    -27.590  0.0000E+00  0.1600E+02
    -27.340  0.0000E+00  0.1600E+02
    -27.090  0.0000E+00  0.1600E+02
    -26.839  0.0000E+00  0.1600E+02
    -26.589  0.0000E+00  0.1600E+02
    -26.339 -0.7305E-42  0.1600E+02
    -26.089 -0.7805E-23  0.1600E+02
    -25.839 -0.2714E-09  0.1600E+02
    -25.589 -0.2532E-01  0.1599E+02
    -25.339  0.1253E+02  0.1913E+02
    -25.089  0.7947E+02  0.3900E+02
    -24.838  0.6351E+02  0.5489E+02
    -24.588  0.3675E+02  0.6408E+02
    -24.338 -0.3204E+00  0.6400E+02
    -24.088 -0.2572E-06  0.6400E+02
    -23.838  0.0000E+00  0.6400E+02
    -23.588  0.0000E+00  0.6400E+02
    -23.338  0.0000E+00  0.6400E+02
    -23.088  0.0000E+00  0.6400E+02
    -22.838  0.0000E+00  0.6400E+02
    -22.587  0.0000E+00  0.6400E+02
    -22.337  0.0000E+00  0.6400E+02
    -22.087  0.0000E+00  0.6400E+02
    -21.837  0.0000E+00  0.6400E+02
    -21.587  0.0000E+00  0.6400E+02
    -21.337  0.0000E+00  0.6400E+02
    -21.087  0.0000E+00  0.6400E+02
    -20.837  0.0000E+00  0.6400E+02
    -20.586  0.0000E+00  0.6400E+02
    -20.336  0.0000E+00  0.6400E+02
    -20.086  0.0000E+00  0.6400E+02
    -19.836  0.0000E+00  0.6400E+02
    -19.586  0.0000E+00  0.6400E+02
    -19.336  0.0000E+00  0.6400E+02
    -19.086  0.0000E+00  0.6400E+02
    -18.836  0.0000E+00  0.6400E+02
    -18.586  0.0000E+00  0.6400E+02
    -18.335  0.0000E+00  0.6400E+02
    -18.085  0.0000E+00  0.6400E+02
    -17.835  0.0000E+00  0.6400E+02
    -17.585  0.0000E+00  0.6400E+02
    -17.335  0.0000E+00  0.6400E+02
    -17.085  0.0000E+00  0.6400E+02
    -16.835  0.0000E+00  0.6400E+02
    -16.585  0.0000E+00  0.6400E+02
    -16.334  0.0000E+00  0.6400E+02
    -16.084  0.0000E+00  0.6400E+02
    -15.834  0.0000E+00  0.6400E+02
    -15.584  0.0000E+00  0.6400E+02
    -15.334  0.0000E+00  0.6400E+02
    -15.084  0.0000E+00  0.6400E+02
    -14.834  0.0000E+00  0.6400E+02
    -14.584  0.0000E+00  0.6400E+02
    -14.334  0.0000E+00  0.6400E+02
    -14.083  0.0000E+00  0.6400E+02
    -13.833  0.0000E+00  0.6400E+02
    -13.583  0.0000E+00  0.6400E+02
    -13.333  0.0000E+00  0.6400E+02
    -13.083  0.0000E+00  0.6400E+02
    -12.833  0.0000E+00  0.6400E+02
    -12.583  0.0000E+00  0.6400E+02
    -12.333  0.0000E+00  0.6400E+02
    -12.082  0.0000E+00  0.6400E+02
    -11.832  0.0000E+00  0.6400E+02
    -11.582  0.0000E+00  0.6400E+02
    -11.332  0.0000E+00  0.6400E+02
    -11.082  0.0000E+00  0.6400E+02
    -10.832  0.0000E+00  0.6400E+02
    -10.582  0.0000E+00  0.6400E+02
    -10.332  0.0000E+00  0.6400E+02
    -10.082  0.0000E+00  0.6400E+02
     -9.831  0.0000E+00  0.6400E+02
     -9.581  0.0000E+00  0.6400E+02
     -9.331  0.0000E+00  0.6400E+02
     -9.081  0.0000E+00  0.6400E+02
     -8.831  0.0000E+00  0.6400E+02
     -8.581  0.0000E+00  0.6400E+02
     -8.331 -0.1552E-33  0.6400E+02
     -8.081 -0.7373E-17  0.6400E+02
     -7.830 -0.1032E-05  0.6400E+02
     -7.580 -0.2352E+00  0.6394E+02
     -7.330  0.1368E+02  0.6736E+02
     -7.080  0.2696E+02  0.7411E+02
     -6.830 -0.4216E+00  0.7400E+02
     -6.580 -0.8433E-06  0.7400E+02
     -6.330  0.0000E+00  0.7400E+02
     -6.080  0.0000E+00  0.7400E+02
     -5.830  0.0000E+00  0.7400E+02
     -5.579  0.0000E+00  0.7400E+02
     -5.329  0.0000E+00  0.7400E+02
     -5.079  0.0000E+00  0.7400E+02
     -4.829  0.0000E+00  0.7400E+02
     -4.579  0.0000E+00  0.7400E+02
     -4.329  0.0000E+00  0.7400E+02
     -4.079  0.0000E+00  0.7400E+02
     -3.829  0.0000E+00  0.7400E+02
     -3.578  0.0000E+00  0.7400E+02
     -3.328  0.0000E+00  0.7400E+02
     -3.078  0.0000E+00  0.7400E+02
     -2.828 -0.1401E-44  0.7400E+02
     -2.578 -0.1168E-25  0.7400E+02
     -2.328 -0.3370E-12  0.7400E+02
     -2.078 -0.4021E-04  0.7400E+02
     -1.828  0.1321E-01  0.7400E+02
     -1.578  0.1327E+01  0.7434E+02
     -1.327  0.1915E+01  0.7481E+02
     -1.077  0.2555E+01  0.7545E+02
     -0.827  0.1812E+01  0.7591E+02
     -0.577  0.3765E+00  0.7600E+02
     -0.327  0.5384E-02  0.7600E+02
     -0.077  0.1703E+01  0.7643E+02
      0.173  0.3517E+01  0.7731E+02
      0.423  0.3240E+01  0.7812E+02
      0.674  0.1859E+01  0.7858E+02
      0.924  0.2909E+01  0.7931E+02
      1.174  0.2555E+01  0.7995E+02
      1.424  0.3671E+01  0.8087E+02
      1.674  0.2542E+01  0.8150E+02
      1.924  0.3422E+01  0.8236E+02
      2.174  0.2896E+01  0.8308E+02
      2.424  0.4824E+01  0.8429E+02
      2.674  0.3077E+01  0.8506E+02
      2.925  0.4817E+01  0.8627E+02
      3.175  0.4014E+01  0.8727E+02
      3.425  0.5003E+01  0.8852E+02
      3.675  0.3399E+01  0.8937E+02
      3.925  0.4568E+01  0.9051E+02
      4.175  0.4478E+01  0.9163E+02
      4.425  0.4866E+01  0.9285E+02
      4.675  0.6428E+01  0.9446E+02
      4.926  0.6838E+01  0.9617E+02
      5.176  0.6810E+01  0.9787E+02
      5.426  0.7457E+01  0.9974E+02
      5.676  0.8187E+01  0.1018E+03
      5.926  0.1100E+02  0.1045E+03
      6.176  0.1383E+02  0.1080E+03
      6.426  0.1486E+02  0.1117E+03
      6.676  0.1253E+02  0.1148E+03
      6.926  0.1155E+02  0.1177E+03
      7.177  0.9030E+01  0.1200E+03
      7.427  0.1044E+02  0.1226E+03
      7.677  0.1988E+02  0.1276E+03
      7.927  0.1633E+02  0.1317E+03
      8.177  0.1406E+02  0.1352E+03
      8.427  0.1207E+02  0.1382E+03
      8.677  0.1593E+02  0.1422E+03
      8.927  0.1455E+02  0.1458E+03
      9.178  0.1936E+02  0.1507E+03
      9.428  0.2411E+02  0.1567E+03
      9.678  0.3280E+02  0.1649E+03
      9.928  0.2687E+02  0.1716E+03
     10.178  0.1664E+02  0.1758E+03
     10.428  0.1128E+02  0.1786E+03
     10.678  0.9124E+01  0.1809E+03
     10.928  0.1162E+02  0.1838E+03
     11.178  0.1175E+02  0.1867E+03
     11.429  0.1215E+02  0.1898E+03
     11.679  0.9433E+01  0.1921E+03
     11.929  0.8275E+01  0.1942E+03
     12.179  0.9258E+01  0.1965E+03
     12.429  0.1296E+02  0.1998E+03
     12.679  0.7812E+01  0.2017E+03
     12.929  0.9414E+01  0.2041E+03
     13.179  0.1066E+02  0.2067E+03
     13.430  0.1084E+02  0.2094E+03
     13.680  0.1195E+02  0.2124E+03
     13.930  0.7685E+01  0.2144E+03
     14.180  0.1095E+02  0.2171E+03
     14.430  0.1045E+02  0.2197E+03
     14.680  0.8194E+01  0.2218E+03
     14.930  0.9663E+01  0.2242E+03
     15.180  0.8312E+01  0.2262E+03
     15.430  0.1001E+02  0.2288E+03
     15.681  0.9553E+01  0.2311E+03
     15.931  0.1043E+02  0.2338E+03
     16.181  0.1022E+02  0.2363E+03
     16.431  0.8414E+01  0.2384E+03
     16.681  0.1012E+02  0.2409E+03
     16.931  0.9864E+01  0.2434E+03
     17.181  0.6999E+01  0.2452E+03
     17.431  0.8744E+01  0.2473E+03
     17.682  0.7771E+01  0.2493E+03
     17.932  0.9429E+01  0.2516E+03
     18.182  0.6861E+01  0.2534E+03
     18.432  0.6584E+01  0.2550E+03
     18.682  0.3061E+01  0.2558E+03
     18.932  0.7990E+00  0.2560E+03
     19.182  0.7588E-01  0.2560E+03
     19.432  0.1833E-01  0.2560E+03
     19.683 -0.3869E-03  0.2560E+03
     19.933 -0.9499E-09  0.2560E+03
     20.183  0.0000E+00  0.2560E+03
     20.433  0.0000E+00  0.2560E+03
     20.683  0.0000E+00  0.2560E+03
     20.933  0.0000E+00  0.2560E+03
     21.183  0.0000E+00  0.2560E+03
     21.433  0.0000E+00  0.2560E+03
     21.683  0.0000E+00  0.2560E+03
     21.934  0.0000E+00  0.2560E+03
     22.184  0.0000E+00  0.2560E+03
     22.434  0.0000E+00  0.2560E+03
     22.684  0.0000E+00  0.2560E+03
