   17   17    1    1
  0.1675752E+02  0.5858456E-09  0.5858456E-09  0.8300274E-09  0.5000000E-15
  1.000000000000000E-004
  CAR 
 unknown system                          
    133     60    128
 
  0.1276756E-14  0.1276756E-14  0.1276756E-14  0.2057613E-02
      1        -48.940711   1.000000
      2        -48.940314   1.000000
      3        -48.936378   1.000000
      4        -48.936053   1.000000
      5        -48.646860   1.000000
      6        -48.643522   1.000000
      7        -48.600732   1.000000
      8        -48.600088   1.000000
      9        -25.337960   1.000000
     10        -25.332159   1.000000
     11        -25.327290   1.000000
     12        -25.323011   1.000000
     13        -25.226418   1.000000
     14        -25.226418   1.000000
     15        -25.224131   1.000000
     16        -25.224131   1.000000
     17        -25.170407   1.000000
     18        -25.170407   1.000000
     19        -25.169126   1.000000
     20        -25.169126   1.000000
     21        -25.042602   1.000000
     22        -24.993426   1.000000
     23        -24.988742   1.000000
     24        -24.973684   1.000000
     25        -24.831723   1.000000
     26        -24.831723   1.000000
     27        -24.827841   1.000000
     28        -24.827841   1.000000
     29        -24.755070   1.000000
     30        -24.755070   1.000000
     31        -24.753992   1.000000
     32        -24.753992   1.000000
     33         -7.430725   1.000000
     34         -7.330037   1.000000
     35         -7.290878   1.000000
     36         -7.240319   1.000000
     37         -7.240319   1.000000
     38         -1.826988   1.000000
     39          0.109125   1.000000
     40          1.484754   1.000000
     41          2.378151   1.000000
     42          2.378151   1.000000
     43          2.659063   1.000000
     44          3.198554   1.000000
     45          3.198554   1.000000
     46          3.533638   1.000000
     47          4.468239   1.000000
     48          4.862213   1.000000
     49          4.980343   1.000000
     50          5.264999   1.000000
     51          5.264999   1.000000
     52          5.725635   1.000000
     53          6.076125   1.000000
     54          6.191015   1.000000
     55          6.377709   1.000000
     56          6.377709   1.000000
     57          6.673181   1.000000
     58          6.680606   1.000000
     59          6.680606   1.000000
     60          6.734604   1.000000
     61          6.734604   1.000000
     62          6.796702   1.000000
     63          6.873358   1.000000
     64          7.284104   1.000000
     65          7.469923   1.000000
     66          7.702903   1.000046
     67          7.883227   1.034195
     68          7.923053   1.015237
     69          7.923053   1.015237
     70          8.388156  -0.000001
     71          8.512615  -0.000000
     72          8.807984  -0.000000
     73          9.170205  -0.000000
     74          9.219290  -0.000000
     75          9.219290  -0.000000
     76          9.410250  -0.000000
     77          9.473590  -0.000000
     78          9.531419  -0.000000
     79          9.545817  -0.000000
     80          9.555415  -0.000000
     81          9.583410  -0.000000
     82          9.583410  -0.000000
     83          9.720525  -0.000000
     84          9.720525  -0.000000
     85          9.902047  -0.000000
     86         10.038188   0.000000
     87         10.038188   0.000000
     88         10.631157   0.000000
     89         10.712263   0.000000
     90         10.712263   0.000000
     91         10.899553   0.000000
     92         11.371831   0.000000
     93         11.397883   0.000000
     94         11.467257   0.000000
     95         11.619188   0.000000
     96         11.619188   0.000000
     97         11.734174   0.000000
     98         12.095092   0.000000
     99         12.095092   0.000000
    100         12.114602   0.000000
    101         12.313953   0.000000
    102         12.372040   0.000000
    103         12.857285   0.000000
    104         13.163650   0.000000
    105         13.367212   0.000000
    106         13.367212   0.000000
    107         13.415625   0.000000
    108         13.467311   0.000000
    109         13.625209   0.000000
    110         14.873686   0.000000
    111         14.931915   0.000000
    112         14.931915   0.000000
    113         14.957022   0.000000
    114         14.957022   0.000000
    115         15.555359   0.000000
    116         16.423575   0.000000
    117         16.434341   0.000000
    118         16.444641   0.000000
    119         16.921822   0.000000
    120         16.921822   0.000000
    121         17.483003   0.000000
    122         17.831856   0.000000
    123         17.984987   0.000000
    124         17.984987   0.000000
    125         18.473995   0.000000
    126         18.570566   0.000000
    127         18.570566   0.000000
    128         18.885244   0.000000
 
  0.1111111E+00  0.1276756E-14  0.1276756E-14  0.8230453E-02
      1        -48.940473   1.000000
      2        -48.940079   1.000000
      3        -48.936404   1.000000
      4        -48.936075   1.000000
      5        -48.646960   1.000000
      6        -48.643620   1.000000
      7        -48.600850   1.000000
      8        -48.600206   1.000000
      9        -25.337802   1.000000
     10        -25.332357   1.000000
     11        -25.327195   1.000000
     12        -25.323188   1.000000
     13        -25.225768   1.000000
     14        -25.223492   1.000000
     15        -25.219845   1.000000
     16        -25.217606   1.000000
     17        -25.170992   1.000000
     18        -25.169686   1.000000
     19        -25.163875   1.000000
     20        -25.162607   1.000000
     21        -25.042470   1.000000
     22        -24.993327   1.000000
     23        -24.988813   1.000000
     24        -24.973742   1.000000
     25        -24.838102   1.000000
     26        -24.834113   1.000000
     27        -24.831633   1.000000
     28        -24.827745   1.000000
     29        -24.762470   1.000000
     30        -24.761347   1.000000
     31        -24.755229   1.000000
     32        -24.754162   1.000000
     33         -7.430804   1.000000
     34         -7.329931   1.000000
     35         -7.290770   1.000000
     36         -7.240362   1.000000
     37         -7.240320   1.000000
     38         -1.779465   1.000000
     39          0.146134   1.000000
     40          1.217060   1.000000
     41          2.424903   1.000000
     42          2.514450   1.000000
     43          2.720158   1.000000
     44          2.807500   1.000000
     45          3.236917   1.000000
     46          3.911040   1.000000
     47          4.656533   1.000000
     48          4.713492   1.000000
     49          5.110765   1.000000
     50          5.144515   1.000000
     51          5.165546   1.000000
     52          5.749218   1.000000
     53          5.788127   1.000000
     54          6.109549   1.000000
     55          6.350698   1.000000
     56          6.390980   1.000000
     57          6.417965   1.000000
     58          6.517681   1.000000
     59          6.714705   1.000000
     60          6.754719   1.000000
     61          6.774312   1.000000
     62          7.173992   1.000000
     63          7.299535   1.000000
     64          7.419583   1.000000
     65          7.481866   1.000000
     66          7.696072   1.000030
     67          7.867741   1.028687
     68          7.895590   1.035344
     69          7.974229   0.817763
     70          8.517381  -0.000000
     71          8.592483  -0.000000
     72          8.795214  -0.000000
     73          9.076602  -0.000000
     74          9.167422  -0.000000
     75          9.198129  -0.000000
     76          9.309580  -0.000000
     77          9.490226  -0.000000
     78          9.510587  -0.000000
     79          9.524161  -0.000000
     80          9.581772  -0.000000
     81          9.584813  -0.000000
     82          9.639431  -0.000000
     83          9.665475  -0.000000
     84          9.730050  -0.000000
     85          9.892167  -0.000000
     86         10.031147   0.000000
     87         10.053331   0.000000
     88         10.602770   0.000000
     89         10.667897   0.000000
     90         10.759465   0.000000
     91         10.866568   0.000000
     92         10.950183   0.000000
     93         11.356251   0.000000
     94         11.418578   0.000000
     95         11.514512   0.000000
     96         11.704312   0.000000
     97         11.980710   0.000000
     98         12.048274   0.000000
     99         12.194043   0.000000
    100         12.289221   0.000000
    101         12.355221   0.000000
    102         12.415605   0.000000
    103         12.864883   0.000000
    104         13.144634   0.000000
    105         13.326510   0.000000
    106         13.441899   0.000000
    107         13.455209   0.000000
    108         13.555040   0.000000
    109         13.692967   0.000000
    110         14.040569   0.000000
    111         14.914701   0.000000
    112         15.005548   0.000000
    113         15.027838   0.000000
    114         15.238205   0.000000
    115         15.712865   0.000000
    116         16.163933   0.000000
    117         16.490867   0.000000
    118         16.696194   0.000000
    119         16.822119   0.000000
    120         17.151510   0.000000
    121         17.395243   0.000000
    122         17.778246   0.000000
    123         17.879209   0.000000
    124         17.895224   0.000000
    125         18.058153   0.000000
    126         18.134028   0.000000
    127         18.323660   0.000000
    128         18.436572   0.000000
 
  0.2222222E+00  0.1276756E-14  0.1276756E-14  0.8230453E-02
      1        -48.939836   1.000000
      2        -48.939454   1.000000
      3        -48.936516   1.000000
      4        -48.936184   1.000000
      5        -48.647223   1.000000
      6        -48.643881   1.000000
      7        -48.601160   1.000000
      8        -48.600514   1.000000
      9        -25.337349   1.000000
     10        -25.332856   1.000000
     11        -25.326911   1.000000
     12        -25.323574   1.000000
     13        -25.224041   1.000000
     14        -25.221830   1.000000
     15        -25.202245   1.000000
     16        -25.200179   1.000000
     17        -25.172541   1.000000
     18        -25.171178   1.000000
     19        -25.146363   1.000000
     20        -25.145140   1.000000
     21        -25.041942   1.000000
     22        -24.992930   1.000000
     23        -24.988935   1.000000
     24        -24.973855   1.000000
     25        -24.855266   1.000000
     26        -24.850986   1.000000
     27        -24.831425   1.000000
     28        -24.827516   1.000000
     29        -24.782548   1.000000
     30        -24.781307   1.000000
     31        -24.755659   1.000000
     32        -24.754605   1.000000
     33         -7.431001   1.000000
     34         -7.329663   1.000000
     35         -7.290494   1.000000
     36         -7.240469   1.000000
     37         -7.240320   1.000000
     38         -1.640492   1.000000
     39          0.224168   1.000000
     40          0.753951   1.000000
     41          2.265432   1.000000
     42          2.563575   1.000000
     43          2.749616   1.000000
     44          2.901202   1.000000
     45          3.350666   1.000000
     46          4.362189   1.000000
     47          4.402823   1.000000
     48          4.787902   1.000000
     49          4.843019   1.000000
     50          5.064249   1.000000
     51          5.225090   1.000000
     52          5.609173   1.000000
     53          5.767876   1.000000
     54          5.817781   1.000000
     55          6.381738   1.000000
     56          6.403537   1.000000
     57          6.433830   1.000000
     58          6.606223   1.000000
     59          6.685819   1.000000
     60          6.891028   1.000000
     61          7.020562   1.000000
     62          7.331673   1.000000
     63          7.497790   1.000000
     64          7.544304   1.000000
     65          7.604573   1.000000
     66          7.722728   1.000140
     67          8.004152   0.594432
     68          8.024521   0.423077
     69          8.089932   0.025261
     70          8.533549  -0.000000
     71          8.741276  -0.000000
     72          8.784277  -0.000000
     73          8.860062  -0.000000
     74          9.126097  -0.000000
     75          9.154198  -0.000000
     76          9.300911  -0.000000
     77          9.387293  -0.000000
     78          9.464574  -0.000000
     79          9.537468  -0.000000
     80          9.613345  -0.000000
     81          9.614236  -0.000000
     82          9.687758  -0.000000
     83          9.695433  -0.000000
     84          9.701558  -0.000000
     85          9.766257  -0.000000
     86         10.013099  -0.000000
     87         10.155337   0.000000
     88         10.423768   0.000000
     89         10.514616   0.000000
     90         10.547488   0.000000
     91         10.775644   0.000000
     92         10.855526   0.000000
     93         11.255685   0.000000
     94         11.261720   0.000000
     95         11.491916   0.000000
     96         11.699954   0.000000
     97         12.078232   0.000000
     98         12.104742   0.000000
     99         12.291961   0.000000
    100         12.309200   0.000000
    101         12.563371   0.000000
    102         12.653346   0.000000
    103         12.877719   0.000000
    104         13.071897   0.000000
    105         13.284110   0.000000
    106         13.400413   0.000000
    107         13.648642   0.000000
    108         13.649620   0.000000
    109         13.863756   0.000000
    110         13.944198   0.000000
    111         14.336643   0.000000
    112         14.861594   0.000000
    113         15.222748   0.000000
    114         15.921719   0.000000
    115         15.926066   0.000000
    116         16.154564   0.000000
    117         16.204792   0.000000
    118         16.386948   0.000000
    119         16.509929   0.000000
    120         16.772048   0.000000
    121         17.257357   0.000000
    122         17.372154   0.000000
    123         17.519836   0.000000
    124         17.759806   0.000000
    125         17.798957   0.000000
    126         17.924674   0.000000
    127         17.974837   0.000000
    128         18.085738   0.000000
 
  0.3333333E+00  0.1276756E-14  0.1276756E-14  0.8230453E-02
      1        -48.938963   1.000000
      2        -48.938591   1.000000
      3        -48.936790   1.000000
      4        -48.936450   1.000000
      5        -48.647521   1.000000
      6        -48.644172   1.000000
      7        -48.601508   1.000000
      8        -48.600863   1.000000
      9        -25.336609   1.000000
     10        -25.333493   1.000000
     11        -25.326443   1.000000
     12        -25.324035   1.000000
     13        -25.221939   1.000000
     14        -25.219808   1.000000
     15        -25.180051   1.000000
     16        -25.178100   1.000000
     17        -25.174455   1.000000
     18        -25.173012   1.000000
     19        -25.124296   1.000000
     20        -25.123093   1.000000
     21        -25.040768   1.000000
     22        -24.992041   1.000000
     23        -24.988908   1.000000
     24        -24.973821   1.000000
     25        -24.876890   1.000000
     26        -24.872212   1.000000
     27        -24.831179   1.000000
     28        -24.827236   1.000000
     29        -24.808468   1.000000
     30        -24.807064   1.000000
     31        -24.756133   1.000000
     32        -24.755102   1.000000
     33         -7.431224   1.000000
     34         -7.329363   1.000000
     35         -7.290177   1.000000
     36         -7.240591   1.000000
     37         -7.240320   1.000000
     38         -1.426037   1.000000
     39          0.042861   1.000000
     40          0.639944   1.000000
     41          1.745935   1.000000
     42          2.788252   1.000000
     43          3.030689   1.000000
     44          3.195612   1.000000
     45          3.534830   1.000000
     46          3.939530   1.000000
     47          4.310786   1.000000
     48          4.481448   1.000000
     49          4.633143   1.000000
     50          4.759074   1.000000
     51          5.477183   1.000000
     52          5.667395   1.000000
     53          5.924503   1.000000
     54          6.262085   1.000000
     55          6.332416   1.000000
     56          6.343163   1.000000
     57          6.610963   1.000000
     58          6.724183   1.000000
     59          6.732078   1.000000
     60          7.152843   1.000000
     61          7.306425   1.000000
     62          7.348960   1.000000
     63          7.454305   1.000000
     64          7.538954   1.000000
     65          7.584791   1.000000
     66          7.717194   1.000103
     67          8.135322  -0.035355
     68          8.163760  -0.028372
     69          8.259001  -0.001533
     70          8.514678  -0.000000
     71          8.565910  -0.000000
     72          8.588799  -0.000000
     73          8.782451  -0.000000
     74          9.047385  -0.000000
     75          9.265407  -0.000000
     76          9.272459  -0.000000
     77          9.320537  -0.000000
     78          9.475951  -0.000000
     79          9.478265  -0.000000
     80          9.535523  -0.000000
     81          9.633562  -0.000000
     82          9.759406  -0.000000
     83          9.767283  -0.000000
     84          9.823876  -0.000000
     85          9.883626  -0.000000
     86          9.888382  -0.000000
     87         10.007872  -0.000000
     88         10.363065   0.000000
     89         10.369067   0.000000
     90         10.527295   0.000000
     91         10.698019   0.000000
     92         10.929338   0.000000
     93         10.940731   0.000000
     94         11.154391   0.000000
     95         11.442223   0.000000
     96         11.757737   0.000000
     97         11.825405   0.000000
     98         12.020287   0.000000
     99         12.206846   0.000000
    100         12.363904   0.000000
    101         12.693012   0.000000
    102         12.849073   0.000000
    103         13.004797   0.000000
    104         13.187050   0.000000
    105         13.426924   0.000000
    106         13.601102   0.000000
    107         13.714228   0.000000
    108         13.918010   0.000000
    109         14.077815   0.000000
    110         14.123180   0.000000
    111         14.594093   0.000000
    112         14.771877   0.000000
    113         15.180485   0.000000
    114         15.248108   0.000000
    115         15.460251   0.000000
    116         15.816451   0.000000
    117         15.966311   0.000000
    118         16.272308   0.000000
    119         16.690528   0.000000
    120         16.786560   0.000000
    121         16.815605   0.000000
    122         16.943250   0.000000
    123         17.165993   0.000000
    124         17.234693   0.000000
    125         17.492230   0.000000
    126         17.775144   0.000000
    127         17.798566   0.000000
    128         17.998374   0.000000
 
  0.4444444E+00  0.1276756E-14  0.1276756E-14  0.8230453E-02
      1        -48.938060   1.000000
      2        -48.937700   1.000000
      3        -48.937303   1.000000
      4        -48.936956   1.000000
      5        -48.647718   1.000000
      6        -48.644364   1.000000
      7        -48.601739   1.000000
      8        -48.601094   1.000000
      9        -25.335831   1.000000
     10        -25.334152   1.000000
     11        -25.325985   1.000000
     12        -25.324449   1.000000
     13        -25.220462   1.000000
     14        -25.218399   1.000000
     15        -25.175794   1.000000
     16        -25.174302   1.000000
     17        -25.163825   1.000000
     18        -25.161855   1.000000
     19        -25.108261   1.000000
     20        -25.107089   1.000000
     21        -25.039411   1.000000
     22        -24.990986   1.000000
     23        -24.988698   1.000000
     24        -24.973630   1.000000
     25        -24.892546   1.000000
     26        -24.887587   1.000000
     27        -24.831014   1.000000
     28        -24.828084   1.000000
     29        -24.827052   1.000000
     30        -24.826574   1.000000
     31        -24.756448   1.000000
     32        -24.755429   1.000000
     33         -7.431370   1.000000
     34         -7.329169   1.000000
     35         -7.289968   1.000000
     36         -7.240670   1.000000
     37         -7.240321   1.000000
     38         -1.202624   1.000000
     39         -0.298660   1.000000
     40          0.901811   1.000000
     41          1.287124   1.000000
     42          3.074715   1.000000
     43          3.352137   1.000000
     44          3.537313   1.000000
     45          3.592455   1.000000
     46          3.773648   1.000000
     47          3.883617   1.000000
     48          4.079720   1.000000
     49          4.144767   1.000000
     50          4.977560   1.000000
     51          5.246760   1.000000
     52          6.054345   1.000000
     53          6.219976   1.000000
     54          6.252489   1.000000
     55          6.305921   1.000000
     56          6.784306   1.000000
     57          6.799177   1.000000
     58          6.802945   1.000000
     59          6.910322   1.000000
     60          7.113859   1.000000
     61          7.325983   1.000000
     62          7.392023   1.000000
     63          7.432639   1.000000
     64          7.686029   1.000016
     65          7.693832   1.000027
     66          7.713004   1.000082
     67          7.818608   1.008859
     68          8.119375  -0.028785
     69          8.124382  -0.032119
     70          8.457369  -0.000000
     71          8.495793  -0.000000
     72          8.677805  -0.000000
     73          8.690803  -0.000000
     74          9.049620  -0.000000
     75          9.183724  -0.000000
     76          9.244113  -0.000000
     77          9.337534  -0.000000
     78          9.369174  -0.000000
     79          9.432361  -0.000000
     80          9.551156  -0.000000
     81          9.580641  -0.000000
     82          9.753727  -0.000000
     83          9.794412  -0.000000
     84          9.902636  -0.000000
     85          9.967429  -0.000000
     86         10.025360   0.000000
     87         10.127230   0.000000
     88         10.192936   0.000000
     89         10.194665   0.000000
     90         10.667956   0.000000
     91         10.733062   0.000000
     92         10.773126   0.000000
     93         10.938217   0.000000
     94         11.119299   0.000000
     95         11.345273   0.000000
     96         11.425227   0.000000
     97         11.548845   0.000000
     98         12.279437   0.000000
     99         12.407515   0.000000
    100         12.454051   0.000000
    101         12.751444   0.000000
    102         12.804674   0.000000
    103         13.007300   0.000000
    104         13.264136   0.000000
    105         13.542332   0.000000
    106         13.672266   0.000000
    107         14.194632   0.000000
    108         14.260380   0.000000
    109         14.320419   0.000000
    110         14.396238   0.000000
    111         14.667859   0.000000
    112         14.759661   0.000000
    113         14.774131   0.000000
    114         15.051496   0.000000
    115         15.132937   0.000000
    116         15.430821   0.000000
    117         15.460484   0.000000
    118         15.885340   0.000000
    119         16.175941   0.000000
    120         16.467227   0.000000
    121         16.618458   0.000000
    122         16.786419   0.000000
    123         17.188451   0.000000
    124         17.630543   0.000000
    125         17.733884   0.000000
    126         17.855013   0.000000
    127         17.890842   0.000000
    128         18.050257   0.000000
 
  0.1111111E+00  0.1111111E+00  0.1276756E-14  0.8230453E-02
      1        -48.940245   1.000000
      2        -48.939856   1.000000
      3        -48.936423   1.000000
      4        -48.936094   1.000000
      5        -48.647065   1.000000
      6        -48.643724   1.000000
      7        -48.600971   1.000000
      8        -48.600327   1.000000
      9        -25.337660   1.000000
     10        -25.332550   1.000000
     11        -25.327107   1.000000
     12        -25.323354   1.000000
     13        -25.219868   1.000000
     14        -25.218601   1.000000
     15        -25.217613   1.000000
     16        -25.216433   1.000000
     17        -25.164968   1.000000
     18        -25.163854   1.000000
     19        -25.163641   1.000000
     20        -25.162602   1.000000
     21        -25.042341   1.000000
     22        -24.993231   1.000000
     23        -24.988879   1.000000
     24        -24.973808   1.000000
     25        -24.838164   1.000000
     26        -24.837895   1.000000
     27        -24.834139   1.000000
     28        -24.833930   1.000000
     29        -24.762645   1.000000
     30        -24.762631   1.000000
     31        -24.761535   1.000000
     32        -24.761513   1.000000
     33         -7.430885   1.000000
     34         -7.329826   1.000000
     35         -7.290661   1.000000
     36         -7.240363   1.000000
     37         -7.240360   1.000000
     38         -1.732367   1.000000
     39          0.181999   1.000000
     40          1.095087   1.000000
     41          2.094120   1.000000
     42          2.770646   1.000000
     43          2.780915   1.000000
     44          2.822944   1.000000
     45          3.116604   1.000000
     46          4.200962   1.000000
     47          4.417088   1.000000
     48          4.843836   1.000000
     49          4.932119   1.000000
     50          5.224840   1.000000
     51          5.344583   1.000000
     52          5.716005   1.000000
     53          5.768769   1.000000
     54          6.043174   1.000000
     55          6.063820   1.000000
     56          6.378603   1.000000
     57          6.496397   1.000000
     58          6.553824   1.000000
     59          6.598860   1.000000
     60          6.732779   1.000000
     61          7.061771   1.000000
     62          7.261970   1.000000
     63          7.319111   1.000000
     64          7.494947   1.000000
     65          7.688618   1.000019
     66          7.711154   1.000074
     67          7.835463   1.014460
     68          7.878382   1.032809
     69          8.006331   0.576307
     70          8.524553  -0.000000
     71          8.737127  -0.000000
     72          8.791351  -0.000000
     73          9.045043  -0.000000
     74          9.120942  -0.000000
     75          9.160062  -0.000000
     76          9.278514  -0.000000
     77          9.361129  -0.000000
     78          9.536086  -0.000000
     79          9.548797  -0.000000
     80          9.610386  -0.000000
     81          9.615142  -0.000000
     82          9.631828  -0.000000
     83          9.640555  -0.000000
     84          9.661539  -0.000000
     85          9.901448  -0.000000
     86          9.912277  -0.000000
     87         10.180532   0.000000
     88         10.570655   0.000000
     89         10.706445   0.000000
     90         10.710297   0.000000
     91         10.816710   0.000000
     92         10.827758   0.000000
     93         11.132151   0.000000
     94         11.355442   0.000000
     95         11.431177   0.000000
     96         11.683513   0.000000
     97         12.148214   0.000000
     98         12.202901   0.000000
     99         12.268770   0.000000
    100         12.367316   0.000000
    101         12.435972   0.000000
    102         12.515941   0.000000
    103         12.884621   0.000000
    104         13.128785   0.000000
    105         13.318621   0.000000
    106         13.379233   0.000000
    107         13.490627   0.000000
    108         13.704307   0.000000
    109         13.744030   0.000000
    110         13.831424   0.000000
    111         14.577761   0.000000
    112         14.909747   0.000000
    113         15.201259   0.000000
    114         15.265820   0.000000
    115         15.718020   0.000000
    116         16.072377   0.000000
    117         16.441246   0.000000
    118         16.615068   0.000000
    119         16.765469   0.000000
    120         16.946822   0.000000
    121         17.557041   0.000000
    122         17.667542   0.000000
    123         17.786077   0.000000
    124         17.928770   0.000000
    125         18.000366   0.000000
    126         18.207306   0.000000
    127         18.243419   0.000000
    128         18.347280   0.000000
 
  0.2222222E+00  0.1111111E+00  0.1276756E-14  0.1646091E-01
      1        -48.939633   1.000000
      2        -48.939253   1.000000
      3        -48.936509   1.000000
      4        -48.936178   1.000000
      5        -48.647330   1.000000
      6        -48.643984   1.000000
      7        -48.601278   1.000000
      8        -48.600633   1.000000
      9        -25.337237   1.000000
     10        -25.333030   1.000000
     11        -25.326842   1.000000
     12        -25.323731   1.000000
     13        -25.217714   1.000000
     14        -25.215551   1.000000
     15        -25.201645   1.000000
     16        -25.199610   1.000000
     17        -25.165891   1.000000
     18        -25.164544   1.000000
     19        -25.146689   1.000000
     20        -25.145460   1.000000
     21        -25.041827   1.000000
     22        -24.992843   1.000000
     23        -24.989012   1.000000
     24        -24.973921   1.000000
     25        -24.855227   1.000000