       N       E                     dE             d eps       ncg     rms          rms(c)
DAV:   1     0.976471195060E+03    0.97647E+03   -0.64495E+04 15360   0.121E+03
DAV:   2    -0.279935780104E+02   -0.10045E+04   -0.96928E+03 15424   0.320E+02
DAV:   3    -0.111094186015E+03   -0.83101E+02   -0.81716E+02 30656   0.750E+01
DAV:   4    -0.113629954325E+03   -0.25358E+01   -0.25354E+01 15360   0.124E+01
DAV:   5    -0.113707662063E+03   -0.77708E-01   -0.77707E-01 25728   0.201E+00    0.271E+01
DAV:   6    -0.102377843245E+03    0.11330E+02   -0.69636E+01 20736   0.308E+01    0.159E+01
DAV:   7    -0.102636286859E+03   -0.25844E+00   -0.32983E+01 19584   0.177E+01    0.183E+01
DAV:   8    -0.989922711130E+02    0.36440E+01   -0.91578E+00 20672   0.919E+00    0.627E+00
DAV:   9    -0.989460586225E+02    0.46212E-01   -0.25000E+00 22272   0.553E+00    0.543E+00
DAV:  10    -0.986829083107E+02    0.26315E+00   -0.10155E+00 18496   0.319E+00    0.274E+00
DAV:  11    -0.986015095667E+02    0.81399E-01   -0.34075E-01 21376   0.223E+00    0.760E-01
DAV:  12    -0.986008025299E+02    0.70704E-03   -0.27908E-02 20096   0.730E-01    0.345E-01
DAV:  13    -0.986006883542E+02    0.11418E-03   -0.42518E-03 21120   0.268E-01    0.123E-01
DAV:  14    -0.986006423832E+02    0.45971E-04   -0.47884E-04 22912   0.900E-02    0.321E-02
DAV:  15    -0.986006365201E+02    0.58631E-05   -0.36528E-05 20672   0.245E-02
   1 F= -.98600637E+02 E0= -.98599392E+02  d E =-.373258E-02
