 vasp.6.5.0 16Dec24 (build Apr 17 2025 17:55:45) complex                        
  
 executed on             LinuxIFC date 2025.06.04  10:22:35
 running   64 mpi-ranks, on    1 nodes
 distrk:  each k-point on   64 cores,    1 groups
 distr:  one band on NCORE=   1 cores,   64 groups


--------------------------------------------------------------------------------------------------------


 INCAR:
   ISTART = 0
   ICHARG = 2
   PREC = N
   LREAL = .FALSE.
   ENCUT = 520
   ALGO = N
   NELM = 500
   EDIFF = 1E-05
   IBRION = -1
   ISIF = 3
   NSW = 0
   EDIFFG = -0.01
   ISMEAR = 1
   SIGMA = 0.1

 POTCAR:    PAW_PBE Ti_sv 26Sep2005               
 POTCAR:    PAW_PBE Al 04Jan2001                  
 POTCAR:    PAW_PBE Ga_d 06Jul2010                
 -----------------------------------------------------------------------------
|                                                                             |
|           W    W    AA    RRRRR   N    N  II  N    N   GGGG   !!!           |
|           W    W   A  A   R    R  NN   N  II  NN   N  G    G  !!!           |
|           W    W  A    A  R    R  N N  N  II  N N  N  G       !!!           |
|           W WW W  AAAAAA  RRRRR   N  N N  II  N  N N  G  GGG   !            |
|           WW  WW  A    A  R   R   N   NN  II  N   NN  G    G                |
|           W    W  A    A  R    R  N    N  II  N    N   GGGG   !!!           |
|                                                                             |
|     For optimal performance we recommend to set                             |
|       NCORE = 2 up to number-of-cores-per-socket                            |
|     NCORE specifies how many cores store one orbital (NPAR=cpu/NCORE).      |
|     This setting can greatly improve the performance of VASP for DFT.       |
|     The default, NCORE=1 might be grossly inefficient on modern             |
|     multi-core architectures or massively parallel machines. Do your        |
|     own testing! More info at https://www.vasp.at/wiki/index.php/NCORE      |
|     Unfortunately you need to use the default for GW and RPA                |
|     calculations (for HF NCORE is supported but not extensively tested      |
|     yet).                                                                   |
|                                                                             |
 -----------------------------------------------------------------------------

 POTCAR:    PAW_PBE Ti_sv 26Sep2005               
   SHA256 =  4d747badb5a5ea28d858fbac70885b3f8929d6fd9e5b0dbe1ecb9878dc164da1 Ti_sv/POTCAR          
   COPYR  = (c) Copyright 26Sep2005 Georg Kresse                                                    
   COPYR  = This file is part of the software VASP. Any use, copying, and all other rights are regul
   COPYR  = If you do not have a valid VASP license, you may not use, copy or distribute this file. 
   VRHFIN =Ti: 3p4s3d                                                                               
   LEXCH  = PE                                                                                      
   EATOM  =  1588.0892 eV,  116.7213 Ry                                                             
                                                                                                    
   TITEL  = PAW_PBE Ti_sv 26Sep2005                                                                 
   LULTRA =        F    use ultrasoft PP ?                                                          
   IUNSCR =        1    unscreen: 0-lin 1-nonlin 2-no                                               
   RPACOR =    2.000    partial core radius                                                         
   POMASS =   47.880; ZVAL   =   12.000    mass and valenz                                          
   RCORE  =    2.300    outmost cutoff radius                                                       
   RWIGS  =    2.300; RWIGS  =    1.217    wigner-seitz radius (au A)                               
   ENMAX  =  274.610; ENMIN  =  205.957 eV                                                          
   ICORE  =        3    local potential                                                             
   LCOR   =        T    correct aug charges                                                         
   LPAW   =        T    paw PP                                                                      
   EAUG   =  482.848                                                                                
   RMAX   =    2.348    core radius for proj-oper                                                   
   RAUG   =    1.300    factor for augmentation sphere                                              
   RDEP   =    2.381    radius for radial grids                                                     
   RDEPT  =    1.930    core radius for aug-charge                                                  
                                                                                                    
   Atomic configuration                                                                             
    8 entries                                                                                       
     n  l   j            E        occ.                                                              
     1  0  0.50     -4865.3608   2.0000                                                             
     2  0  0.50      -533.1368   2.0000                                                             
     2  1  1.50      -440.5031   6.0000                                                             
     3  0  0.50       -59.3186   2.0000                                                             
     4  0  0.50        -3.7291   1.0000                                                             
     3  1  1.50       -35.7012   6.0000                                                             
     3  2  2.50        -1.9157   3.0000                                                             
     4  3  2.50        -1.3606   0.0000                                                             
   Description                                                                                      
     l       E           TYP  RCUT    TYP  RCUT                                                     
     0    -59.3185931     23  1.800                                                                 
     0     -3.7290822     23  2.300                                                                 
     1    -35.7012045     23  2.300                                                                 
     1     -1.3605826     23  2.300                                                                 
     2     -1.9156920     23  2.300                                                                 
     2     -0.0236318     23  2.300                                                                 
     3     -1.3605826     23  2.300                                                                 
  local pseudopotential read in
  partial core-charges read in
  partial kinetic energy density read in
  atomic valenz-charges read in
  non local Contribution for L=           0  read in
    real space projection operators read in
  non local Contribution for L=           0  read in
    real space projection operators read in
  non local Contribution for L=           1  read in
    real space projection operators read in
  non local Contribution for L=           1  read in
    real space projection operators read in
  non local Contribution for L=           2  read in
    real space projection operators read in
  non local Contribution for L=           2  read in
    real space projection operators read in
    PAW grid and wavefunctions read in
 
   number of l-projection  operators is LMAX  =           6
   number of lm-projection operators is LMMAX =          18
 
 POTCAR:    PAW_PBE Al 04Jan2001                  
   SHA256 =  17880443556af62b473fe41b62a467bd001ad55d2cabe504a3f22e34d4e9db96 Al/POTCAR             
   COPYR  = (c) Copyright 04Jan2001 Georg Kresse                                                    
   COPYR  = This file is part of the software VASP. Any use, copying, and all other rights are regul
   COPYR  = If you do not have a valid VASP license, you may not use, copy or distribute this file. 
   VRHFIN =Al: s2p1                                                                                 
   LEXCH  = PE                                                                                      
   EATOM  =    53.5387 eV,    3.9350 Ry                                                             
                                                                                                    
   TITEL  = PAW_PBE Al 04Jan2001                                                                    
   LULTRA =        F    use ultrasoft PP ?                                                          
   IUNSCR =        1    unscreen: 0-lin 1-nonlin 2-no                                               
   RPACOR =    1.500    partial core radius                                                         
   POMASS =   26.981; ZVAL   =    3.000    mass and valenz                                          
   RCORE  =    1.900    outmost cutoff radius                                                       
   RWIGS  =    2.650; RWIGS  =    1.402    wigner-seitz radius (au A)                               
   ENMAX  =  240.300; ENMIN  =  180.225 eV                                                          
   ICORE  =        2    local potential                                                             
   LCOR   =        T    correct aug charges                                                         
   LPAW   =        T    paw PP                                                                      
   EAUG   =  291.052                                                                                
   DEXC   =    0.000                                                                                
   RMAX   =    1.939    core radius for proj-oper                                                   
   RAUG   =    1.300    factor for augmentation sphere                                              
   RDEP   =    1.966    radius for radial grids                                                     
   RDEPT  =    1.856    core radius for aug-charge                                                  
                                                                                                    
   Atomic configuration                                                                             
    6 entries                                                                                       
     n  l   j            E        occ.                                                              
     1  0  0.50     -1511.1048   2.0000                                                             
     2  0  0.50      -108.1629   2.0000                                                             
     2  1  1.50       -69.6402   6.0000                                                             
     3  0  0.50        -7.7528   2.0000                                                             
     3  1  1.50        -2.7121   1.0000                                                             
     3  2  2.50        -2.7212   0.0000                                                             
   Description                                                                                      
     l       E           TYP  RCUT    TYP  RCUT                                                     
     0     -7.7528455     23  1.900                                                                 
     0     -3.3096929     23  1.900                                                                 
     1     -2.7120682     23  1.900                                                                 
     1     13.6058260     23  1.900                                                                 
     2     -2.7211652      7  1.900                                                                 
  local pseudopotential read in
  partial core-charges read in
  partial kinetic energy density read in
  atomic valenz-charges read in
  non local Contribution for L=           0  read in
    real space projection operators read in
  non local Contribution for L=           0  read in
    real space projection operators read in
  non local Contribution for L=           1  read in
    real space projection operators read in
  non local Contribution for L=           1  read in
    real space projection operators read in
    PAW grid and wavefunctions read in
 
   number of l-projection  operators is LMAX  =           4
   number of lm-projection operators is LMMAX =           8
 
 POTCAR:    PAW_PBE Ga_d 06Jul2010                
   SHA256 =  a60ddf36e14f00ea098d9e3914b3745f1b7105e68786148f49ae384e44b4226c Ga_d/POTCAR           
   COPYR  = (c) Copyright 06Jul2010 Georg Kresse                                                    
   COPYR  = This file is part of the software VASP. Any use, copying, and all other rights are regul
   COPYR  = If you do not have a valid VASP license, you may not use, copy or distribute this file. 
   VRHFIN =Ga: s2p1                                                                                 
   LEXCH  = PE                                                                                      
   EATOM  =  2148.8298 eV,  157.9345 Ry                                                             
                                                                                                    
   TITEL  = PAW_PBE Ga_d 06Jul2010                                                                  
   LULTRA =        F    use ultrasoft PP ?                                                          
   IUNSCR =        1    unscreen: 0-lin 1-nonlin 2-no                                               
   RPACOR =    1.700    partial core radius                                                         
   POMASS =   69.723; ZVAL   =   13.000    mass and valenz                                          
   RCORE  =    2.300    outmost cutoff radius                                                       
   RWIGS  =    2.300; RWIGS  =    1.217    wigner-seitz radius (au A)                               
   ENMAX  =  282.691; ENMIN  =  212.018 eV                                                          
   ICORE  =        3    local potential                                                             
   LCOR   =        T    correct aug charges                                                         
   LPAW   =        T    paw PP                                                                      
   EAUG   =  490.690                                                                                
   DEXC   =    0.000                                                                                
   RMAX   =    2.341    core radius for proj-oper                                                   
   RAUG   =    1.300    factor for augmentation sphere                                              
   RDEP   =    2.413    radius for radial grids                                                     
   RDEPT  =    1.856    core radius for aug-charge                                                  
                                                                                                    
   Atomic configuration                                                                             
    9 entries                                                                                       
     n  l   j            E        occ.                                                              
     1  0  0.50    -10228.7831   2.0000                                                             
     2  0  0.50     -1262.1604   2.0000                                                             
     2  1  1.50     -1098.6333   6.0000                                                             
     3  0  0.50      -148.1110   2.0000                                                             
     3  1  1.50       -98.8436   6.0000                                                             
     3  2  2.50       -19.1549  10.0000                                                             
     4  0  0.50        -8.9483   2.0000                                                             
     4  1  0.50        -2.5791   1.0000                                                             
     4  3  2.50        -2.7416   0.0000                                                             
   Description                                                                                      
     l       E           TYP  RCUT    TYP  RCUT                                                     
     2    -19.1549037     23  2.300                                                                 
     2     -5.4423304     23  2.300                                                                 
     0     -8.9483111     23  2.300                                                                 
     0     68.0291300     23  2.300                                                                 
     1     -2.5790802     23  2.100                                                                 
     1     81.6349560     23  2.300                                                                 
     3      6.8029130     23  2.300                                                                 
  local pseudopotential read in
  partial core-charges read in
  partial kinetic energy density read in
  atomic valenz-charges read in
  non local Contribution for L=           2  read in
    real space projection operators read in
  non local Contribution for L=           2  read in
    real space projection operators read in
  non local Contribution for L=           0  read in
    real space projection operators read in
  non local Contribution for L=           0  read in
    real space projection operators read in
  non local Contribution for L=           1  read in
    real space projection operators read in
  non local Contribution for L=           1  read in
    real space projection operators read in
    PAW grid and wavefunctions read in
 
   number of l-projection  operators is LMAX  =           6
   number of lm-projection operators is LMMAX =          18
 
 -----------------------------------------------------------------------------
|                                                                             |
|               ----> ADVICE to this user running VASP <----                  |
|                                                                             |
|     You have a (more or less) 'large supercell' and for larger cells it     |
|     might be more efficient to use real-space projection operators.         |
|     Therefore, try LREAL= Auto in the INCAR file.                           |
|     Mind: For very accurate calculation, you might also keep the            |
|     reciprocal projection scheme (i.e. LREAL=.FALSE.).                      |
|                                                                             |
 -----------------------------------------------------------------------------

  PAW_PBE Ti_sv 26Sep2005               :
 energy of atom  1       EATOM=-1588.0892
 kinetic energy error for atom=    0.0042 (will be added to EATOM!!)
  PAW_PBE Al 04Jan2001                  :
 energy of atom  2       EATOM=  -53.5387
 kinetic energy error for atom=    0.0002 (will be added to EATOM!!)
  PAW_PBE Ga_d 06Jul2010                :
 energy of atom  3       EATOM=-2148.8298
 kinetic energy error for atom=    0.0026 (will be added to EATOM!!)
 
 
 POSCAR: Ti1 Al1
  positions in direct lattice
  velocities in cartesian coordinates


 exchange-correlation table for PE
   RHO(1)=    0.500       N(1)  =     2000
   RHO(2)=  100.500       N(2)  =     4000
 


--------------------------------------------------------------------------------------------------------


 ion  position               nearest neighbor table
   1  0.000  0.000  0.019-   9 2.78  11 2.78  13 2.78  15 2.78  10 2.85  14 2.85  12 2.85  16 2.85

   2  0.000  0.000  0.481-   9 2.78  11 2.78  13 2.78  15 2.78  10 2.85  14 2.85  12 2.85  16 2.85

   3  0.000  0.500  0.996-  10 2.92  12 2.92  14 2.92  16 2.92  13 2.96  11 2.96  15 2.96   9 2.96

   4  0.000  0.500  0.504-  10 2.92  12 2.92  14 2.92  16 2.92  13 2.96  11 2.96  15 2.96   9 2.96

   5  0.500  0.000  0.996-  10 2.92  12 2.92  14 2.92  16 2.92  13 2.96  11 2.96  15 2.96   9 2.96

   6  0.500  0.000  0.504-  10 2.92  12 2.92  14 2.92  16 2.92  13 2.96  11 2.96  15 2.96   9 2.96

   7  0.500  0.500  0.046-  17 2.46  11 2.72  13 2.72  15 2.72   9 2.72
   8  0.500  0.500  0.454-  17 2.46  11 2.72  13 2.72  15 2.72   9 2.72
   9  0.243  0.243  0.250-   7 2.72   8 2.72   1 2.78   2 2.78  11 2.84  13 2.84   3 2.96   4 2.96
                             5 2.96   6 2.96  13 3.01  11 3.01
  10  0.214  0.214  0.750-  17 2.37  14 2.51  12 2.51   2 2.85   1 2.85   6 2.92   3 2.92   4 2.92
                             5 2.92  12 3.35  14 3.35
  11  0.243  0.757  0.250-   7 2.72   8 2.72   1 2.78   2 2.78   9 2.84  15 2.84   3 2.96   4 2.96
                             5 2.96   6 2.96  15 3.01   9 3.01
  12  0.214  0.786  0.750-  17 2.37  16 2.51  10 2.51   2 2.85   1 2.85   6 2.92   3 2.92   4 2.92
                             5 2.92  16 3.35  10 3.35
  13  0.757  0.243  0.250-   7 2.72   8 2.72   1 2.78   2 2.78   9 2.84  15 2.84   3 2.96   4 2.96
                             5 2.96   6 2.96  15 3.01   9 3.01
  14  0.786  0.214  0.750-  17 2.37  16 2.51  10 2.51   2 2.85   1 2.85   6 2.92   3 2.92   4 2.92
                             5 2.92  16 3.35  10 3.35
  15  0.757  0.757  0.250-   7 2.72   8 2.72   1 2.78   2 2.78  11 2.84  13 2.84   3 2.96   4 2.96
                             5 2.96   6 2.96  13 3.01  11 3.01
  16  0.786  0.786  0.750-  17 2.37  14 2.51  12 2.51   2 2.85   1 2.85   6 2.92   3 2.92   4 2.92
                             5 2.92  14 3.35  12 3.35
  17  0.500  0.500  0.750-  10 2.37  12 2.37  14 2.37  16 2.37   7 2.46   8 2.46
 
  LATTYP: Found a simple tetragonal cell.
 ALAT       =     5.8584555020
 C/A-ratio  =     1.4168024267
  
  Lattice vectors:
  
 A1 = (   5.8584555020,   0.0000000000,   0.0000000000)
 A2 = (   0.0000000000,   5.8584555020,   0.0000000000)
 A3 = (   0.0000000000,   0.0000000000,   8.3002739718)


Analysis of symmetry for initial positions (statically):
=====================================================================
 Subroutine PRICEL returns:
 Original cell was already a primitive cell.
 

 Routine SETGRP: Setting up the symmetry group for a 
 simple tetragonal supercell.


 Subroutine GETGRP returns: Found 16 space group operations
 (whereof  8 operations were pure point group operations)
 out of a pool of 16 trial point group operations.


The static configuration has the point symmetry C_4v.
 The point group associated with its full space group is D_4h.


Analysis of symmetry for dynamics (positions and initial velocities):
=====================================================================
 Subroutine PRICEL returns:
 Original cell was already a primitive cell.
 

 Routine SETGRP: Setting up the symmetry group for a 
 simple tetragonal supercell.


 Subroutine GETGRP returns: Found 16 space group operations
 (whereof  8 operations were pure point group operations)
 out of a pool of 16 trial point group operations.


The dynamic configuration has the point symmetry C_4v.
 The point group associated with its full space group is D_4h.


 Subroutine INISYM returns: Found 16 space group operations
 (whereof  8 operations are pure point group operations),
 and found     1 'primitive' translations


----------------------------------------------------------------------------------------

                                     Primitive cell                                     

  volume of cell :     284.8779

  direct lattice vectors                    reciprocal lattice vectors
     5.858455502  0.000000000  0.000000000     0.170693453  0.000000000  0.000000000
     0.000000000  5.858455502  0.000000000     0.000000000  0.170693453  0.000000000
     0.000000000  0.000000000  8.300273972     0.000000000  0.000000000  0.120477951

  length of vectors
     5.858455502  5.858455502  8.300273972     0.170693453  0.170693453  0.120477951

  position of ions in fractional coordinates (direct lattice)
     0.000000000  0.000000000  0.018673676
     0.000000000  0.000000000  0.481326324
     0.000000000  0.500000000  0.995507135
     0.000000000  0.500000000  0.504492865
     0.500000000  0.000000000  0.995507135
     0.500000000  0.000000000  0.504492865
     0.500000000  0.500000000  0.046382817
     0.500000000  0.500000000  0.453617183
     0.242685310  0.242685310  0.250000000
     0.213916829  0.213916829  0.750000000
     0.242685310  0.757314690  0.250000000
     0.213916829  0.786083171  0.750000000
     0.757314690  0.242685310  0.250000000
     0.786083171  0.213916829  0.750000000
     0.757314690  0.757314690  0.250000000
     0.786083171  0.786083171  0.750000000
     0.500000000  0.500000000  0.750000000

  ion indices of the primitive-cell ions
   primitive index   ion index
                 1           1
                 2           2
                 3           3
                 4           4
                 5           5
                 6           6
                 7           7
                 8           8
                 9           9
                10          10
                11          11
                12          12
                13          13
                14          14
                15          15
                16          16
                17          17

----------------------------------------------------------------------------------------

 
 
 KPOINTS: K-Spacing Value to Generate K-Mesh: 0.02

Automatic generation of k-mesh.
 Grid dimensions read from file:
 generate k-points for:    9    9    6

 Generating k-lattice:

  Cartesian coordinates                     Fractional coordinates (reciprocal lattice)
     0.018965939  0.000000000  0.000000000     0.111111111  0.000000000  0.000000000
     0.000000000  0.018965939  0.000000000     0.000000000  0.111111111  0.000000000
     0.000000000  0.000000000  0.020079658     0.000000000  0.000000000  0.166666667

  Length of vectors
     0.018965939  0.018965939  0.020079658

  Shift w.r.t. Gamma in fractional coordinates (k-lattice)
     0.000000000  0.000000000  0.000000000

 
 Subroutine IBZKPT returns following result:
 ===========================================
 
 Found     60 irreducible k-points:
 
 Following reciprocal coordinates:
            Coordinates               Weight
  0.000000  0.000000  0.000000      1.000000
  0.111111  0.000000  0.000000      4.000000
  0.222222  0.000000  0.000000      4.000000
  0.333333  0.000000  0.000000      4.000000
  0.444444  0.000000  0.000000      4.000000
  0.111111  0.111111  0.000000      4.000000
  0.222222  0.111111  0.000000      8.000000
  0.333333  0.111111  0.000000      8.000000
  0.444444  0.111111  0.000000      8.000000
  0.222222  0.222222  0.000000      4.000000
  0.333333  0.222222  0.000000      8.000000
  0.444444  0.222222  0.000000      8.000000
  0.333333  0.333333  0.000000      4.000000
  0.444444  0.333333  0.000000      8.000000
  0.444444  0.444444  0.000000      4.000000
  0.000000  0.000000  0.166667      2.000000
  0.111111  0.000000  0.166667      8.000000
  0.222222  0.000000  0.166667      8.000000
  0.333333  0.000000  0.166667      8.000000
  0.444444  0.000000  0.166667      8.000000
  0.111111  0.111111  0.166667      8.000000
  0.222222  0.111111  0.166667     16.000000
  0.333333  0.111111  0.166667     16.000000
  0.444444  0.111111  0.166667     16.000000
  0.222222  0.222222  0.166667      8.000000
  0.333333  0.222222  0.166667     16.000000
  0.444444  0.222222  0.166667     16.000000
  0.333333  0.333333  0.166667      8.000000
  0.444444  0.333333  0.166667     16.000000
  0.444444  0.444444  0.166667      8.000000
  0.000000  0.000000  0.333333      2.000000
  0.111111  0.000000  0.333333      8.000000
  0.222222  0.000000  0.333333      8.000000
  0.333333  0.000000  0.333333      8.000000
  0.444444  0.000000  0.333333      8.000000
  0.111111  0.111111  0.333333      8.000000
  0.222222  0.111111  0.333333     16.000000
  0.333333  0.111111  0.333333     16.000000
  0.444444  0.111111  0.333333     16.000000
  0.222222  0.222222  0.333333      8.000000
  0.333333  0.222222  0.333333     16.000000
  0.444444  0.222222  0.333333     16.000000
  0.333333  0.333333  0.333333      8.000000
  0.444444  0.333333  0.333333     16.000000
  0.444444  0.444444  0.333333      8.000000
  0.000000  0.000000  0.500000      1.000000
  0.111111  0.000000  0.500000      4.000000
  0.222222  0.000000  0.500000      4.000000
  0.333333  0.000000  0.500000      4.000000
  0.444444  0.000000  0.500000      4.000000
  0.111111  0.111111  0.500000      4.000000
  0.222222  0.111111  0.500000      8.000000
  0.333333  0.111111  0.500000      8.000000
  0.444444  0.111111  0.500000      8.000000
  0.222222  0.222222  0.500000      4.000000
  0.333333  0.222222  0.500000      8.000000
  0.444444  0.222222  0.500000      8.000000
  0.333333  0.333333  0.500000      4.000000
  0.444444  0.333333  0.500000      8.000000
  0.444444  0.444444  0.500000      4.000000
 
 Following cartesian coordinates:
            Coordinates               Weight
  0.000000  0.000000  0.000000      1.000000
  0.018966  0.000000  0.000000      4.000000
  0.037932  0.000000  0.000000      4.000000
  0.056898  0.000000  0.000000      4.000000
  0.075864  0.000000  0.000000      4.000000
  0.018966  0.018966  0.000000      4.000000
  0.037932  0.018966  0.000000      8.000000
  0.056898  0.018966  0.000000      8.000000
  0.075864  0.018966  0.000000      8.000000
  0.037932  0.037932  0.000000      4.000000
  0.056898  0.037932  0.000000      8.000000
  0.075864  0.037932  0.000000      8.000000
  0.056898  0.056898  0.000000      4.000000
  0.075864  0.056898  0.000000      8.000000
  0.075864  0.075864  0.000000      4.000000
  0.000000  0.000000  0.020080      2.000000
  0.018966  0.000000  0.020080      8.000000
  0.037932  0.000000  0.020080      8.000000
  0.056898  0.000000  0.020080      8.000000
  0.075864  0.000000  0.020080      8.000000
  0.018966  0.018966  0.020080      8.000000
  0.037932  0.018966  0.020080     16.000000
  0.056898  0.018966  0.020080     16.000000
  0.075864  0.018966  0.020080     16.000000
  0.037932  0.037932  0.020080      8.000000
  0.056898  0.037932  0.020080     16.000000
  0.075864  0.037932  0.020080     16.000000
  0.056898  0.056898  0.020080      8.000000
  0.075864  0.056898  0.020080     16.000000
  0.075864  0.075864  0.020080      8.000000
  0.000000  0.000000  0.040159      2.000000
  0.018966  0.000000  0.040159      8.000000
  0.037932  0.000000  0.040159      8.000000
  0.056898  0.000000  0.040159      8.000000
  0.075864  0.000000  0.040159      8.000000
  0.018966  0.018966  0.040159      8.000000
  0.037932  0.018966  0.040159     16.000000
  0.056898  0.018966  0.040159     16.000000
  0.075864  0.018966  0.040159     16.000000
  0.037932  0.037932  0.040159      8.000000
  0.056898  0.037932  0.040159     16.000000
  0.075864  0.037932  0.040159     16.000000
  0.056898  0.056898  0.040159      8.000000
  0.075864  0.056898  0.040159     16.000000
  0.075864  0.075864  0.040159      8.000000
  0.000000  0.000000  0.060239      1.000000
  0.018966  0.000000  0.060239      4.000000
  0.037932  0.000000  0.060239      4.000000
  0.056898  0.000000  0.060239      4.000000
  0.075864  0.000000  0.060239      4.000000
  0.018966  0.018966  0.060239      4.000000
  0.037932  0.018966  0.060239      8.000000
  0.056898  0.018966  0.060239      8.000000
  0.075864  0.018966  0.060239      8.000000
  0.037932  0.037932  0.060239      4.000000
  0.056898  0.037932  0.060239      8.000000
  0.075864  0.037932  0.060239      8.000000
  0.056898  0.056898  0.060239      4.000000
  0.075864  0.056898  0.060239      8.000000
  0.075864  0.075864  0.060239      4.000000
 


--------------------------------------------------------------------------------------------------------




 Dimension of arrays:
   k-points           NKPTS =     60   k-points in BZ     NKDIM =     60   number of bands    NBANDS=    128
   number of dos      NEDOS =    301   number of ions     NIONS =     17
   non local maximal  LDIM  =      6   non local SUM 2l+1 LMDIM =     18
   total plane-waves  NPLWV =  62208
   max r-space proj   IRMAX =      1   max aug-charges    IRDMAX=   8697
   dimension x,y,z NGX =    36 NGY =   36 NGZ =   48
   dimension x,y,z NGXF=    72 NGYF=   72 NGZF=   96
   support grid    NGXF=    72 NGYF=   72 NGZF=   96
   ions per type =               8   8   1
   NGX,Y,Z   is equivalent  to a cutoff of  10.22, 10.22,  9.61 a.u.
   NGXF,Y,Z  is equivalent  to a cutoff of  20.43, 20.43, 19.23 a.u.

 SYSTEM =  unknown system                          
 POSCAR =  Ti1 Al1                                 

 Startparameter for this run:
   NWRITE =      2    write-flag & timer
   PREC   = n         normal or accurate (medium, high low for compatibility)
   ISTART =      0    job   : 0-new  1-cont  2-samecut
   ICHARG =      2    charge: 1-file 2-atom 10-const
   ISPIN  =      1    spin polarized calculation?
   LNONCOLLINEAR =      F non collinear calculations
   LSORBIT =      F    spin-orbit coupling
   INIWAV =      1    electr: 0-lowe 1-rand  2-diag
   LASPH  =      F    aspherical Exc in radial PAW
 Electronic Relaxation 1
   ENCUT  =  520.0 eV  38.22 Ry    6.18 a.u.  10.89 10.89 15.43*2*pi/ulx,y,z
   ENINI  =  520.0     initial cutoff
   ENAUG  =  490.7 eV  augmentation charge cutoff
   NELM   =    500;   NELMIN=  2; NELMDL= -5     # of ELM steps 
   EDIFF  = 0.1E-04   stopping-criterion for ELM
   LREAL  =      F    real-space projection
   NLSPLINE    = F    spline interpolate recip. space projectors
   LCOMPAT=      F    compatible to vasp.4.4
   GGA_COMPAT  = T    GGA compatible to vasp.4.4-vasp.4.6
   LMAXPAW     = -100 max onsite density
   LMAXMIX     =    2 max onsite mixed and CHGCAR
   VOSKOWN=      0    Vosko Wilk Nusair interpolation
   ROPT   =    0.00000   0.00000   0.00000
 Ionic relaxation
   EDIFFG = -.1E-01   stopping-criterion for IOM
   NSW    =      0    number of steps for IOM
   NBLOCK =      1;   KBLOCK =      1    inner block; outer block 
   IBRION =     -1    ionic relax: 0-MD 1-quasi-New 2-CG
   NFREE  =      0    steps in history (QN), initial steepest desc. (CG)
   ISIF   =      3    stress and relaxation
   IWAVPR =     10    prediction:  0-non 1-charg 2-wave 3-comb
   ISYM   =      2    0-nonsym 1-usesym 2-fastsym
   LCORR  =      T    Harris-Foulkes like correction to forces

   POTIM  = 0.5000    time-step for ionic-motion
   TEIN   =    0.0    initial temperature
   TEBEG  =    0.0;   TEEND  =   0.0 temperature during run
   SMASS  =  -3.00    Nose mass-parameter (am)
   estimated Nose-frequenzy (Omega)   =  0.10E-29 period in steps = 0.13E+47 mass=  -0.784E-27a.u.
   SCALEE = 1.0000    scale energy and forces
   NPACO  =    256;   APACO  = 10.0  distance and # of slots for P.C.
   PSTRESS=    0.0 pullay stress

  Mass of Ions in am
   POMASS =  47.88 26.98 69.72
  Ionic Valenz
   ZVAL   =  12.00  3.00 13.00
  Atomic Wigner-Seitz radii
   RWIGS  =  -1.00 -1.00 -1.00
  virtual crystal weights 
   VCA    =   1.00  1.00  1.00
   NELECT =     133.0000    total number of electrons
   NUPDOWN=      -1.0000    fix difference up-down

 DOS related values:
   EMIN   =  10.00;   EMAX   =-10.00  energy-range for DOS
   EFERMI =   0.00;   METHOD = LEGACY      
   ISMEAR =     1;   SIGMA  =   0.10  broadening in eV -4-tet -1-fermi 0-gaus
   EFERMI_NEDOS =   21; number of points for ismear=-14 and -15

 Electronic relaxation 2 (details)
   IALGO  =     38    algorithm
   LDIAG  =      T    sub-space diagonalisation (order eigenvalues)
   LSUBROT=      F    optimize rotation matrix (better conditioning)
   TURBO    =      0    0=normal 1=particle mesh
   IRESTART =      0    0=no restart 2=restart with 2 vectors
   NREBOOT  =      0    no. of reboots
   NMIN     =      0    reboot dimension
   EREF     =   0.00    reference energy to select bands
   IMIX   =      4    mixing-type and parameters
     AMIX     =   0.40;   BMIX     =  1.00
     AMIX_MAG =   1.60;   BMIX_MAG =  1.00
     AMIN     =   0.10
     WC   =   100.;   INIMIX=   1;  MIXPRE=   1;  MAXMIX= -45

 Intra band minimization:
   WEIMIN = 0.0000     energy-eigenvalue tresh-hold
   EBREAK =  0.20E-07  absolut break condition
   DEPER  =   0.30     relativ break condition  

   TIME   =   0.40     timestep for ELM

  volume/ion in A,a.u.               =      16.76       113.09
  Fermi-wavevector in a.u.,A,eV,Ry     =   1.270006  2.399964 21.945048  1.612916
  Thomas-Fermi vector in A             =   2.403017
 
 Write flags
   LWAVE        =      T    write WAVECAR
   LDOWNSAMPLE  =      F    k-point downsampling of WAVECAR
   LCHARG       =      T    write CHGCAR
   LVTOT        =      F    write LOCPOT, total local potential
   LVHAR        =      F    write LOCPOT, Hartree potential only
   WRT_POTENTIAL= false  ! write potential to hdf5 file
   LELF         =      F    write electronic localiz. function (ELF)
   LORBIT       =      0    0 simple, 1 ext, 2 COOP (PROOUT), +10 PAW based schemes


 Python interface
   PLUGINS active      =      F    recompile with -DPLUGINS to activate
 
 Dipole corrections
   LMONO      =      F    monopole corrections only (constant potential shift)
   LDIPOL     =      F    correct potential (dipole corrections)
   IDIPOL     =      0    1-x, 2-y, 3-z, 4-all directions 
   EPSILON    =  1.0000000 bulk dielectric constant
   LVACPOTAV  =      F  vacuum potentials using an averaging scheme for the charge density
   VACPOTFLAT =  0.1000000 required flatness to determine vacuum potential
 
Coulomb truncation method
  LTRUNCATE          =      F  Coulomb kernel truncation to be used
  IDIMENSIONALITY    =      3  Dimensionality of cutoff (0 molecules / 2 surfaces)
  ISURFACE           =     -1  Direction of surface normal
  LCOARSEN           =      F  Coarsen the charge grid before padding, preferred

 
 Exchange correlation treatment:
   GGA     = PE    functional components
   XC_C    = 1    coefficients multiplying the functional components
   LIBXC   =     F    Libxc                    
   VOSKOWN =     0    Vosko Wilk Nusair interpolation
   LHFCALC =     F    Hartree Fock is set to
   LHFONE  =     F    Hartree Fock one center treatment
   AEXX    =    0.0000 exact exchange contribution

 Parameters of functionals:
   PE:
     No parameter
 
 Van der Waals corrections
   IVDW    =     0    specifies the selected vdW correction

 Linear response parameters
   LEPSILON=     F    determine dielectric tensor
   LRPA    =     F    only Hartree local field effects (RPA)
   LNABLA  =     F    use nabla operator in PAW spheres
   LVEL    =     F    velocity operator in full k-point grid
   CSHIFT  =0.1000    complex shift for real part using Kramers Kronig
   OMEGAMAX=  -1.0    maximum frequency
   DEG_THRESHOLD= 0.2000000E-02 threshold for treating states as degnerate
   RTIME   =   -0.100 relaxation time in fs
  (WPLASMAI=    0.000 imaginary part of plasma frequency in eV, 0.658/RTIME)
   DFIELD  = 0.0000000 0.0000000 0.0000000 field for delta impulse in time
 
  Optional k-point grid parameters
   LKPOINTS_OPT  =     F    use optional k-point grid
   KPOINTS_OPT_MODE=     1    mode for optional k-point grid
 
 Orbital magnetization related:
   ORBITALMAG=     F  switch on orbital magnetization
   LCHIMAG   =     F  perturbation theory with respect to B field
   DQ        =  0.001000  dq finite difference perturbation B field
   LLRAUG    =     F  two centre corrections for induced B field
   LBONE     =     F  B-component reconstruction in AE one-centre
   LVGVCALC  =     T  calculate vGv susceptibility
   LVGVAPPL  =     F  apply vGv susceptibility instead of pGv for G=0

 Random number generation:
   RANDOM_GENERATOR = DEFAULT
   PCG_SEED         = not used


--------------------------------------------------------------------------------------------------------


 Static calculation
 charge density and potential will be updated during run
 non-spin polarized calculation
 Variant of blocked Davidson
 Davidson routine will perform the subspace rotation
 perform sub-space diagonalisation
    after iterative eigenvector-optimisation
 modified Broyden-mixing scheme, WC =      100.0
 initial mixing is a Kerker type mixing with AMIX =  0.4000 and BMIX =      1.0000
 Hartree-type preconditioning will be used
 using additional bands           61
 reciprocal scheme for non local part
 use partial core corrections
 calculate Harris-corrections to forces 
   (improved forces if not selfconsistent)
 use gradient corrections 
 use of overlap-Matrix (Vanderbilt PP)
 Methfessel and Paxton  Order N= 1 SIGMA  =   0.10


--------------------------------------------------------------------------------------------------------


  energy-cutoff  :      520.00
  volume of cell :      284.88
      direct lattice vectors                 reciprocal lattice vectors
     5.858455502  0.000000000  0.000000000     0.170693453  0.000000000  0.000000000
     0.000000000  5.858455502  0.000000000     0.000000000  0.170693453  0.000000000
     0.000000000  0.000000000  8.300273972     0.000000000  0.000000000  0.120477951

  length of vectors
     5.858455502  5.858455502  8.300273972     0.170693453  0.170693453  0.120477951


 
 k-points in units of 2pi/SCALE and weight: K-Spacing Value to Generate K-Mesh: 0.02
   0.00000000  0.00000000  0.00000000       0.002
   0.01896594  0.00000000  0.00000000       0.008
   0.03793188  0.00000000  0.00000000       0.008
   0.05689782  0.00000000  0.00000000       0.008
   0.07586376  0.00000000  0.00000000       0.008
   0.01896594  0.01896594  0.00000000       0.008
   0.03793188  0.01896594  0.00000000       0.016
   0.05689782  0.01896594  0.00000000       0.016
   0.07586376  0.01896594  0.00000000       0.016
   0.03793188  0.03793188  0.00000000       0.008
   0.05689782  0.03793188  0.00000000       0.016
   0.07586376  0.03793188  0.00000000       0.016
   0.05689782  0.05689782  0.00000000       0.008
   0.07586376  0.05689782  0.00000000       0.016
   0.07586376  0.07586376  0.00000000       0.008
   0.00000000  0.00000000  0.02007966       0.004
   0.01896594  0.00000000  0.02007966       0.016
   0.03793188  0.00000000  0.02007966       0.016
   0.05689782  0.00000000  0.02007966       0.016
   0.07586376  0.00000000  0.02007966       0.016
   0.01896594  0.01896594  0.02007966       0.016
   0.03793188  0.01896594  0.02007966       0.033
   0.05689782  0.01896594  0.02007966       0.033
   0.07586376  0.01896594  0.02007966       0.033
   0.03793188  0.03793188  0.02007966       0.016
   0.05689782  0.03793188  0.02007966       0.033
   0.07586376  0.03793188  0.02007966       0.033
   0.05689782  0.05689782  0.02007966       0.016
   0.07586376  0.05689782  0.02007966       0.033
   0.07586376  0.07586376  0.02007966       0.016
   0.00000000  0.00000000  0.04015932       0.004
   0.01896594  0.00000000  0.04015932       0.016
   0.03793188  0.00000000  0.04015932       0.016
   0.05689782  0.00000000  0.04015932       0.016
   0.07586376  0.00000000  0.04015932       0.016
   0.01896594  0.01896594  0.04015932       0.016
   0.03793188  0.01896594  0.04015932       0.033
   0.05689782  0.01896594  0.04015932       0.033
   0.07586376  0.01896594  0.04015932       0.033
   0.03793188  0.03793188  0.04015932       0.016
   0.05689782  0.03793188  0.04015932       0.033
   0.07586376  0.03793188  0.04015932       0.033
   0.05689782  0.05689782  0.04015932       0.016
   0.07586376  0.05689782  0.04015932       0.033
   0.07586376  0.07586376  0.04015932       0.016
   0.00000000  0.00000000  0.06023898       0.002
   0.01896594  0.00000000  0.06023898       0.008
   0.03793188  0.00000000  0.06023898       0.008
   0.05689782  0.00000000  0.06023898       0.008
   0.07586376  0.00000000  0.06023898       0.008
   0.01896594  0.01896594  0.06023898       0.008
   0.03793188  0.01896594  0.06023898       0.016
   0.05689782  0.01896594  0.06023898       0.016
   0.07586376  0.01896594  0.06023898       0.016
   0.03793188  0.03793188  0.06023898       0.008
   0.05689782  0.03793188  0.06023898       0.016
   0.07586376  0.03793188  0.06023898       0.016
   0.05689782  0.05689782  0.06023898       0.008
   0.07586376  0.05689782  0.06023898       0.016
   0.07586376  0.07586376  0.06023898       0.008
 
 k-points in reciprocal lattice and weights: K-Spacing Value to Generate K-Mesh: 0.02
   0.00000000  0.00000000  0.00000000       0.002
   0.11111111  0.00000000  0.00000000       0.008
   0.22222222  0.00000000  0.00000000       0.008
   0.33333333  0.00000000  0.00000000       0.008
   0.44444444  0.00000000  0.00000000       0.008
   0.11111111  0.11111111  0.00000000       0.008
   0.22222222  0.11111111  0.00000000       0.016
   0.33333333  0.11111111  0.00000000       0.016
   0.44444444  0.11111111  0.00000000       0.016
   0.22222222  0.22222222  0.00000000       0.008
   0.33333333  0.22222222  0.00000000       0.016
   0.44444444  0.22222222  0.00000000       0.016
   0.33333333  0.33333333  0.00000000       0.008
   0.44444444  0.33333333  0.00000000       0.016
   0.44444444  0.44444444  0.00000000       0.008
   0.00000000  0.00000000  0.16666667       0.004
   0.11111111  0.00000000  0.16666667       0.016
   0.22222222  0.00000000  0.16666667       0.016
   0.33333333  0.00000000  0.16666667       0.016
   0.44444444  0.00000000  0.16666667       0.016
   0.11111111  0.11111111  0.16666667       0.016
   0.22222222  0.11111111  0.16666667       0.033
   0.33333333  0.11111111  0.16666667       0.033
   0.44444444  0.11111111  0.16666667       0.033
   0.22222222  0.22222222  0.16666667       0.016
   0.33333333  0.22222222  0.16666667       0.033
   0.44444444  0.22222222  0.16666667       0.033
   0.33333333  0.33333333  0.16666667       0.016
   0.44444444  0.33333333  0.16666667       0.033
   0.44444444  0.44444444  0.16666667       0.016
   0.00000000  0.00000000  0.33333333       0.004
   0.11111111  0.00000000  0.33333333       0.016
   0.22222222  0.00000000  0.33333333       0.016
   0.33333333  0.00000000  0.33333333       0.016
   0.44444444  0.00000000  0.33333333       0.016
   0.11111111  0.11111111  0.33333333       0.016
   0.22222222  0.11111111  0.33333333       0.033
   0.33333333  0.11111111  0.33333333       0.033
   0.44444444  0.11111111  0.33333333       0.033
   0.22222222  0.22222222  0.33333333       0.016
   0.33333333  0.22222222  0.33333333       0.033
   0.44444444  0.22222222  0.33333333       0.033
   0.33333333  0.33333333  0.33333333       0.016
   0.44444444  0.33333333  0.33333333       0.033
   0.44444444  0.44444444  0.33333333       0.016
   0.00000000  0.00000000  0.50000000       0.002
   0.11111111  0.00000000  0.50000000       0.008
   0.22222222  0.00000000  0.50000000       0.008
   0.33333333  0.00000000  0.50000000       0.008
   0.44444444  0.00000000  0.50000000       0.008
   0.11111111  0.11111111  0.50000000       0.008
   0.22222222  0.11111111  0.50000000       0.016
   0.33333333  0.11111111  0.50000000       0.016
   0.44444444  0.11111111  0.50000000       0.016
   0.22222222  0.22222222  0.50000000       0.008
   0.33333333  0.22222222  0.50000000       0.016
   0.44444444  0.22222222  0.50000000       0.016
   0.33333333  0.33333333  0.50000000       0.008
   0.44444444  0.33333333  0.50000000       0.016
   0.44444444  0.44444444  0.50000000       0.008
 
 position of ions in fractional coordinates (direct lattice) 
   0.00000000  0.00000000  0.01867368
   0.00000000  0.00000000  0.48132632
   0.00000000  0.50000000  0.99550713
   0.00000000  0.50000000  0.50449287
   0.50000000  0.00000000  0.99550713
   0.50000000  0.00000000  0.50449287
   0.50000000  0.50000000  0.04638282
   0.50000000  0.50000000  0.45361718
   0.24268531  0.24268531  0.25000000
   0.21391683  0.21391683  0.75000000
   0.24268531  0.75731469  0.25000000
   0.21391683  0.78608317  0.75000000
   0.75731469  0.24268531  0.25000000
   0.78608317  0.21391683  0.75000000
   0.75731469  0.75731469  0.25000000
   0.78608317  0.78608317  0.75000000
   0.50000000  0.50000000  0.75000000
 
 position of ions in cartesian coordinates  (Angst):
   0.00000000  0.00000000  0.15499662
   0.00000000  0.00000000  3.99514036
   0.00000000  2.92922775  8.26298196
   0.00000000  2.92922775  4.18742900
   2.92922775  0.00000000  8.26298196
   2.92922775  0.00000000  4.18742900
   2.92922775  2.92922775  0.38499009
   2.92922775  2.92922775  3.76514690
   1.42176109  1.42176109  2.07506849
   1.25322222  1.25322222  6.22520548
   1.42176109  4.43669441  2.07506849
   1.25322222  4.60523328  6.22520548
   4.43669441  1.42176109  2.07506849
   4.60523328  1.25322222  6.22520548
   4.43669441  4.43669441  2.07506849
   4.60523328  4.60523328  6.22520548
   2.92922775  2.92922775  6.22520548
 


--------------------------------------------------------------------------------------------------------


 k-point     1 :   0.0000 0.0000 0.0000  plane waves:    7699
 k-point     2 :   0.1111 0.0000 0.0000  plane waves:    7640
 k-point     3 :   0.2222 0.0000 0.0000  plane waves:    7672
 k-point     4 :   0.3333 0.0000 0.0000  plane waves:    7652
 k-point     5 :   0.4444 0.0000 0.0000  plane waves:    7674
 k-point     6 :   0.1111 0.1111 0.0000  plane waves:    7655
 k-point     7 :   0.2222 0.1111 0.0000  plane waves:    7667
 k-point     8 :   0.3333 0.1111 0.0000  plane waves:    7656
 k-point     9 :   0.4444 0.1111 0.0000  plane waves:    7686
 k-point    10 :   0.2222 0.2222 0.0000  plane waves:    7683
 k-point    11 :   0.3333 0.2222 0.0000  plane waves:    7676
 k-point    12 :   0.4444 0.2222 0.0000  plane waves:    7683
 k-point    13 :   0.3333 0.3333 0.0000  plane waves:    7692
 k-point    14 :   0.4444 0.3333 0.0000  plane waves:    7694
 k-point    15 :   0.4444 0.4444 0.0000  plane waves:    7706
 k-point    16 :   0.0000 0.0000 0.1667  plane waves:    7651
 k-point    17 :   0.1111 0.0000 0.1667  plane waves:    7655
 k-point    18 :   0.2222 0.0000 0.1667  plane waves:    7665
 k-point    19 :   0.3333 0.0000 0.1667  plane waves:    7658
 k-point    20 :   0.4444 0.0000 0.1667  plane waves:    7663
 k-point    21 :   0.1111 0.1111 0.1667  plane waves:    7659
 k-point    22 :   0.2222 0.1111 0.1667  plane waves:    7657
 k-point    23 :   0.3333 0.1111 0.1667  plane waves:    7675
 k-point    24 :   0.4444 0.1111 0.1667  plane waves:    7665
 k-point    25 :   0.2222 0.2222 0.1667  plane waves:    7666
 k-point    26 :   0.3333 0.2222 0.1667  plane waves:    7679
 k-point    27 :   0.4444 0.2222 0.1667  plane waves:    7680
 k-point    28 :   0.3333 0.3333 0.1667  plane waves:    7677
 k-point    29 :   0.4444 0.3333 0.1667  plane waves:    7693
 k-point    30 :   0.4444 0.4444 0.1667  plane waves:    7698
 k-point    31 :   0.0000 0.0000 0.3333  plane waves:    7687
 k-point    32 :   0.1111 0.0000 0.3333  plane waves:    7671
 k-point    33 :   0.2222 0.0000 0.3333  plane waves:    7664
 k-point    34 :   0.3333 0.0000 0.3333  plane waves:    7665
 k-point    35 :   0.4444 0.0000 0.3333  plane waves:    7671
 k-point    36 :   0.1111 0.1111 0.3333  plane waves:    7661
 k-point    37 :   0.2222 0.1111 0.3333  plane waves:    7664
 k-point    38 :   0.3333 0.1111 0.3333  plane waves:    7663
 k-point    39 :   0.4444 0.1111 0.3333  plane waves:    7656
 k-point    40 :   0.2222 0.2222 0.3333  plane waves:    7658
 k-point    41 :   0.3333 0.2222 0.3333  plane waves:    7673
 k-point    42 :   0.4444 0.2222 0.3333  plane waves:    7677
 k-point    43 :   0.3333 0.3333 0.3333  plane waves:    7668
 k-point    44 :   0.4444 0.3333 0.3333  plane waves:    7682
 k-point    45 :   0.4444 0.4444 0.3333  plane waves:    7679
 k-point    46 :   0.0000 0.0000 0.5000  plane waves:    7662
 k-point    47 :   0.1111 0.0000 0.5000  plane waves:    7678
 k-point    48 :   0.2222 0.0000 0.5000  plane waves:    7662
 k-point    49 :   0.3333 0.0000 0.5000  plane waves:    7650
 k-point    50 :   0.4444 0.0000 0.5000  plane waves:    7646
 k-point    51 :   0.1111 0.1111 0.5000  plane waves:    7666
 k-point    52 :   0.2222 0.1111 0.5000  plane waves:    7664
 k-point    53 :   0.3333 0.1111 0.5000  plane waves:    7644
 k-point    54 :   0.4444 0.1111 0.5000  plane waves:    7642
 k-point    55 :   0.2222 0.2222 0.5000  plane waves:    7658
 k-point    56 :   0.3333 0.2222 0.5000  plane waves:    7684
 k-point    57 :   0.4444 0.2222 0.5000  plane waves:    7672
 k-point    58 :   0.3333 0.3333 0.5000  plane waves:    7676
 k-point    59 :   0.4444 0.3333 0.5000  plane waves:    7678
 k-point    60 :   0.4444 0.4444 0.5000  plane waves:    7672

 maximum and minimum number of plane-waves per node :      7706     7640

 maximum number of plane-waves:      7706
 maximum index in each direction: 
   IXMAX=   10   IYMAX=   10   IZMAX=   15
   IXMIN=  -11   IYMIN=  -11   IZMIN=  -15


 serial   3D FFT for wavefunctions
 parallel 3D FFT for charge:
    minimum data exchange during FFTs selected (reduces bandwidth)


 total amount of memory used by VASP MPI-rank0   252550. kBytes
=======================================================================

   base                                    :      30000. kBytes
   nonl-proj                               :     202830. kBytes
   fftplans                                :        689. kBytes
   grid                                    :       3407. kBytes
   one-center                              :        264. kBytes
   wavefun                                 :      15360. kBytes
 
     INWAV:  cpu time      0.0000: real time      0.0000
 Broyden mixing: mesh for mixing (old mesh)
   NGX = 21   NGY = 21   NGZ = 31
  (NGX  = 72   NGY  = 72   NGZ  = 96)
  gives a total of  13671 points

 initial charge density was supplied:
 charge density of overlapping atoms calculated
 number of electron     133.0000000 magnetization 
 keeping initial charge density in first step


--------------------------------------------------------------------------------------------------------


 Maximum index for augmentation-charges          772 (set IRDMAX)


--------------------------------------------------------------------------------------------------------


 First call to EWALD:  gamma=   0.269
 Maximum number of real-space cells   3x   3x   2
 Maximum number of reciprocal cells   3x   3x   3

    FEWALD:  cpu time      0.0011: real time      0.0011


--------------------------------------- Ionic step        1  -------------------------------------------




--------------------------------------- Iteration      1(   1)  ---------------------------------------


    POTLOK:  cpu time      0.0112: real time      0.0112
    SETDIJ:  cpu time      0.0026: real time      0.0026
     EDDAV:  cpu time      7.9489: real time      7.9496
       DOS:  cpu time      0.0008: real time      0.0008
    --------------------------------------------
      LOOP:  cpu time      7.9636: real time      7.9642

 eigenvalue-minimisations  : 15360
 total energy-change (2. order) : 0.9764712E+03  (-0.6449504E+04)
 number of electron     133.0000000 magnetization 
 augmentation part      133.0000000 magnetization 

 Free energy of the ion-electron system (eV)
  ---------------------------------------------------
  alpha Z        PSCENC =       353.75656847
  Ewald energy   TEWEN  =     -9823.54474122
  -Hartree energ DENC   =     -4811.22005091
  -exchange      EXHF   =         0.00000000
  -V(xc)+E(xc)   XCENC  =       330.68494136
  PAW double counting   =     12249.27850793   -12170.51614461
  entropy T*S    EENTRO =        -0.00182265
  eigenvalues    EBANDS =      -433.78082532
  atomic energy  EATOM  =     15281.81476201
  Solvation  Ediel_sol  =         0.00000000
  ---------------------------------------------------
  free energy    TOTEN  =       976.47119506 eV

  energy without entropy =      976.47301771  energy(sigma->0) =      976.47180261


--------------------------------------------------------------------------------------------------------




--------------------------------------- Iteration      1(   2)  ---------------------------------------


     EDDAV:  cpu time      7.8834: real time      7.8842
       DOS:  cpu time      0.0008: real time      0.0008
    --------------------------------------------
      LOOP:  cpu time      7.8842: real time      7.8850

 eigenvalue-minimisations  : 15424
 total energy-change (2. order) :-0.1004465E+04  (-0.9692828E+03)
 number of electron     133.0000000 magnetization 
 augmentation part      133.0000000 magnetization 

 Free energy of the ion-electron system (eV)
  ---------------------------------------------------
  alpha Z        PSCENC =       353.75656847
  Ewald energy   TEWEN  =     -9823.54474122
  -Hartree energ DENC   =     -4811.22005091
  -exchange      EXHF   =         0.00000000
  -V(xc)+E(xc)   XCENC  =       330.68494136
  PAW double counting   =     12249.27850793   -12170.51614461
  entropy T*S    EENTRO =        -0.00206820
  eigenvalues    EBANDS =     -1438.24535284
  atomic energy  EATOM  =     15281.81476201
  Solvation  Ediel_sol  =         0.00000000
  ---------------------------------------------------
  free energy    TOTEN  =       -27.99357801 eV

  energy without entropy =      -27.99150981  energy(sigma->0) =      -27.99288861


--------------------------------------------------------------------------------------------------------




--------------------------------------- Iteration      1(   3)  ---------------------------------------


     EDDAV:  cpu time     23.7385: real time     23.7414
       DOS:  cpu time      0.0014: real time      0.0014
    --------------------------------------------
      LOOP:  cpu time     23.7400: real time     23.7427

 eigenvalue-minimisations  : 30656
 total energy-change (2. order) :-0.8310061E+02  (-0.8171559E+02)
 number of electron     133.0000000 magnetization 
 augmentation part      133.0000000 magnetization 

 Free energy of the ion-electron system (eV)
  ---------------------------------------------------
  alpha Z        PSCENC =       353.75656847
  Ewald energy   TEWEN  =     -9823.54474122
  -Hartree energ DENC   =     -4811.22005091
  -exchange      EXHF   =         0.00000000
  -V(xc)+E(xc)   XCENC  =       330.68494136
  PAW double counting   =     12249.27850793   -12170.51614461
  entropy T*S    EENTRO =         0.00286218
  eigenvalues    EBANDS =     -1521.35089123
  atomic energy  EATOM  =     15281.81476201
  Solvation  Ediel_sol  =         0.00000000
  ---------------------------------------------------
  free energy    TOTEN  =      -111.09418601 eV

  energy without entropy =     -111.09704820  energy(sigma->0) =     -111.09514008


--------------------------------------------------------------------------------------------------------




--------------------------------------- Iteration      1(   4)  ---------------------------------------


     EDDAV:  cpu time      7.9167: real time      7.9170
       DOS:  cpu time      0.0008: real time      0.0008
    --------------------------------------------
      LOOP:  cpu time      7.9175: real time      7.9178

 eigenvalue-minimisations  : 15360
 total energy-change (2. order) :-0.2535768E+01  (-0.2535427E+01)
 number of electron     133.0000000 magnetization 
 augmentation part      133.0000000 magnetization 

 Free energy of the ion-electron system (eV)
  ---------------------------------------------------
  alpha Z        PSCENC =       353.75656847
  Ewald energy   TEWEN  =     -9823.54474122
  -Hartree energ DENC   =     -4811.22005091
  -exchange      EXHF   =         0.00000000
  -V(xc)+E(xc)   XCENC  =       330.68494136
  PAW double counting   =     12249.27850793   -12170.51614461
  entropy T*S    EENTRO =         0.00302448
  eigenvalues    EBANDS =     -1523.88682183
  atomic energy  EATOM  =     15281.81476201
  Solvation  Ediel_sol  =         0.00000000
  ---------------------------------------------------
  free energy    TOTEN  =      -113.62995432 eV

  energy without entropy =     -113.63297880  energy(sigma->0) =     -113.63096248


--------------------------------------------------------------------------------------------------------




--------------------------------------- Iteration      1(   5)  ---------------------------------------


     EDDAV:  cpu time     17.9524: real time     17.9550
       DOS:  cpu time      0.0008: real time      0.0008
    CHARGE:  cpu time      0.0903: real time      0.0903
    MIXING:  cpu time      0.0004: real time      0.0004
    --------------------------------------------
      LOOP:  cpu time     18.0439: real time     18.0465

 eigenvalue-minimisations  : 25728
 total energy-change (2. order) :-0.7770774E-01  (-0.7770669E-01)
 number of electron     132.9999831 magnetization 
 augmentation part       34.9680068 magnetization 

 Broyden mixing:
  rms(total) = 0.27076E+01    rms(broyden)= 0.27076E+01
  rms(prec ) = 0.39583E+01
  weight for this iteration     100.00

 Free energy of the ion-electron system (eV)
  ---------------------------------------------------
  alpha Z        PSCENC =       353.75656847
  Ewald energy   TEWEN  =     -9823.54474122
  -Hartree energ DENC   =     -4811.22005091
  -exchange      EXHF   =         0.00000000
  -V(xc)+E(xc)   XCENC  =       330.68494136
  PAW double counting   =     12249.27850793   -12170.51614461
  entropy T*S    EENTRO =         0.00302596
  eigenvalues    EBANDS =     -1523.96453105
  atomic energy  EATOM  =     15281.81476201
  Solvation  Ediel_sol  =         0.00000000
  ---------------------------------------------------
  free energy    TOTEN  =      -113.70766206 eV

  energy without entropy =     -113.71068802  energy(sigma->0) =     -113.70867072


--------------------------------------------------------------------------------------------------------




--------------------------------------- Iteration      1(   6)  ---------------------------------------


    POTLOK:  cpu time      0.0115: real time      0.0115
    SETDIJ:  cpu time      0.0018: real time      0.0018
     EDDAV:  cpu time     13.0533: real time     13.0549
       DOS:  cpu time      0.0008: real time      0.0008
    CHARGE:  cpu time      0.0882: real time      0.0883
    MIXING:  cpu time      0.0005: real time      0.0005
    --------------------------------------------
      LOOP:  cpu time     13.1563: real time     13.1578

 eigenvalue-minimisations  : 20736
 total energy-change (2. order) : 0.1132982E+02  (-0.6963633E+01)
 number of electron     132.9999779 magnetization 
 augmentation part       40.3194954 magnetization 

 Broyden mixing:
  rms(total) = 0.15950E+01    rms(broyden)= 0.15946E+01
  rms(prec ) = 0.26790E+01
  weight for this iteration     100.00

 eigenvalues of (default mixing * dielectric matrix)
  average eigenvalue GAMMA=   0.6828
  0.6828

 Free energy of the ion-electron system (eV)
  ---------------------------------------------------
  alpha Z        PSCENC =       353.75656847
  Ewald energy   TEWEN  =     -9823.54474122
  -Hartree energ DENC   =     -4493.82623869
  -exchange      EXHF   =         0.00000000
  -V(xc)+E(xc)   XCENC  =       318.26662070
  PAW double counting   =     13087.20112318   -13013.39937485
  entropy T*S    EENTRO =        -0.00275437
  eigenvalues    EBANDS =     -1812.64380848
  atomic energy  EATOM  =     15281.81476201
  Solvation  Ediel_sol  =         0.00000000
  ---------------------------------------------------
  free energy    TOTEN  =      -102.37784324 eV

  energy without entropy =     -102.37508888  energy(sigma->0) =     -102.37692512


--------------------------------------------------------------------------------------------------------




--------------------------------------- Iteration      1(   7)  ---------------------------------------


    POTLOK:  cpu time      0.0114: real time      0.0114
    SETDIJ:  cpu time      0.0018: real time      0.0018
     EDDAV:  cpu time     11.6283: real time     11.6301
       DOS:  cpu time      0.0010: real time      0.0010
    CHARGE:  cpu time      0.0851: real time      0.0851
    MIXING:  cpu time      0.0003: real time      0.0003
    --------------------------------------------
      LOOP:  cpu time     11.7279: real time     11.7297

 eigenvalue-minimisations  : 19584
 total energy-change (2. order) :-0.2584436E+00  (-0.3298280E+01)
 number of electron     132.9999797 magnetization 
 augmentation part       38.5456987 magnetization 

 Broyden mixing:
  rms(total) = 0.18253E+01    rms(broyden)= 0.18249E+01
  rms(prec ) = 0.33293E+01
  weight for this iteration     100.00

 eigenvalues of (default mixing * dielectric matrix)
  average eigenvalue GAMMA=   0.5190
  0.7741  0.2639

 Free energy of the ion-electron system (eV)
  ---------------------------------------------------
  alpha Z        PSCENC =       353.75656847
  Ewald energy   TEWEN  =     -9823.54474122
  -Hartree energ DENC   =     -4576.54934589
  -exchange      EXHF   =         0.00000000
  -V(xc)+E(xc)   XCENC  =       321.63148086
  PAW double counting   =     13540.94157024   -13460.07542835
  entropy T*S    EENTRO =        -0.01208824
  eigenvalues    EBANDS =     -1740.59906475
  atomic energy  EATOM  =     15281.81476201
  Solvation  Ediel_sol  =         0.00000000
  ---------------------------------------------------
  free energy    TOTEN  =      -102.63628686 eV

  energy without entropy =     -102.62419862  energy(sigma->0) =     -102.63225745


--------------------------------------------------------------------------------------------------------




--------------------------------------- Iteration      1(   8)  ---------------------------------------


    POTLOK:  cpu time      0.0099: real time      0.0099
    SETDIJ:  cpu time      0.0018: real time      0.0018
     EDDAV:  cpu time     12.6896: real time     12.6933
       DOS:  cpu time      0.0008: real time      0.0008
    CHARGE:  cpu time      0.0847: real time      0.0847
    MIXING:  cpu time      0.0003: real time      0.0003
    --------------------------------------------
      LOOP:  cpu time     12.7871: real time     12.7908

 eigenvalue-minimisations  : 20672
 total energy-change (2. order) : 0.3644016E+01  (-0.9157759E+00)
 number of electron     132.9999799 magnetization 
 augmentation part       37.8111701 magnetization 

 Broyden mixing:
  rms(total) = 0.62687E+00    rms(broyden)= 0.62664E+00
  rms(prec ) = 0.96089E+00
  weight for this iteration     100.00

 eigenvalues of (default mixing * dielectric matrix)
  average eigenvalue GAMMA=   0.6747
  1.2494  0.5431  0.2316

 Free energy of the ion-electron system (eV)
  ---------------------------------------------------
  alpha Z        PSCENC =       353.75656847
  Ewald energy   TEWEN  =     -9823.54474122
  -Hartree energ DENC   =     -4587.48146161
  -exchange      EXHF   =         0.00000000
  -V(xc)+E(xc)   XCENC  =       322.11308070
  PAW double counting   =     13732.20638187   -13649.25033454
  entropy T*S    EENTRO =        -0.00157842
  eigenvalues    EBANDS =     -1728.60494838
  atomic energy  EATOM  =     15281.81476201
  Solvation  Ediel_sol  =         0.00000000
  ---------------------------------------------------
  free energy    TOTEN  =       -98.99227111 eV

  energy without entropy =      -98.99069269  energy(sigma->0) =      -98.99174497


--------------------------------------------------------------------------------------------------------




--------------------------------------- Iteration      1(   9)  ---------------------------------------


    POTLOK:  cpu time      0.0102: real time      0.0102
    SETDIJ:  cpu time      0.0016: real time      0.0019
     EDDAV:  cpu time     14.6611: real time     14.6670
       DOS:  cpu time      0.0008: real time      0.0008
    CHARGE:  cpu time      0.0885: real time      0.0885
    MIXING:  cpu time      0.0006: real time      0.0005
    --------------------------------------------
      LOOP:  cpu time     14.7627: real time     14.7689

 eigenvalue-minimisations  : 22272
 total energy-change (2. order) : 0.4621249E-01  (-0.2500013E+00)
 number of electron     132.9999798 magnetization 
 augmentation part       37.9501833 magnetization 

 Broyden mixing:
  rms(total) = 0.54335E+00    rms(broyden)= 0.54326E+00
  rms(prec ) = 0.91532E+00
  weight for this iteration     100.00

 eigenvalues of (default mixing * dielectric matrix)
  average eigenvalue GAMMA=   0.8882
  2.4387  0.6462  0.2482  0.2196

 Free energy of the ion-electron system (eV)
  ---------------------------------------------------
  alpha Z        PSCENC =       353.75656847
  Ewald energy   TEWEN  =     -9823.54474122
  -Hartree energ DENC   =     -4579.47608308
  -exchange      EXHF   =         0.00000000
  -V(xc)+E(xc)   XCENC  =       321.78626757
  PAW double counting   =     14026.92157521   -13941.38771265
  entropy T*S    EENTRO =         0.00033617
  eigenvalues    EBANDS =     -1738.81703111
  atomic energy  EATOM  =     15281.81476201
  Solvation  Ediel_sol  =         0.00000000
  ---------------------------------------------------
  free energy    TOTEN  =       -98.94605862 eV

  energy without entropy =      -98.94639479  energy(sigma->0) =      -98.94617068


--------------------------------------------------------------------------------------------------------




--------------------------------------- Iteration      1(  10)  ---------------------------------------


    POTLOK:  cpu time      0.0119: real time      0.0119
    SETDIJ:  cpu time      0.0018: real time      0.0018
     EDDAV:  cpu time     10.5486: real time     10.5497
       DOS:  cpu time      0.0014: real time      0.0014
    CHARGE:  cpu time      0.0879: real time      0.0879
    MIXING:  cpu time      0.0005: real time      0.0005
    --------------------------------------------
      LOOP:  cpu time     10.6521: real time     10.6532

 eigenvalue-minimisations  : 18496
 total energy-change (2. order) : 0.2631503E+00  (-0.1015513E+00)
 number of electron     132.9999796 magnetization 
 augmentation part       38.2408429 magnetization 

 Broyden mixing:
  rms(total) = 0.27383E+00    rms(broyden)= 0.27382E+00
  rms(prec ) = 0.45216E+00
  weight for this iteration     100.00

 eigenvalues of (default mixing * dielectric matrix)
  average eigenvalue GAMMA=   0.9162
  2.2107  1.3120  0.5769  0.2655  0.2159

 Free energy of the ion-electron system (eV)
  ---------------------------------------------------
  alpha Z        PSCENC =       353.75656847
  Ewald energy   TEWEN  =     -9823.54474122
  -Hartree energ DENC   =     -4556.26066929
  -exchange      EXHF   =         0.00000000
  -V(xc)+E(xc)   XCENC  =       321.05212501
  PAW double counting   =     14856.57847704   -14763.61656945
  entropy T*S    EENTRO =        -0.00099352
  eigenvalues    EBANDS =     -1768.46186736
  atomic energy  EATOM  =     15281.81476201
  Solvation  Ediel_sol  =         0.00000000
  ---------------------------------------------------
  free energy    TOTEN  =       -98.68290831 eV

  energy without entropy =      -98.68191479  energy(sigma->0) =      -98.68257714


--------------------------------------------------------------------------------------------------------




--------------------------------------- Iteration      1(  11)  ---------------------------------------


    POTLOK:  cpu time      0.0120: real time      0.0120
    SETDIJ:  cpu time      0.0018: real time      0.0018
     EDDAV:  cpu time     13.5811: real time     13.5821
       DOS:  cpu time      0.0008: real time      0.0008
    CHARGE:  cpu time      0.0890: real time      0.0890
    MIXING:  cpu time      0.0005: real time      0.0005
    --------------------------------------------
      LOOP:  cpu time     13.6853: real time     13.6862

 eigenvalue-minimisations  : 21376
 total energy-change (2. order) : 0.8139874E-01  (-0.3407520E-01)
 number of electron     132.9999798 magnetization 
 augmentation part       37.9033538 magnetization 

 Broyden mixing:
  rms(total) = 0.75981E-01    rms(broyden)= 0.75883E-01
  rms(prec ) = 0.11131E+00
  weight for this iteration     100.00

 eigenvalues of (default mixing * dielectric matrix)
  average eigenvalue GAMMA=   1.0530
  2.5658  1.7753  0.9204  0.5735  0.2160  0.2670

 Free energy of the ion-electron system (eV)
  ---------------------------------------------------
  alpha Z        PSCENC =       353.75656847
  Ewald energy   TEWEN  =     -9823.54474122
  -Hartree energ DENC   =     -4571.59437824
  -exchange      EXHF   =         0.00000000
  -V(xc)+E(xc)   XCENC  =       321.75823450
  PAW double counting   =     14833.85145297   -14738.79992201
  entropy T*S    EENTRO =        -0.00386928
  eigenvalues    EBANDS =     -1755.83961677
  atomic energy  EATOM  =     15281.81476201
  Solvation  Ediel_sol  =         0.00000000
  ---------------------------------------------------
  free energy    TOTEN  =       -98.60150957 eV

  energy without entropy =      -98.59764028  energy(sigma->0) =      -98.60021981


--------------------------------------------------------------------------------------------------------




--------------------------------------- Iteration      1(  12)  ---------------------------------------


    POTLOK:  cpu time      0.0117: real time      0.0117
    SETDIJ:  cpu time      0.0019: real time      0.0019
     EDDAV:  cpu time     12.2414: real time     12.2417
       DOS:  cpu time      0.0012: real time      0.0011
    CHARGE:  cpu time      0.0850: real time      0.0850
    MIXING:  cpu time      0.0004: real time      0.0004
    --------------------------------------------
      LOOP:  cpu time     12.3415: real time     12.3418

 eigenvalue-minimisations  : 20096
 total energy-change (2. order) : 0.7070369E-03  (-0.2790751E-02)
 number of electron     132.9999798 magnetization 
 augmentation part       37.9409879 magnetization 

 Broyden mixing:
  rms(total) = 0.34459E-01    rms(broyden)= 0.34457E-01
  rms(prec ) = 0.44567E-01
  weight for this iteration     100.00

 eigenvalues of (default mixing * dielectric matrix)
  average eigenvalue GAMMA=   1.0782
  2.5355  1.9901  0.9821  0.9821  0.5747  0.2159  0.2670

 Free energy of the ion-electron system (eV)
  ---------------------------------------------------
  alpha Z        PSCENC =       353.75656847
  Ewald energy   TEWEN  =     -9823.54474122
  -Hartree energ DENC   =     -4570.99481254
  -exchange      EXHF   =         0.00000000
  -V(xc)+E(xc)   XCENC  =       321.81208884
  PAW double counting   =     14891.72015403   -14793.95219937
  entropy T*S    EENTRO =        -0.00357930
  eigenvalues    EBANDS =     -1759.20904345
  atomic energy  EATOM  =     15281.81476201
  Solvation  Ediel_sol  =         0.00000000
  ---------------------------------------------------
  free energy    TOTEN  =       -98.60080253 eV

  energy without entropy =      -98.59722323  energy(sigma->0) =      -98.59960943


--------------------------------------------------------------------------------------------------------




--------------------------------------- Iteration      1(  13)  ---------------------------------------


    POTLOK:  cpu time      0.0100: real time      0.0100
    SETDIJ:  cpu time      0.0019: real time      0.0019
     EDDAV:  cpu time     13.3786: real time     13.3787
       DOS:  cpu time      0.0008: real time      0.0008
    CHARGE:  cpu time      0.0846: real time      0.0846
    MIXING:  cpu time      0.0004: real time      0.0004
    --------------------------------------------
      LOOP:  cpu time     13.4763: real time     13.4764

 eigenvalue-minimisations  : 21120
 total energy-change (2. order) : 0.1141756E-03  (-0.4251765E-03)
 number of electron     132.9999798 magnetization 
 augmentation part       37.9022952 magnetization 

 Broyden mixing:
  rms(total) = 0.12338E-01    rms(broyden)= 0.12333E-01
  rms(prec ) = 0.17741E-01
  weight for this iteration     100.00

 eigenvalues of (default mixing * dielectric matrix)
  average eigenvalue GAMMA=   1.1886
  2.7842  2.4401  1.3192  1.0268  0.8819  0.5735  0.2159  0.2670

 Free energy of the ion-electron system (eV)
  ---------------------------------------------------
  alpha Z        PSCENC =       353.75656847
  Ewald energy   TEWEN  =     -9823.54474122
  -Hartree energ DENC   =     -4573.80310791
  -exchange      EXHF   =         0.00000000
  -V(xc)+E(xc)   XCENC  =       321.95746959
  PAW double counting   =     14864.04098547   -14764.79644994
  entropy T*S    EENTRO =        -0.00376264
  eigenvalues    EBANDS =     -1758.02241219
  atomic energy  EATOM  =     15281.81476201
  Solvation  Ediel_sol  =         0.00000000
  ---------------------------------------------------
  free energy    TOTEN  =       -98.60068835 eV

  energy without entropy =      -98.59692572  energy(sigma->0) =      -98.59943414


--------------------------------------------------------------------------------------------------------




--------------------------------------- Iteration      1(  14)  ---------------------------------------


    POTLOK:  cpu time      0.0100: real time      0.0100
    SETDIJ:  cpu time      0.0019: real time      0.0019
     EDDAV:  cpu time     14.4888: real time     14.4893
       DOS:  cpu time      0.0012: real time      0.0011
    CHARGE:  cpu time      0.0851: real time      0.0851
    MIXING:  cpu time      0.0004: real time      0.0004
    --------------------------------------------
      LOOP:  cpu time     14.5873: real time     14.5877

 eigenvalue-minimisations  : 22912
 total energy-change (2. order) : 0.4597107E-04  (-0.4788435E-04)
 number of electron     132.9999798 magnetization 
 augmentation part       37.9002375 magnetization 

 Broyden mixing:
  rms(total) = 0.32063E-02    rms(broyden)= 0.32045E-02
  rms(prec ) = 0.36887E-02
  weight for this iteration     100.00

 eigenvalues of (default mixing * dielectric matrix)
  average eigenvalue GAMMA=   1.2397
  2.9810  2.5694  1.6712  0.2159  0.2670  0.5739  1.0153  1.0153  0.8487

 Free energy of the ion-electron system (eV)
  ---------------------------------------------------
  alpha Z        PSCENC =       353.75656847
  Ewald energy   TEWEN  =     -9823.54474122
  -Hartree energ DENC   =     -4574.38345667
  -exchange      EXHF   =         0.00000000
  -V(xc)+E(xc)   XCENC  =       321.98537369
  PAW double counting   =     14849.70999684   -14749.79877006
  entropy T*S    EENTRO =        -0.00373495
  eigenvalues    EBANDS =     -1758.13664051
  atomic energy  EATOM  =     15281.81476201
  Solvation  Ediel_sol  =         0.00000000
  ---------------------------------------------------
  free energy    TOTEN  =       -98.60064238 eV

  energy without entropy =      -98.59690744  energy(sigma->0) =      -98.59939740


--------------------------------------------------------------------------------------------------------




--------------------------------------- Iteration      1(  15)  ---------------------------------------


    POTLOK:  cpu time      0.0099: real time      0.0099
    SETDIJ:  cpu time      0.0018: real time      0.0018
[...]
     46       5.0404      2.00000
     47       5.3445      2.00000
     48       5.3510      2.00000
     49       5.5738      2.00000
     50       5.7130      2.00000
     51       5.8400      2.00000
     52       5.9823      2.00000
     53       6.0177      2.00000
     54       6.2247      2.00000
     55       6.3312      2.00000
     56       6.5072      2.00000
     57       6.5946      2.00000
     58       6.6308      2.00000
     59       6.9312      2.00000
     60       7.1301      2.00000
     61       7.5018      2.00000
     62       7.5326      2.00000
     63       7.7082      2.00012
     64       7.7149      2.00018
     65       7.9561      1.83397
     66       7.9828      1.52092
     67       8.0303      0.75008
     68       8.1072     -0.02866
     69       8.2510     -0.00430
     70       8.3330     -0.00007
     71       8.3644     -0.00001
     72       8.4408     -0.00000
     73       8.4796     -0.00000
     74       8.7838     -0.00000
     75       8.9296     -0.00000
     76       9.1365     -0.00000
     77       9.1423     -0.00000
     78       9.3382     -0.00000
     79       9.3443     -0.00000
     80       9.4572     -0.00000
     81       9.4728     -0.00000
     82       9.5209     -0.00000
     83       9.6136     -0.00000
     84       9.6861     -0.00000
     85       9.6948     -0.00000
     86       9.8374     -0.00000
     87      10.0865      0.00000
     88      10.2163      0.00000
     89      10.2851      0.00000
     90      10.5364      0.00000
     91      10.7780      0.00000
     92      10.9516      0.00000
     93      11.1071      0.00000
     94      11.2049      0.00000
     95      11.2373      0.00000
     96      11.2736      0.00000
     97      11.5055      0.00000
     98      11.8094      0.00000
     99      12.0694      0.00000
    100      12.1249      0.00000
    101      12.2754      0.00000
    102      12.6905      0.00000
    103      12.7190      0.00000
    104      12.9211      0.00000
    105      13.1883      0.00000
    106      13.5380      0.00000
    107      13.6646      0.00000
    108      14.1998      0.00000
    109      14.4538      0.00000
    110      14.9747      0.00000
    111      15.0839      0.00000
    112      15.2852      0.00000
    113      15.4686      0.00000
    114      15.4905      0.00000
    115      15.7965      0.00000
    116      15.9262      0.00000
    117      15.9415      0.00000
    118      15.9666      0.00000
    119      16.1294      0.00000
    120      16.1743      0.00000
    121      16.4920      0.00000
    122      16.6348      0.00000
    123      16.6941      0.00000
    124      17.0199      0.00000
    125      17.1785      0.00000
    126      17.5304      0.00000
    127      17.7196      0.00000
    128      18.1202      0.00000

 k-point    60 :       0.4444    0.4444    0.5000
  band No.  band energies     occupation 
      1     -48.9367      2.00000
      2     -48.9366      2.00000
      3     -48.9366      2.00000
      4     -48.9365      2.00000
      5     -48.6486      2.00000
      6     -48.6453      2.00000
      7     -48.6026      2.00000
      8     -48.6021      2.00000
      9     -25.3312      2.00000
     10     -25.3310      2.00000
     11     -25.3292      2.00000
     12     -25.3290      2.00000
     13     -25.1694      2.00000
     14     -25.1685      2.00000
     15     -25.1541      2.00000
     16     -25.1540      2.00000
     17     -25.1122      2.00000
     18     -25.1117      2.00000
     19     -25.1016      2.00000
     20     -25.1014      2.00000
     21     -25.0327      2.00000
     22     -24.9928      2.00000
     23     -24.9862      2.00000
     24     -24.9761      2.00000
     25     -24.8940      2.00000
     26     -24.8939      2.00000
     27     -24.8889      2.00000
     28     -24.8888      2.00000
     29     -24.8287      2.00000
     30     -24.8287      2.00000
     31     -24.8277      2.00000
     32     -24.8277      2.00000
     33      -7.4323      2.00000
     34      -7.3278      2.00000
     35      -7.2890      2.00000
     36      -7.2407      2.00000
     37      -7.2407      2.00000
     38      -0.7620      2.00000
     39       0.4315      2.00000
     40       1.1765      2.00000
     41       1.3367      2.00000
     42       1.3467      2.00000
     43       1.7850      2.00000
     44       1.8327      2.00000
     45       2.2524      2.00000
     46       5.2407      2.00000
     47       5.5021      2.00000
     48       5.5643      2.00000
     49       5.6687      2.00000
     50       5.6892      2.00000
     51       5.8219      2.00000
     52       6.1392      2.00000
     53       6.1532      2.00000
     54       6.2699      2.00000
     55       6.3838      2.00000
     56       6.8470      2.00000
     57       6.9887      2.00000
     58       7.0018      2.00000
     59       7.0726      2.00000
     60       7.1229      2.00000
     61       7.4697      2.00000
     62       7.5212      2.00000
     63       7.5370      2.00000
     64       7.6648      2.00001
     65       7.8121      2.01437
     66       7.9743      1.63429
     67       8.0075      1.13233
     68       8.0668      0.24494
     69       8.1409     -0.07064
     70       8.2439     -0.00573
     71       8.3135     -0.00021
     72       8.3392     -0.00005
     73       8.3790     -0.00000
     74       8.7416     -0.00000
     75       8.9694     -0.00000
     76       9.0904     -0.00000
     77       9.1931     -0.00000
     78       9.3173     -0.00000
     79       9.3176     -0.00000
     80       9.3435     -0.00000
     81       9.3753     -0.00000
     82       9.4085     -0.00000
     83       9.5032     -0.00000
     84       9.5049     -0.00000
     85       9.5802     -0.00000
     86       9.9166     -0.00000
     87      10.0724      0.00000
     88      10.0746      0.00000
     89      10.4159      0.00000
     90      10.7094      0.00000
     91      10.9046      0.00000
     92      10.9828      0.00000
     93      10.9852      0.00000
     94      11.0998      0.00000
     95      11.1322      0.00000
     96      11.3981      0.00000
     97      11.4540      0.00000
     98      11.9320      0.00000
     99      12.2376      0.00000
    100      12.3704      0.00000
    101      12.4127      0.00000
    102      12.4596      0.00000
    103      12.6290      0.00000
    104      12.6612      0.00000
    105      12.8647      0.00000
    106      13.0426      0.00000
    107      13.4941      0.00000
    108      13.5403      0.00000
    109      13.8449      0.00000
    110      15.2775      0.00000
    111      15.2989      0.00000
    112      15.4226      0.00000
    113      15.8252      0.00000
    114      15.9204      0.00000
    115      15.9470      0.00000
    116      16.0079      0.00000
    117      16.1946      0.00000
    118      16.4364      0.00000
    119      16.7123      0.00000
    120      16.8008      0.00000
    121      16.9444      0.00000
    122      16.9967      0.00000
    123      17.0070      0.00000
    124      17.0757      0.00000
    125      17.1330      0.00000
    126      17.5713      0.00000
    127      17.5981      0.00000
    128      17.6481      0.00000


--------------------------------------------------------------------------------------------------------


 soft charge-density along one line, spin component           1
         0         1         2         3         4         5         6         7         8         9
 total charge-density along one line
 
 pseudopotential strength for first ion, spin component:           1
 -3.661 -19.713   0.000  -0.009  -0.000  -0.000   0.009   0.000
-19.713   7.717   0.000  -0.004  -0.000   0.000  -0.001  -0.000
  0.000   0.000 -22.589  -0.000  -0.000   7.195   0.000   0.000
 -0.009  -0.004  -0.000 -22.667   0.000   0.000   7.247  -0.000
 -0.000  -0.000  -0.000   0.000 -22.589   0.000  -0.000   7.195
 -0.000   0.000   7.195   0.000   0.000   6.557  -0.000  -0.000
  0.009  -0.001   0.000   7.247  -0.000  -0.000   6.538   0.000
  0.000  -0.000   0.000  -0.000   7.195  -0.000   0.000   6.557
 -0.000  -0.000  -0.000   0.000   0.000   0.000  -0.000  -0.000
 -0.000  -0.000  -0.009   0.000   0.000   0.006  -0.000  -0.000
 -0.032  -0.009  -0.000  -0.006   0.000   0.000   0.004  -0.000
  0.000   0.000   0.000  -0.000  -0.009  -0.000   0.000   0.006
  0.000   0.000  -0.000  -0.000  -0.000   0.000   0.000   0.000
 -0.000  -0.000  -0.000   0.000   0.000   0.000  -0.000  -0.000
 -0.000  -0.000  -0.011   0.000   0.000   0.007  -0.000  -0.000
 -0.040  -0.011  -0.000  -0.007   0.000   0.000   0.005  -0.000
  0.000   0.000   0.000  -0.000  -0.011  -0.000   0.000   0.007
  0.000   0.000  -0.000  -0.000  -0.000   0.000   0.000   0.000
 total augmentation occupancy for first ion, spin component:           1
  1.995  -0.059   0.000   0.000   0.000   0.000   0.000   0.000   0.000   0.000  -0.007   0.000   0.000   0.000   0.000   0.009
 -0.059   1.310   0.000   0.002   0.000   0.000  -0.013   0.000   0.000   0.000   0.006   0.000   0.000   0.000   0.000  -0.059
  0.000   0.000   1.983   0.000   0.000  -0.036   0.000   0.000   0.000   0.005  -0.000  -0.000   0.000   0.000  -0.003   0.000
  0.000   0.002   0.000   1.983   0.000   0.000  -0.035   0.000   0.000   0.000  -0.003   0.000   0.000   0.000   0.000   0.003
  0.000   0.000   0.000   0.000   1.983   0.000   0.000  -0.036   0.000   0.000   0.000   0.005   0.000  -0.000   0.000   0.000
  0.000   0.000  -0.036   0.000   0.000   0.108   0.000   0.000   0.000   0.010   0.000   0.000   0.000   0.000  -0.008   0.000
  0.000  -0.013   0.000  -0.035   0.000   0.000   0.105   0.000   0.000   0.000  -0.014   0.000   0.000   0.000   0.000   0.009
  0.000   0.000   0.000   0.000  -0.036   0.000   0.000   0.108  -0.000   0.000   0.000   0.010   0.000   0.000   0.000   0.000
  0.000   0.000   0.000   0.000   0.000   0.000   0.000  -0.000   1.763  -0.000   0.000   0.000   0.000  -0.880   0.000   0.000
  0.000   0.000   0.005   0.000   0.000   0.010   0.000   0.000  -0.000   2.529   0.000   0.000   0.000   0.000  -1.235   0.000
 -0.007   0.006  -0.000  -0.003   0.000   0.000  -0.014   0.000   0.000   0.000   1.933   0.000   0.000   0.000   0.000  -0.880
  0.000   0.000  -0.000   0.000   0.005   0.000   0.000   0.010   0.000   0.000   0.000   2.529   0.000  -0.000   0.000   0.000
  0.000   0.000   0.000   0.000   0.000   0.000   0.000   0.000   0.000   0.000   0.000   0.000   2.396   0.000   0.000   0.000
  0.000   0.000   0.000   0.000  -0.000   0.000   0.000   0.000  -0.880   0.000   0.000  -0.000   0.000   0.449   0.000   0.000
  0.000   0.000  -0.003   0.000   0.000  -0.008   0.000   0.000   0.000  -1.235   0.000   0.000   0.000   0.000   0.633  -0.000
  0.009  -0.059   0.000   0.003   0.000   0.000   0.009   0.000   0.000   0.000  -0.880   0.000   0.000   0.000  -0.000   0.430
 -0.000   0.000   0.000   0.000  -0.003   0.000   0.000  -0.008   0.000   0.000   0.000  -1.235   0.000  -0.000   0.000   0.000
  0.000   0.000   0.000   0.000   0.000   0.000   0.000   0.000   0.000  -0.000   0.000   0.000  -0.909  -0.000   0.000   0.000


------------------------ aborting loop because EDIFF is reached ----------------------------------------


    CHARGE:  cpu time      0.0878: real time      0.0878
    FORLOC:  cpu time      0.0004: real time      0.0004
    FORNL :  cpu time      1.3923: real time      1.3923
    STRESS:  cpu time      4.7106: real time      4.7107
    FORCOR:  cpu time      0.0116: real time      0.0116
    FORHAR:  cpu time      0.0023: real time      0.0023
    MIXING:  cpu time      0.0004: real time      0.0004
    OFIELD:  cpu time      0.0000: real time      0.0000

  FORCE on cell =-STRESS in cart. coord.  units (eV):
  Direction    XX          YY          ZZ          XY          YZ          ZX
  --------------------------------------------------------------------------------------
  Alpha Z   353.75657   353.75657   353.75657
  Ewald   -3102.58969 -3102.58969 -3618.38885     0.00000    -0.00000    -0.00000
  Hartree  1709.59839  1709.59839  1155.26642    -0.00000    -0.00000    -0.00000
  E(xc)    -654.53867  -654.53867  -655.08384     0.00000    -0.00000     0.00000
  Local    -417.07574  -417.07574   678.56449    -0.00000    -0.00000     0.00000
  n-local   -91.25517  -114.46092   -71.77223    -2.70203     1.76546     3.70531
  augment   617.09197   617.09197   601.64190     0.00000     0.00000    -0.00000
  Kinetic  1587.19784  1606.32209  1556.09837     0.09219    -3.44712    -5.17389
  Fock        0.00000     0.00000     0.00000     0.00000     0.00000     0.00000
  -------------------------------------------------------------------------------------
  Total       0.14474     0.14474     0.08283     0.00000     0.00000     0.00000
  in kB       0.81404     0.81404     0.46583     0.00000     0.00000     0.00000
  external pressure =        0.70 kB  Pullay stress =        0.00 kB


 VOLUME and BASIS-vectors are now :
 -----------------------------------------------------------------------------
  energy-cutoff  :      520.00
  volume of cell :      284.88
      direct lattice vectors                 reciprocal lattice vectors
     5.858455502  0.000000000  0.000000000     0.170693453  0.000000000  0.000000000
     0.000000000  5.858455502  0.000000000     0.000000000  0.170693453  0.000000000
     0.000000000  0.000000000  8.300273972     0.000000000  0.000000000  0.120477951

  length of vectors
     5.858455502  5.858455502  8.300273972     0.170693453  0.170693453  0.120477951


 FORCES acting on ions
    electron-ion (+dipol)            ewald-force                    non-local-force                 convergence-correction
 -----------------------------------------------------------------------------------------------
   -.111E-13 0.409E-12 -.454E+02   0.293E-13 -.697E-14 0.445E+02   0.000E+00 0.000E+00 0.851E+00   -.383E-13 0.353E-13 -.432E-02
   -.116E-13 -.458E-12 0.454E+02   0.115E-13 -.533E-14 -.445E+02   0.000E+00 -.260E-17 -.851E+00   -.675E-13 -.465E-13 0.432E-02
   -.674E-14 0.124E-11 -.443E+02   0.672E-14 0.902E-14 0.454E+02   0.000E+00 0.000E+00 -.112E+01   -.405E-13 -.574E-13 0.416E-02
   -.401E-13 0.168E-13 0.443E+02   0.628E-14 0.127E-13 -.454E+02   0.000E+00 0.000E+00 0.112E+01   -.107E-12 0.127E-12 -.416E-02
   0.708E-12 0.286E-12 -.443E+02   -.160E-13 -.805E-14 0.454E+02   0.217E-18 0.867E-18 -.112E+01   0.413E-13 0.181E-13 0.416E-02
   0.730E-12 -.303E-12 0.443E+02   -.230E-14 0.172E-15 -.454E+02   0.000E+00 0.867E-18 0.112E+01   0.128E-12 -.525E-13 -.416E-02
   0.733E-12 0.273E-11 -.219E+03   -.182E-13 0.668E-14 0.220E+03   0.000E+00 -.520E-17 -.636E+00   0.556E-13 -.305E-13 -.107E-01
   0.742E-12 0.239E-11 0.219E+03   0.525E-15 -.537E-14 -.220E+03   0.000E+00 0.347E-17 0.636E+00   0.135E-12 0.105E-12 0.107E-01
   0.943E+01 0.943E+01 -.306E-07   -.937E+01 -.937E+01 -.255E-14   -.597E-01 -.597E-01 -.867E-18   -.895E-03 -.895E-03 -.141E-13
   0.308E+02 0.308E+02 0.156E-06   -.327E+02 -.327E+02 -.790E-14   0.185E+01 0.185E+01 -.867E-18   0.165E-03 0.165E-03 0.143E-13
   0.943E+01 -.943E+01 0.711E-13   -.937E+01 0.937E+01 0.263E-13   -.597E-01 0.597E-01 -.434E-18   -.895E-03 0.895E-03 -.623E-14
   0.308E+02 -.308E+02 0.182E-13   -.327E+02 0.327E+02 0.103E-13   0.185E+01 -.185E+01 0.651E-18   0.165E-03 -.165E-03 0.317E-14
   -.943E+01 0.943E+01 -.147E-11   0.937E+01 -.937E+01 -.269E-14   0.597E-01 -.597E-01 0.000E+00   0.895E-03 -.895E-03 -.107E-13
   -.308E+02 0.308E+02 0.255E-13   0.327E+02 -.327E+02 0.309E-14   -.185E+01 0.185E+01 0.217E-18   -.165E-03 0.165E-03 0.806E-14
   -.943E+01 -.943E+01 0.306E-07   0.937E+01 0.937E+01 -.350E-14   0.597E-01 0.597E-01 -.434E-18   0.895E-03 0.895E-03 -.405E-14
   -.308E+02 -.308E+02 -.156E-06   0.327E+02 0.327E+02 0.212E-13   -.185E+01 -.185E+01 0.434E-18   -.165E-03 -.165E-03 -.308E-14
   0.115E-11 0.374E-11 0.267E-11   0.388E-13 0.970E-14 0.775E-14   0.331E-23 0.000E+00 -.662E-23   0.291E-13 -.298E-13 -.129E-12
 -----------------------------------------------------------------------------------------------
   0.450E-11 0.109E-10 0.159E-10   -.251E-13 0.259E-14 -.487E-14   0.331E-23 0.222E-15 -.112E-15   0.128E-12 0.677E-13 -.340E-12
 
 
 POSITION                                       TOTAL-FORCE (eV/Angst)
 -----------------------------------------------------------------------------------
      0.00000      0.00000      0.15500         0.000000     -0.000000      0.010478
      0.00000      0.00000      3.99514         0.000000      0.000000     -0.010478
      0.00000      2.92923      8.26298         0.000000     -0.000000     -0.004829
      0.00000      2.92923      4.18743         0.000000      0.000000      0.004829
      2.92923      0.00000      8.26298         0.000000      0.000000     -0.004829
      2.92923      0.00000      4.18743         0.000000     -0.000000      0.004829
      2.92923      2.92923      0.38499         0.000000     -0.000000     -0.005031
      2.92923      2.92923      3.76515         0.000000     -0.000000      0.005031
      1.42176      1.42176      2.07507        -0.002818     -0.002818      0.000000
      1.25322      1.25322      6.22521        -0.010716     -0.010716      0.000000
      1.42176      4.43669      2.07507        -0.002818      0.002818     -0.000000
      1.25322      4.60523      6.22521        -0.010716      0.010716     -0.000000
      4.43669      1.42176      2.07507         0.002818     -0.002818      0.000000
      4.60523      1.25322      6.22521         0.010716     -0.010716     -0.000000
      4.43669      4.43669      2.07507         0.002818      0.002818      0.000000
      4.60523      4.60523      6.22521         0.010716      0.010716      0.000000
      2.92923      2.92923      6.22521         0.000000      0.000000      0.000000
 -----------------------------------------------------------------------------------
    total drift:                                0.000000      0.000000      0.000000


--------------------------------------------------------------------------------------------------------



  FREE ENERGIE OF THE ION-ELECTRON SYSTEM (eV)
  ---------------------------------------------------
  free  energy   TOTEN  =       -98.60063652 eV

  energy  without entropy=      -98.59690394  energy(sigma->0) =      -98.59939233
 


--------------------------------------------------------------------------------------------------------


    POTLOK:  cpu time      0.0113: real time      0.0113


--------------------------------------------------------------------------------------------------------


 writing wavefunctions
     LOOP+:  cpu time    205.2881: real time    205.3118
    4ORBIT:  cpu time      0.0000: real time      0.0000

 total amount of memory used by VASP MPI-rank0   252550. kBytes
=======================================================================

   base                                    :      30000. kBytes
   nonl-proj                               :     202830. kBytes
   fftplans                                :        689. kBytes
   grid                                    :       3407. kBytes
   one-center                              :        264. kBytes
   wavefun                                 :      15360. kBytes
 
  
  
 General timing and accounting informations for this job:
 ========================================================
  
                  Total CPU time used (sec):      209.829
                            User time (sec):      201.170
                          System time (sec):        8.659
                         Elapsed time (sec):      210.111
  
                   Maximum memory used (kb):      419840.
                   Average memory used (kb):          N/A
  
                          Minor page faults:        74089
                          Major page faults:           14
                 Voluntary context switches:          111
