<?xml version="1.0" encoding="ISO-8859-1"?>
<modeling>
 <generator>
  <i name="program" type="string">vasp </i>
  <i name="version" type="string">6.5.0  </i>
  <i name="subversion" type="string">16Dec24 (build Apr 17 2025 17:55:45) complex                          parallel </i>
  <i name="platform" type="string">LinuxIFC </i>
  <i name="date" type="string">2025 06 04 </i>
  <i name="time" type="string">10:22:35 </i>
 </generator>
 <incar>
  <i type="int" name="ISTART">     0</i>
  <i type="string" name="PREC">N</i>
  <i type="string" name="ALGO">N</i>
  <i type="int" name="ICHARG">     2</i>
  <i type="int" name="NELM">   500</i>
  <i type="int" name="IBRION">    -1</i>
  <i name="EDIFF">      0.00001000</i>
  <i name="EDIFFG">     -0.01000000</i>
  <i type="int" name="NSW">     0</i>
  <i type="int" name="ISIF">     3</i>
  <i name="ENCUT">    520.00000000</i>
  <i type="logical" name="LREAL"> F  </i>
  <i type="int" name="ISMEAR">     1</i>
  <i name="SIGMA">      0.10000000</i>
 </incar>
 <primitive_cell>
  <structure name="primitive_cell" >
   <crystal>
    <varray name="basis" >
     <v>       5.85845550       0.00000000       0.00000000 </v>
     <v>       0.00000000       5.85845550       0.00000000 </v>
     <v>       0.00000000       0.00000000       8.30027397 </v>
    </varray>
    <i name="volume">    284.87786034 </i>
    <varray name="rec_basis" >
     <v>       0.17069345       0.00000000       0.00000000 </v>
     <v>       0.00000000       0.17069345       0.00000000 </v>
     <v>       0.00000000       0.00000000       0.12047795 </v>
    </varray>
   </crystal>
   <varray name="positions" >
    <v>       0.00000000       0.00000000       0.01867368 </v>
    <v>       0.00000000       0.00000000       0.48132632 </v>
    <v>       0.00000000       0.50000000       0.99550713 </v>
    <v>       0.00000000       0.50000000       0.50449287 </v>
    <v>       0.50000000       0.00000000       0.99550713 </v>
    <v>       0.50000000       0.00000000       0.50449287 </v>
    <v>       0.50000000       0.50000000       0.04638282 </v>
    <v>       0.50000000       0.50000000       0.45361718 </v>
    <v>       0.24268531       0.24268531       0.25000000 </v>
    <v>       0.21391683       0.21391683       0.75000000 </v>
    <v>       0.24268531       0.75731469       0.25000000 </v>
    <v>       0.21391683       0.78608317       0.75000000 </v>
    <v>       0.75731469       0.24268531       0.25000000 </v>
    <v>       0.78608317       0.21391683       0.75000000 </v>
    <v>       0.75731469       0.75731469       0.25000000 </v>
    <v>       0.78608317       0.78608317       0.75000000 </v>
    <v>       0.50000000       0.50000000       0.75000000 </v>
   </varray>
  </structure>
  <varray name="primitive_index" >
   <v type="int" >        1 </v>
   <v type="int" >        2 </v>
   <v type="int" >        3 </v>
   <v type="int" >        4 </v>
   <v type="int" >        5 </v>
   <v type="int" >        6 </v>
   <v type="int" >        7 </v>
   <v type="int" >        8 </v>
   <v type="int" >        9 </v>
   <v type="int" >       10 </v>
   <v type="int" >       11 </v>
   <v type="int" >       12 </v>
   <v type="int" >       13 </v>
   <v type="int" >       14 </v>
   <v type="int" >       15 </v>
   <v type="int" >       16 </v>
   <v type="int" >       17 </v>
  </varray>
 </primitive_cell>
 <kpoints>
  <generation param="Gamma">
   <v type="int" name="divisions">       9        9        6 </v>
   <v name="usershift">      0.00000000       0.00000000       0.00000000 </v>
   <v name="genvec1">      0.11111111       0.00000000       0.00000000 </v>
   <v name="genvec2">      0.00000000       0.11111111       0.00000000 </v>
   <v name="genvec3">      0.00000000       0.00000000       0.16666667 </v>
   <v name="shift">      0.00000000       0.00000000       0.00000000 </v>
  </generation>
  <varray name="kpointlist" >
   <v>       0.00000000       0.00000000       0.00000000 </v>
   <v>       0.11111111       0.00000000       0.00000000 </v>
   <v>       0.22222222       0.00000000       0.00000000 </v>
   <v>       0.33333333       0.00000000       0.00000000 </v>
   <v>       0.44444444       0.00000000       0.00000000 </v>
   <v>       0.11111111       0.11111111       0.00000000 </v>
   <v>       0.22222222       0.11111111       0.00000000 </v>
   <v>       0.33333333       0.11111111       0.00000000 </v>
   <v>       0.44444444       0.11111111       0.00000000 </v>
   <v>       0.22222222       0.22222222       0.00000000 </v>
   <v>       0.33333333       0.22222222       0.00000000 </v>
   <v>       0.44444444       0.22222222       0.00000000 </v>
   <v>       0.33333333       0.33333333       0.00000000 </v>
   <v>       0.44444444       0.33333333       0.00000000 </v>
   <v>       0.44444444       0.44444444       0.00000000 </v>
   <v>       0.00000000       0.00000000       0.16666667 </v>
   <v>       0.11111111       0.00000000       0.16666667 </v>
   <v>       0.22222222       0.00000000       0.16666667 </v>
   <v>       0.33333333       0.00000000       0.16666667 </v>
   <v>       0.44444444       0.00000000       0.16666667 </v>
   <v>       0.11111111       0.11111111       0.16666667 </v>
   <v>       0.22222222       0.11111111       0.16666667 </v>
   <v>       0.33333333       0.11111111       0.16666667 </v>
   <v>       0.44444444       0.11111111       0.16666667 </v>
   <v>       0.22222222       0.22222222       0.16666667 </v>
   <v>       0.33333333       0.22222222       0.16666667 </v>
   <v>       0.44444444       0.22222222       0.16666667 </v>
   <v>       0.33333333       0.33333333       0.16666667 </v>
   <v>       0.44444444       0.33333333       0.16666667 </v>
   <v>       0.44444444       0.44444444       0.16666667 </v>
   <v>       0.00000000       0.00000000       0.33333333 </v>
   <v>       0.11111111       0.00000000       0.33333333 </v>
   <v>       0.22222222       0.00000000       0.33333333 </v>
   <v>       0.33333333       0.00000000       0.33333333 </v>
   <v>       0.44444444       0.00000000       0.33333333 </v>
   <v>       0.11111111       0.11111111       0.33333333 </v>
   <v>       0.22222222       0.11111111       0.33333333 </v>
   <v>       0.33333333       0.11111111       0.33333333 </v>
   <v>       0.44444444       0.11111111       0.33333333 </v>
   <v>       0.22222222       0.22222222       0.33333333 </v>
   <v>       0.33333333       0.22222222       0.33333333 </v>
   <v>       0.44444444       0.22222222       0.33333333 </v>
   <v>       0.33333333       0.33333333       0.33333333 </v>
   <v>       0.44444444       0.33333333       0.33333333 </v>
   <v>       0.44444444       0.44444444       0.33333333 </v>
   <v>       0.00000000       0.00000000       0.50000000 </v>
   <v>       0.11111111       0.00000000       0.50000000 </v>
   <v>       0.22222222       0.00000000       0.50000000 </v>
   <v>       0.33333333       0.00000000       0.50000000 </v>
   <v>       0.44444444       0.00000000       0.50000000 </v>
   <v>       0.11111111       0.11111111       0.50000000 </v>
   <v>       0.22222222       0.11111111       0.50000000 </v>
   <v>       0.33333333       0.11111111       0.50000000 </v>
   <v>       0.44444444       0.11111111       0.50000000 </v>
   <v>       0.22222222       0.22222222       0.50000000 </v>
   <v>       0.33333333       0.22222222       0.50000000 </v>
   <v>       0.44444444       0.22222222       0.50000000 </v>
   <v>       0.33333333       0.33333333       0.50000000 </v>
   <v>       0.44444444       0.33333333       0.50000000 </v>
   <v>       0.44444444       0.44444444       0.50000000 </v>
  </varray>
  <varray name="weights" >
   <v>       0.00205761 </v>
   <v>       0.00823045 </v>
   <v>       0.00823045 </v>
   <v>       0.00823045 </v>
   <v>       0.00823045 </v>
   <v>       0.00823045 </v>
   <v>       0.01646091 </v>
   <v>       0.01646091 </v>
   <v>       0.01646091 </v>
   <v>       0.00823045 </v>
   <v>       0.01646091 </v>
   <v>       0.01646091 </v>
   <v>       0.00823045 </v>
   <v>       0.01646091 </v>
   <v>       0.00823045 </v>
   <v>       0.00411523 </v>
   <v>       0.01646091 </v>
   <v>       0.01646091 </v>
   <v>       0.01646091 </v>
   <v>       0.01646091 </v>
   <v>       0.01646091 </v>
   <v>       0.03292181 </v>
   <v>       0.03292181 </v>
   <v>       0.03292181 </v>
   <v>       0.01646091 </v>
   <v>       0.03292181 </v>
   <v>       0.03292181 </v>
   <v>       0.01646091 </v>
   <v>       0.03292181 </v>
   <v>       0.01646091 </v>
   <v>       0.00411523 </v>
   <v>       0.01646091 </v>
   <v>       0.01646091 </v>
   <v>       0.01646091 </v>
   <v>       0.01646091 </v>
   <v>       0.01646091 </v>
   <v>       0.03292181 </v>
   <v>       0.03292181 </v>
   <v>       0.03292181 </v>
   <v>       0.01646091 </v>
   <v>       0.03292181 </v>
   <v>       0.03292181 </v>
   <v>       0.01646091 </v>
   <v>       0.03292181 </v>
   <v>       0.01646091 </v>
   <v>       0.00205761 </v>
   <v>       0.00823045 </v>
   <v>       0.00823045 </v>
   <v>       0.00823045 </v>
   <v>       0.00823045 </v>
   <v>       0.00823045 </v>
   <v>       0.01646091 </v>
   <v>       0.01646091 </v>
   <v>       0.01646091 </v>
   <v>       0.00823045 </v>
   <v>       0.01646091 </v>
   <v>       0.01646091 </v>
   <v>       0.00823045 </v>
   <v>       0.01646091 </v>
   <v>       0.00823045 </v>
  </varray>
 </kpoints>
 <parameters>
  <separator name="general" >
   <i type="string" name="SYSTEM">unknown system</i>
   <i type="logical" name="LCOMPAT"> F  </i>
  </separator>
  <separator name="electronic" >
   <i type="string" name="PREC">n</i>
   <i name="ENMAX">    520.00000000</i>
   <i name="ENAUG">    490.69000000</i>
   <i name="EDIFF">      0.00001000</i>
   <i type="int" name="IALGO">    38</i>
   <i type="int" name="IWAVPR">    10</i>
   <i type="int" name="NBANDS">   128</i>
   <i type="int" name="NBANDSLOW">    -1</i>
   <i type="int" name="NBANDSHIGH">    -1</i>
   <i name="NELECT">    133.00000000</i>
   <i type="int" name="TURBO">     0</i>
   <i type="int" name="IRESTART">     0</i>
   <i type="int" name="NREBOOT">     0</i>
   <i type="int" name="NMIN">     0</i>
   <i name="EREF">      0.00000000</i>
   <separator name="electronic smearing" >
    <i type="int" name="ISMEAR">     1</i>
    <i name="SIGMA">      0.10000000</i>
    <i name="KSPACING">      0.50000000</i>
    <i type="logical" name="KGAMMA"> T  </i>
    <i type="logical" name="KBLOWUP"> T  </i>
   </separator>
   <separator name="electronic projectors" >
    <i type="logical" name="LREAL"> F  </i>
    <v name="ROPT">      0.00000000      0.00000000      0.00000000</v>
    <i type="int" name="LMAXPAW">  -100</i>
    <i type="int" name="LMAXMIX">     2</i>
    <i type="logical" name="NLSPLINE"> F  </i>
   </separator>
   <separator name="electronic startup" >
    <i type="int" name="ISTART">     0</i>
    <i type="int" name="ICHARG">     2</i>
    <i type="int" name="INIWAV">     1</i>
   </separator>
   <separator name="electronic spin" >
    <i type="int" name="ISPIN">     1</i>
    <i type="logical" name="LNONCOLLINEAR"> F  </i>
    <v name="MAGMOM">      1.00000000      1.00000000      1.00000000      1.00000000      1.00000000      1.00000000      1.00000000      1.00000000      1.00000000      1.00000000      1.00000000      1.00000000      1.00000000      1.00000000      1.00000000      1.00000000      1.00000000</v>
    <i name="NUPDOWN">     -1.00000000</i>
    <i type="logical" name="LSORBIT"> F  </i>
    <v name="SAXIS">      0.00000000      0.00000000      1.00000000</v>
    <i type="logical" name="LSPIRAL"> F  </i>
    <v name="QSPIRAL">      0.00000000      0.00000000      0.00000000</v>
    <i type="logical" name="LZEROZ"> F  </i>
   </separator>
   <separator name="electronic exchange-correlation" >
    <i type="logical" name="LASPH"> F  </i>
   </separator>
   <separator name="electronic convergence" >
    <i type="int" name="NELM">   500</i>
    <i type="int" name="NELMDL">    -5</i>
    <i type="int" name="NELMIN">     2</i>
    <i name="ENINI">    520.00000000</i>
    <separator name="electronic convergence detail" >
     <i type="logical" name="LDIAG"> T  </i>
     <i type="logical" name="LSUBROT"> F  </i>
     <i name="WEIMIN">      0.00000000</i>
     <i name="EBREAK">      0.00000002</i>
     <i name="DEPER">      0.30000000</i>
     <i type="int" name="NRMM">     4</i>
     <i name="TIME">      0.40000000</i>
    </separator>
   </separator>
   <separator name="electronic mixer" >
    <i name="AMIX">      0.40000000</i>
    <i name="BMIX">      1.00000000</i>
    <i name="AMIN">      0.10000000</i>
    <i name="AMIX_MAG">      1.60000000</i>
    <i name="BMIX_MAG">      1.00000000</i>
    <separator name="electronic mixer details" >
     <i type="int" name="IMIX">     4</i>
     <i type="logical" name="MIXFIRST"> F  </i>
     <i type="int" name="MAXMIX">   -45</i>
     <i name="WC">    100.00000000</i>
     <i type="int" name="INIMIX">     1</i>
     <i type="int" name="MIXPRE">     1</i>
     <i type="int" name="MREMOVE">     5</i>
    </separator>
   </separator>
   <separator name="electronic dipolcorrection" >
    <i type="logical" name="LDIPOL"> F  </i>
    <i type="logical" name="LMONO"> F  </i>
    <i type="int" name="IDIPOL">     0</i>
    <i name="EPSILON">      1.00000000</i>
    <v name="DIPOL">   -100.00000000   -100.00000000   -100.00000000</v>
    <i name="EFIELD">      0.00000000</i>
    <i type="logical" name="LVACPOTAV"> F  </i>
   </separator>
  </separator>
  <separator name="grids" >
   <i type="int" name="NGX">    36</i>
   <i type="int" name="NGY">    36</i>
   <i type="int" name="NGZ">    48</i>
   <i type="int" name="NGXF">    72</i>
   <i type="int" name="NGYF">    72</i>
   <i type="int" name="NGZF">    96</i>
   <i type="logical" name="ADDGRID"> F  </i>
  </separator>
  <separator name="ionic" >
   <i type="int" name="NSW">     0</i>
   <i type="int" name="IBRION">    -1</i>
   <i type="int" name="MDALGO">     0</i>
   <i type="int" name="ISIF">     3</i>
   <i name="PSTRESS">      0.00000000</i>
   <i name="EDIFFG">     -0.01000000</i>
   <i type="int" name="NFREE">     0</i>
   <i name="POTIM">      0.50000000</i>
   <i name="SMASS">     -3.00000000</i>
   <i name="SCALEE">      1.00000000</i>
  </separator>
  <separator name="ionic md" >
   <i name="TEBEG">      0.00010000</i>
   <i name="TEEND">      0.00010000</i>
   <i type="int" name="NBLOCK">     1</i>
   <i type="int" name="KBLOCK">     1</i>
   <i type="int" name="NPACO">   256</i>
   <i name="APACO">     10.00000000</i>
  </separator>
  <separator name="symmetry" >
   <i type="int" name="ISYM">     2</i>
   <i name="SYMPREC">      0.00001000</i>
  </separator>
  <separator name="dos" >
   <i type="int" name="LORBIT">     0</i>
   <v name="RWIGS">     -1.00000000     -1.00000000     -1.00000000</v>
   <i type="int" name="NEDOS">   301</i>
   <i name="EMIN">     10.00000000</i>
   <i name="EMAX">    -10.00000000</i>
   <i name="EFERMI">      0.00000000</i>
  </separator>
  <separator name="writing" >
   <i type="int" name="NWRITE">     2</i>
   <i type="logical" name="LWAVE"> T  </i>
   <i type="logical" name="LDOWNSAMPLE"> F  </i>
   <i type="logical" name="LCHARG"> T  </i>
   <i type="logical" name="LPARD"> F  </i>
   <i type="logical" name="LVTOT"> F  </i>
   <i type="logical" name="LVHAR"> F  </i>
   <i type="logical" name="LELF"> F  </i>
   <i type="logical" name="LOPTICS"> F  </i>
   <v name="STM">      0.00000000      0.00000000      0.00000000      0.00000000      0.00000000      0.00000000      0.00000000</v>
  </separator>
  <separator name="performance" >
   <i type="int" name="NPAR">    64</i>
   <i type="int" name="NSIM">     4</i>
   <i type="int" name="NBLK">    -1</i>
   <i type="logical" name="LPLANE"> T  </i>
   <i type="logical" name="LSCALAPACK"> T  </i>
   <i type="logical" name="LSCAAWARE"> F  </i>
   <i type="logical" name="LSCALU"> F  </i>
   <i type="logical" name="LASYNC"> F  </i>
   <i type="logical" name="LORBITALREAL"> F  </i>
  </separator>
  <separator name="miscellaneous" >
   <i type="int" name="IDIOT">     3</i>
   <i type="int" name="PHON_NSTRUCT">    -1</i>
   <i type="logical" name="LMUSIC"> F  </i>
   <v name="POMASS">     47.88000000     26.98100000     69.72300000</v>
   <v name="DARWINR">      0.00000000      0.00000000      0.00000000</v>
   <v name="DARWINV">      1.00000000      1.00000000      1.00000000</v>
   <i type="logical" name="LCORR"> T  </i>
  </separator>
  <i type="logical" name="GGA_COMPAT"> T  </i>
  <i type="logical" name="LBERRY"> F  </i>
  <i type="int" name="ICORELEVEL">     0</i>
  <i type="logical" name="LDAU"> F  </i>
  <i type="int" name="I_CONSTRAINED_M">     0</i>
  <separator name="electronic exchange-correlation" >
   <i type="string" name="GGA    ">PE</i>
   <i type="string" name="XC_C">1</i>
   <i type="int" name="VOSKOWN">     0</i>
   <i type="logical" name="LHFCALC"> F  </i>
   <i type="string" name="PRECFOCK"></i>
   <i type="logical" name="LSYMGRAD"> F  </i>
   <i type="logical" name="LHFONE"> F  </i>
   <i type="logical" name="LRHFCALC"> F  </i>
   <i type="logical" name="LTHOMAS"> F  </i>
   <i type="logical" name="LMODELHF"> F  </i>
   <i type="logical" name="LFOCKACE"> F  </i>
   <i name="ENCUT4O">     -1.00000000</i>
   <i type="int" name="EXXOEP">     0</i>
   <i type="int" name="FOURORBIT">     0</i>
   <i name="AEXX">      0.00000000</i>
   <i name="HFALPHA">      0.00000000</i>
   <i name="MCALPHA">      0.00000000</i>
   <i name="ALDAX">      1.00000000</i>
   <i name="AGGAX">      1.00000000</i>
   <i name="AMGGAX">      1.00000000</i>
   <i name="ALDAC">      1.00000000</i>
   <i name="AGGAC">      1.00000000</i>
   <i name="AMGGAC">      1.00000000</i>
   <i type="int" name="NKREDX">     1</i>
   <i type="int" name="NKREDY">     1</i>
   <i type="int" name="NKREDZ">     1</i>
   <i type="logical" name="SHIFTRED"> F  </i>
   <i type="logical" name="ODDONLY"> F  </i>
   <i type="logical" name="EVENONLY"> F  </i>
   <i type="int" name="LMAXFOCK">     0</i>
   <i type="int" name="NMAXFOCKAE">     0</i>
   <i type="logical" name="LFOCKAEDFT"> F  </i>
   <i name="HFSCREEN">      0.00000000</i>
   <i name="HFSCREENC">      0.00000000</i>
   <i type="int" name="NBANDSGWLOW">     0</i>
  </separator>
  <separator name="vdW DFT" >
   <i type="logical" name="LUSE_VDW"> F  </i>
   <i type="int" name="IVDW_NL">    -1</i>
   <i type="logical" name="LSPIN_VDW"> F  </i>
   <i name="ZAB_VDW">     -0.84910000</i>
   <i name="GAMMA_VDW">      1.39626340</i>
   <i name="ALPHA_VDW">      0.00000000</i>
   <i name="PARAM1">      0.12340000</i>
   <i name="PARAM2">      1.00000000</i>
   <i name="BPARAM">      6.30000000</i>
   <i name="CPARAM">      0.00930000</i>
  </separator>
  <separator name="model GW" >
   <i type="int" name="MODEL_GW">     0</i>
   <i name="MODEL_EPS0">     10.05451272</i>
   <i name="MODEL_ALPHA">      1.00000000</i>
  </separator>
  <separator name="linear response parameters" >
   <i type="logical" name="LEPSILON"> F  </i>
   <i type="logical" name="LRPA"> F  </i>
   <i type="logical" name="LNABLA"> F  </i>
   <i type="logical" name="LVEL"> F  </i>
   <i name="CSHIFT">      0.10000000</i>
   <i name="OMEGAMAX">     -1.00000000</i>
   <i name="DEG_THRESHOLD">      0.00200000</i>
   <i name="RTIME">     -0.10000000</i>
   <i name="WPLASMAI">      0.00000000</i>
   <v name="DFIELD">      0.00000000      0.00000000      0.00000000</v>
   <v name="WPLASMA">      0.00000000      0.00000000      0.00000000      0.00000000      0.00000000      0.00000000      0.00000000      0.00000000      0.00000000</v>
  </separator>
  <separator name="orbital magnetization" >
   <i type="logical" name="NUCIND"> F  </i>
   <v name="MAGPOS">      0.00000000      0.00000000      0.00000000</v>
   <i type="logical" name="LNICSALL"> T  </i>
   <i type="logical" name="ORBITALMAG"> F  </i>
   <i type="logical" name="LMAGBLOCH"> F  </i>
   <i type="logical" name="LCHIMAG"> F  </i>
   <i type="logical" name="LGAUGE"> T  </i>
   <i type="int" name="MAGATOM">     0</i>
   <v name="MAGDIPOL">      0.00000000      0.00000000      0.00000000</v>
   <v name="AVECCONST">      0.00000000      0.00000000      0.00000000</v>
  </separator>
  <separator name="response functions" >
   <i type="logical" name="LALL_IN_ONE"> F  </i>
   <i type="int" name="IALL_IN_ONE">    -1</i>
   <i type="int" name="NBANDS_WAVE">    -1</i>
   <i type="logical" name="LFINITE_TEMPERATURE"> F  </i>
   <i type="logical" name="LADDER"> F  </i>
   <i type="logical" name="LRPAFORCE"> F  </i>
   <i type="logical" name="LFXC"> F  </i>
   <i type="logical" name="LHARTREE"> T  </i>
   <i type="int" name="IBSE">     2</i>
   <v type="int" name="KPOINT">    -1     0     0     0</v>
   <i type="logical" name="LTCTC"> F  </i>
   <i type="logical" name="LTCTE"> F  </i>
   <i type="logical" name="LTETE"> F  </i>
   <i type="logical" name="LTRIPLET"> F  </i>
   <i type="logical" name="LFXCEPS"> F  </i>
   <i type="logical" name="LFXHEG"> F  </i>
   <i type="int" name="NATURALO">     2</i>
   <i type="logical" name="LHOLEGF"> F  </i>
   <i type="logical" name="L2ORDER"> F  </i>
   <i type="logical" name="LDMP1"> F  </i>
   <i type="logical" name="LMP2LT"> F  </i>
   <i type="logical" name="LSMP2LT"> F  </i>
   <i type="logical" name="LGWLF"> F  </i>
   <i name="ENCUTGW">     -1.60000002</i>
   <i name="ENCUTGWSOFT">     -1.60000002</i>
   <i name="ENCUTLF">     -1.00000000</i>
   <i type="logical" name="ESF_SPLINES"> F  </i>
   <i name="ESF_CONV">      0.01000000</i>
   <i type="int" name="ESF_NINTER">    15</i>
   <i type="int" name="LMAXMP2">    -1</i>
   <i name="SCISSOR">      0.00000000</i>
   <i type="int" name="NOMEGA">     0</i>
   <i type="int" name="NOMEGAR">     0</i>
   <i type="int" name="NBANDSGW">    -1</i>
   <i type="int" name="NBANDSO">    -1</i>
   <i type="int" name="NBANDSV">    -1</i>
   <i type="int" name="NELMGW">     1</i>
   <i type="int" name="NELMHF">     1</i>
   <i type="int" name="DIM">     3</i>
   <i type="int" name="IESPILON">     4</i>
   <i type="int" name="ANTIRES">     0</i>
   <i name="OMEGAMAX">    -30.00000000</i>
   <i name="OMEGAMIN">    -30.00000000</i>
   <i name="OMEGATL">   -200.00000000</i>
   <i type="int" name="OMEGAGRID">     0</i>
   <i name="CSHIFT">     -0.10000000</i>
   <i type="logical" name="LSELFENERGY"> F  </i>
   <i type="logical" name="LSPECTRAL"> F  </i>
   <i type="logical" name="LSPECTRALGW"> F  </i>
   <i type="logical" name="LSINGLES"> F  </i>
   <i type="logical" name="LFERMIGW"> F  </i>
   <i type="logical" name="ODDONLYGW"> F  </i>
   <i type="logical" name="EVENONLYGW"> F  </i>
   <i type="int" name="NKREDLFX">     1</i>
   <i type="int" name="NKREDLFY">     1</i>
   <i type="int" name="NKREDLFZ">     1</i>
   <i type="int" name="MAXMEM">  2800</i>
   <i type="int" name="TELESCOPE">     0</i>
   <i type="int" name="NTAUPAR">    -1</i>
   <i type="int" name="NOMEGAPAR">    -1</i>
   <i name="DAMP_NEWTON">      0.80000001</i>
   <i name="LAMBDA">      1.00000000</i>
  </separator>
  <separator name="External order field" >
   <i name="OFIELD_KAPPA">      0.00000000</i>
   <v name="OFIELD_K">      0.00000000      0.00000000      0.00000000</v>
   <i name="OFIELD_Q6_NEAR">      0.00000000</i>
   <i name="OFIELD_Q6_FAR">      0.00000000</i>
   <i name="OFIELD_A">      0.00000000</i>
  </separator>
  <separator name="optional k-points parameters" >
   <i type="int" name="KPOINTS_OPT_MODE">     1</i>
   <i type="logical" name="LKPOINTS_OPT"> F  </i>
  </separator>
 </parameters>
 <atominfo>
  <atoms>      17 </atoms>
  <types>       3 </types>
  <array name="atoms" >
   <dimension dim="1">ion</dimension>
   <field type="string">element</field>
   <field type="int">atomtype</field>
   <set>
    <rc><c>Ti</c><c>   1</c></rc>
    <rc><c>Ti</c><c>   1</c></rc>
    <rc><c>Ti</c><c>   1</c></rc>
    <rc><c>Ti</c><c>   1</c></rc>
    <rc><c>Ti</c><c>   1</c></rc>
    <rc><c>Ti</c><c>   1</c></rc>
    <rc><c>Ti</c><c>   1</c></rc>
    <rc><c>Ti</c><c>   1</c></rc>
    <rc><c>Al</c><c>   2</c></rc>
    <rc><c>Al</c><c>   2</c></rc>
    <rc><c>Al</c><c>   2</c></rc>
    <rc><c>Al</c><c>   2</c></rc>
    <rc><c>Al</c><c>   2</c></rc>
    <rc><c>Al</c><c>   2</c></rc>
    <rc><c>Al</c><c>   2</c></rc>
    <rc><c>Al</c><c>   2</c></rc>
    <rc><c>Ga</c><c>   3</c></rc>
   </set>
  </array>
  <array name="atomtypes" >
   <dimension dim="1">type</dimension>
   <field type="int">atomspertype</field>
   <field type="string">element</field>
   <field>mass</field>
   <field>valence</field>
   <field type="string">pseudopotential</field>
   <set>
    <rc><c>   8</c><c>Ti</c><c>     47.88000000</c><c>     12.00000000</c><c>  PAW_PBE Ti_sv 26Sep2005               </c></rc>
    <rc><c>   8</c><c>Al</c><c>     26.98100000</c><c>      3.00000000</c><c>  PAW_PBE Al 04Jan2001                  </c></rc>
    <rc><c>   1</c><c>Ga</c><c>     69.72300000</c><c>     13.00000000</c><c>  PAW_PBE Ga_d 06Jul2010                </c></rc>
   </set>
  </array>
 </atominfo>
 <structure name="initialpos" >
  <crystal>
   <varray name="basis" >
    <v>       5.85845550       0.00000000       0.00000000 </v>
    <v>       0.00000000       5.85845550       0.00000000 </v>
    <v>       0.00000000       0.00000000       8.30027397 </v>
   </varray>
   <i name="volume">    284.87786034 </i>
   <varray name="rec_basis" >
    <v>       0.17069345       0.00000000       0.00000000 </v>
    <v>       0.00000000       0.17069345       0.00000000 </v>
    <v>       0.00000000       0.00000000       0.12047795 </v>
   </varray>
  </crystal>
  <varray name="positions" >
   <v>       0.00000000       0.00000000       0.01867368 </v>
   <v>       0.00000000       0.00000000       0.48132632 </v>
   <v>       0.00000000       0.50000000       0.99550713 </v>
   <v>       0.00000000       0.50000000       0.50449287 </v>
   <v>       0.50000000       0.00000000       0.99550713 </v>
   <v>       0.50000000       0.00000000       0.50449287 </v>
   <v>       0.50000000       0.50000000       0.04638282 </v>
   <v>       0.50000000       0.50000000       0.45361718 </v>
   <v>       0.24268531       0.24268531       0.25000000 </v>
   <v>       0.21391683       0.21391683       0.75000000 </v>
   <v>       0.24268531       0.75731469       0.25000000 </v>
   <v>       0.21391683       0.78608317       0.75000000 </v>
   <v>       0.75731469       0.24268531       0.25000000 </v>
   <v>       0.78608317       0.21391683       0.75000000 </v>
   <v>       0.75731469       0.75731469       0.25000000 </v>
   <v>       0.78608317       0.78608317       0.75000000 </v>
   <v>       0.50000000       0.50000000       0.75000000 </v>
  </varray>
 </structure>
 <calculation>
  <scstep>
   <time name="dav">    7.95    7.95</time>
   <time name="total">    7.96    7.96</time>
   <energy>
    <i name="alphaZ">    353.75656847 </i>
    <i name="ewald">  -9823.54474122 </i>
    <i name="hartreedc">  -4811.22005091 </i>
    <i name="XCdc">    330.68494136 </i>
    <i name="pawpsdc">  12249.27850793 </i>
    <i name="pawaedc"> -12170.51614461 </i>
    <i name="eentropy">     -0.00182265 </i>
    <i name="bandstr">   -433.78082532 </i>
    <i name="atom">  15281.81476201 </i>
    <i name="e_fr_energy">    976.47119506 </i>
    <i name="e_wo_entrp">    976.47301771 </i>
    <i name="e_0_energy">    976.47180261 </i>
   </energy>
  </scstep>
  <scstep>
   <time name="dav">    7.88    7.88</time>
   <time name="total">    7.88    7.89</time>
   <energy>
    <i name="e_fr_energy">    -27.99357801 </i>
    <i name="e_wo_entrp">    -27.99150981 </i>
    <i name="e_0_energy">    -27.99288861 </i>
   </energy>
  </scstep>
  <scstep>
   <time name="dav">   23.74   23.74</time>
   <time name="total">   23.74   23.74</time>
   <energy>
    <i name="e_fr_energy">   -111.09418601 </i>
    <i name="e_wo_entrp">   -111.09704820 </i>
    <i name="e_0_energy">   -111.09514008 </i>
   </energy>
  </scstep>
  <scstep>
   <time name="dav">    7.92    7.92</time>
   <time name="total">    7.92    7.92</time>
   <energy>
    <i name="e_fr_energy">   -113.62995432 </i>
    <i name="e_wo_entrp">   -113.63297880 </i>
    <i name="e_0_energy">   -113.63096248 </i>
   </energy>
  </scstep>
  <scstep>
   <time name="dav">   17.95   17.96</time>
   <time name="total">   18.04   18.05</time>
   <energy>
    <i name="e_fr_energy">   -113.70766206 </i>
    <i name="e_wo_entrp">   -113.71068802 </i>
    <i name="e_0_energy">   -113.70867072 </i>
   </energy>
  </scstep>
  <scstep>
   <time name="dav">   13.05   13.05</time>
   <time name="total">   13.16   13.16</time>
   <energy>
    <i name="e_fr_energy">   -102.37784324 </i>
    <i name="e_wo_entrp">   -102.37508888 </i>
    <i name="e_0_energy">   -102.37692512 </i>
   </energy>
  </scstep>
  <scstep>
   <time name="dav">   11.63   11.63</time>
   <time name="total">   11.73   11.73</time>
   <energy>
    <i name="e_fr_energy">   -102.63628686 </i>
    <i name="e_wo_entrp">   -102.62419862 </i>
    <i name="e_0_energy">   -102.63225745 </i>
   </energy>
  </scstep>
  <scstep>
   <time name="dav">   12.69   12.69</time>
   <time name="total">   12.79   12.79</time>
   <energy>
    <i name="e_fr_energy">    -98.99227111 </i>
    <i name="e_wo_entrp">    -98.99069269 </i>
    <i name="e_0_energy">    -98.99174497 </i>
   </energy>
  </scstep>
  <scstep>
   <time name="dav">   14.66   14.67</time>
   <time name="total">   14.76   14.77</time>
   <energy>
    <i name="e_fr_energy">    -98.94605862 </i>
    <i name="e_wo_entrp">    -98.94639479 </i>
    <i name="e_0_energy">    -98.94617068 </i>
   </energy>
  </scstep>
  <scstep>
   <time name="dav">   10.55   10.55</time>
   <time name="total">   10.65   10.65</time>
   <energy>
    <i name="e_fr_energy">    -98.68290831 </i>
    <i name="e_wo_entrp">    -98.68191479 </i>
    <i name="e_0_energy">    -98.68257714 </i>
   </energy>
  </scstep>
  <scstep>
   <time name="dav">   13.58   13.58</time>
   <time name="total">   13.69   13.69</time>
   <energy>
    <i name="e_fr_energy">    -98.60150957 </i>
    <i name="e_wo_entrp">    -98.59764028 </i>
    <i name="e_0_energy">    -98.60021981 </i>
   </energy>
  </scstep>
  <scstep>
   <time name="dav">   12.24   12.24</time>
   <time name="total">   12.34   12.34</time>
   <energy>
    <i name="e_fr_energy">    -98.60080253 </i>
    <i name="e_wo_entrp">    -98.59722323 </i>
    <i name="e_0_energy">    -98.59960943 </i>
   </energy>
  </scstep>
  <scstep>
   <time name="dav">   13.38   13.38</time>
   <time name="total">   13.48   13.48</time>
   <energy>
    <i name="e_fr_energy">    -98.60068835 </i>
    <i name="e_wo_entrp">    -98.59692572 </i>
    <i name="e_0_energy">    -98.59943414 </i>
   </energy>
  </scstep>
  <scstep>
   <time name="dav">   14.49   14.49</time>
   <time name="total">   14.59   14.59</time>
   <energy>
    <i name="e_fr_energy">    -98.60064238 </i>
    <i name="e_wo_entrp">    -98.59690744 </i>
    <i name="e_0_energy">    -98.59939740 </i>
   </energy>
  </scstep>
  <scstep>
   <time name="dav">   13.12   13.12</time>
   <time name="total">   13.13   13.13</time>
   <energy>
    <i name="alphaZ">    353.75656847 </i>
    <i name="ewald">  -9823.54474122 </i>
    <i name="hartreedc">  -4574.45148316 </i>
    <i name="XCdc">    321.98790533 </i>
    <i name="pawpsdc">  14843.14754158 </i>
    <i name="pawaedc"> -14743.06100337 </i>
    <i name="eentropy">     -0.00373258 </i>
    <i name="bandstr">  -1758.24645359 </i>
    <i name="atom">  15281.81476201 </i>
    <i name="e_fr_energy">    -98.60063652 </i>
    <i name="e_wo_entrp">    -98.59690394 </i>
    <i name="e_0_energy">    -98.59939233 </i>
   </energy>
  </scstep>
  <structure>
   <crystal>
    <varray name="basis" >
     <v>       5.85845550       0.00000000       0.00000000 </v>
     <v>       0.00000000       5.85845550       0.00000000 </v>
     <v>       0.00000000       0.00000000       8.30027397 </v>
    </varray>
    <i name="volume">    284.87786034 </i>
    <varray name="rec_basis" >
     <v>       0.17069345       0.00000000       0.00000000 </v>
     <v>       0.00000000       0.17069345       0.00000000 </v>
     <v>       0.00000000       0.00000000       0.12047795 </v>
    </varray>
   </crystal>
   <varray name="positions" >
    <v>       0.00000000       0.00000000       0.01867368 </v>
    <v>       0.00000000       0.00000000       0.48132632 </v>
    <v>       0.00000000       0.50000000       0.99550713 </v>
    <v>       0.00000000       0.50000000       0.50449287 </v>
    <v>       0.50000000       0.00000000       0.99550713 </v>
    <v>       0.50000000       0.00000000       0.50449287 </v>
    <v>       0.50000000       0.50000000       0.04638282 </v>
    <v>       0.50000000       0.50000000       0.45361718 </v>
    <v>       0.24268531       0.24268531       0.25000000 </v>
    <v>       0.21391683       0.21391683       0.75000000 </v>
    <v>       0.24268531       0.75731469       0.25000000 </v>
    <v>       0.21391683       0.78608317       0.75000000 </v>
    <v>       0.75731469       0.24268531       0.25000000 </v>
    <v>       0.78608317       0.21391683       0.75000000 </v>
    <v>       0.75731469       0.75731469       0.25000000 </v>
    <v>       0.78608317       0.78608317       0.75000000 </v>
    <v>       0.50000000       0.50000000       0.75000000 </v>
   </varray>
  </structure>
  <varray name="forces" >
   <v>       0.00000000      -0.00000000       0.01047775 </v>
   <v>       0.00000000       0.00000000      -0.01047775 </v>
   <v>       0.00000000      -0.00000000      -0.00482919 </v>
   <v>       0.00000000       0.00000000       0.00482919 </v>
   <v>       0.00000000       0.00000000      -0.00482919 </v>
   <v>       0.00000000      -0.00000000       0.00482919 </v>
   <v>       0.00000000      -0.00000000      -0.00503060 </v>
   <v>       0.00000000      -0.00000000       0.00503060 </v>
   <v>      -0.00281753      -0.00281753       0.00000000 </v>
   <v>      -0.01071625      -0.01071625       0.00000000 </v>
   <v>      -0.00281753       0.00281753      -0.00000000 </v>
   <v>      -0.01071625       0.01071625      -0.00000000 </v>
   <v>       0.00281753      -0.00281753       0.00000000 </v>
   <v>       0.01071625      -0.01071625      -0.00000000 </v>
   <v>       0.00281753       0.00281753       0.00000000 </v>
   <v>       0.01071625       0.01071625       0.00000000 </v>
   <v>       0.00000000       0.00000000       0.00000000 </v>
  </varray>
  <varray name="stress" >
   <v>       0.81404020       0.00000000       0.00000000 </v>
   <v>       0.00000000       0.81404020       0.00000000 </v>
   <v>       0.00000000       0.00000000       0.46583228 </v>
  </varray>
  <energy>
   <i name="e_fr_energy">    -98.60063652 </i>
   <i name="e_wo_entrp">    -98.59690394 </i>
   <i name="e_0_energy">    -98.59939233 </i>
  </energy>
  <time name="totalsc">  205.29  205.31</time>
  <eigenvalues>
   <array>
    <dimension dim="1">band</dimension>
    <dimension dim="2">kpoint</dimension>
    <dimension dim="3">spin</dimension>
    <field>eigene</field>
    <field>occ</field>
    <set>
     <set comment="spin 1">
      <set comment="kpoint 1">
       <r>  -48.9407    1.0000 </r>
       <r>  -48.9403    1.0000 </r>
       <r>  -48.9364    1.0000 </r>
       <r>  -48.9361    1.0000 </r>
       <r>  -48.6469    1.0000 </r>
       <r>  -48.6435    1.0000 </r>
       <r>  -48.6007    1.0000 </r>
       <r>  -48.6001    1.0000 </r>
       <r>  -25.3380    1.0000 </r>
       <r>  -25.3322    1.0000 </r>
       <r>  -25.3273    1.0000 </r>
       <r>  -25.3230    1.0000 </r>
       <r>  -25.2264    1.0000 </r>
       <r>  -25.2264    1.0000 </r>
       <r>  -25.2241    1.0000 </r>
       <r>  -25.2241    1.0000 </r>
       <r>  -25.1704    1.0000 </r>
       <r>  -25.1704    1.0000 </r>
       <r>  -25.1691    1.0000 </r>
       <r>  -25.1691    1.0000 </r>
       <r>  -25.0426    1.0000 </r>
       <r>  -24.9934    1.0000 </r>
       <r>  -24.9887    1.0000 </r>
       <r>  -24.9737    1.0000 </r>
       <r>  -24.8317    1.0000 </r>
       <r>  -24.8317    1.0000 </r>
       <r>  -24.8278    1.0000 </r>
       <r>  -24.8278    1.0000 </r>
       <r>  -24.7551    1.0000 </r>
       <r>  -24.7551    1.0000 </r>
       <r>  -24.7540    1.0000 </r>
       <r>  -24.7540    1.0000 </r>
       <r>   -7.4307    1.0000 </r>
       <r>   -7.3300    1.0000 </r>
       <r>   -7.2909    1.0000 </r>
       <r>   -7.2403    1.0000 </r>
       <r>   -7.2403    1.0000 </r>
       <r>   -1.8270    1.0000 </r>
       <r>    0.1091    1.0000 </r>
       <r>    1.4848    1.0000 </r>
       <r>    2.3782    1.0000 </r>
       <r>    2.3782    1.0000 </r>
       <r>    2.6591    1.0000 </r>
       <r>    3.1986    1.0000 </r>
       <r>    3.1986    1.0000 </r>
       <r>    3.5336    1.0000 </r>
       <r>    4.4682    1.0000 </r>
       <r>    4.8622    1.0000 </r>
       <r>    4.9803    1.0000 </r>
       <r>    5.2650    1.0000 </r>
       <r>    5.2650    1.0000 </r>
       <r>    5.7256    1.0000 </r>
       <r>    6.0761    1.0000 </r>
       <r>    6.1910    1.0000 </r>
       <r>    6.3777    1.0000 </r>
       <r>    6.3777    1.0000 </r>
       <r>    6.6732    1.0000 </r>
       <r>    6.6806    1.0000 </r>
       <r>    6.6806    1.0000 </r>
       <r>    6.7346    1.0000 </r>
       <r>    6.7346    1.0000 </r>
       <r>    6.7967    1.0000 </r>
       <r>    6.8734    1.0000 </r>
       <r>    7.2841    1.0000 </r>
       <r>    7.4699    1.0000 </r>
       <r>    7.7029    1.0000 </r>
       <r>    7.8832    1.0342 </r>
       <r>    7.9231    1.0152 </r>
       <r>    7.9231    1.0152 </r>
       <r>    8.3882   -0.0000 </r>
       <r>    8.5126   -0.0000 </r>
       <r>    8.8080   -0.0000 </r>
       <r>    9.1702   -0.0000 </r>
       <r>    9.2193   -0.0000 </r>
       <r>    9.2193   -0.0000 </r>
       <r>    9.4103   -0.0000 </r>
       <r>    9.4736   -0.0000 </r>
       <r>    9.5314   -0.0000 </r>
       <r>    9.5458   -0.0000 </r>
       <r>    9.5554   -0.0000 </r>
       <r>    9.5834   -0.0000 </r>
       <r>    9.5834   -0.0000 </r>
       <r>    9.7205   -0.0000 </r>
       <r>    9.7205   -0.0000 </r>
       <r>    9.9020   -0.0000 </r>
       <r>   10.0382    0.0000 </r>
       <r>   10.0382    0.0000 </r>
       <r>   10.6312    0.0000 </r>
       <r>   10.7123    0.0000 </r>
       <r>   10.7123    0.0000 </r>
       <r>   10.8996    0.0000 </r>
       <r>   11.3718    0.0000 </r>
       <r>   11.3979    0.0000 </r>
       <r>   11.4673    0.0000 </r>
       <r>   11.6192    0.0000 </r>
       <r>   11.6192    0.0000 </r>
       <r>   11.7342    0.0000 </r>
       <r>   12.0951    0.0000 </r>
       <r>   12.0951    0.0000 </r>
       <r>   12.1146    0.0000 </r>
       <r>   12.3140    0.0000 </r>
       <r>   12.3720    0.0000 </r>
       <r>   12.8573    0.0000 </r>
       <r>   13.1636    0.0000 </r>
       <r>   13.3672    0.0000 </r>
       <r>   13.3672    0.0000 </r>
       <r>   13.4156    0.0000 </r>
       <r>   13.4673    0.0000 </r>
       <r>   13.6252    0.0000 </r>
       <r>   14.8737    0.0000 </r>
       <r>   14.9319    0.0000 </r>
       <r>   14.9319    0.0000 </r>
       <r>   14.9570    0.0000 </r>
       <r>   14.9570    0.0000 </r>
       <r>   15.5554    0.0000 </r>
       <r>   16.4236    0.0000 </r>
       <r>   16.4343    0.0000 </r>
       <r>   16.4446    0.0000 </r>
       <r>   16.9218    0.0000 </r>
       <r>   16.9218    0.0000 </r>
       <r>   17.4830    0.0000 </r>
       <r>   17.8319    0.0000 </r>
       <r>   17.9850    0.0000 </r>
       <r>   17.9850    0.0000 </r>
       <r>   18.4740    0.0000 </r>
       <r>   18.5706    0.0000 </r>
       <r>   18.5706    0.0000 </r>
       <r>   18.8852    0.0000 </r>
      </set>
      <set comment="kpoint 2">
       <r>  -48.9405    1.0000 </r>
       <r>  -48.9401    1.0000 </r>
       <r>  -48.9364    1.0000 </r>
       <r>  -48.9361    1.0000 </r>
       <r>  -48.6470    1.0000 </r>
       <r>  -48.6436    1.0000 </r>
       <r>  -48.6009    1.0000 </r>
       <r>  -48.6002    1.0000 </r>
       <r>  -25.3378    1.0000 </r>
       <r>  -25.3324    1.0000 </r>
       <r>  -25.3272    1.0000 </r>
       <r>  -25.3232    1.0000 </r>
       <r>  -25.2258    1.0000 </r>
       <r>  -25.2235    1.0000 </r>
       <r>  -25.2198    1.0000 </r>
       <r>  -25.2176    1.0000 </r>
       <r>  -25.1710    1.0000 </r>
       <r>  -25.1697    1.0000 </r>
       <r>  -25.1639    1.0000 </r>
       <r>  -25.1626    1.0000 </r>
       <r>  -25.0425    1.0000 </r>
       <r>  -24.9933    1.0000 </r>
       <r>  -24.9888    1.0000 </r>
       <r>  -24.9737    1.0000 </r>
       <r>  -24.8381    1.0000 </r>
       <r>  -24.8341    1.0000 </r>
       <r>  -24.8316    1.0000 </r>
       <r>  -24.8277    1.0000 </r>
       <r>  -24.7625    1.0000 </r>
       <r>  -24.7613    1.0000 </r>
       <r>  -24.7552    1.0000 </r>
       <r>  -24.7542    1.0000 </r>
       <r>   -7.4308    1.0000 </r>
       <r>   -7.3299    1.0000 </r>
       <r>   -7.2908    1.0000 </r>
       <r>   -7.2404    1.0000 </r>
       <r>   -7.2403    1.0000 </r>
       <r>   -1.7795    1.0000 </r>
       <r>    0.1461    1.0000 </r>
       <r>    1.2171    1.0000 </r>
       <r>    2.4249    1.0000 </r>
       <r>    2.5145    1.0000 </r>
       <r>    2.7202    1.0000 </r>
       <r>    2.8075    1.0000 </r>
       <r>    3.2369    1.0000 </r>
       <r>    3.9110    1.0000 </r>
       <r>    4.6565    1.0000 </r>
       <r>    4.7135    1.0000 </r>
       <r>    5.1108    1.0000 </r>
       <r>    5.1445    1.0000 </r>
       <r>    5.1655    1.0000 </r>
       <r>    5.7492    1.0000 </r>
       <r>    5.7881    1.0000 </r>
       <r>    6.1095    1.0000 </r>
       <r>    6.3507    1.0000 </r>
       <r>    6.3910    1.0000 </r>
       <r>    6.4180    1.0000 </r>
       <r>    6.5177    1.0000 </r>
       <r>    6.7147    1.0000 </r>
       <r>    6.7547    1.0000 </r>
       <r>    6.7743    1.0000 </r>
       <r>    7.1740    1.0000 </r>
       <r>    7.2995    1.0000 </r>
       <r>    7.4196    1.0000 </r>
       <r>    7.4819    1.0000 </r>
       <r>    7.6961    1.0000 </r>
       <r>    7.8677    1.0287 </r>
       <r>    7.8956    1.0353 </r>
       <r>    7.9742    0.8178 </r>
       <r>    8.5174   -0.0000 </r>
       <r>    8.5925   -0.0000 </r>
       <r>    8.7952   -0.0000 </r>
       <r>    9.0766   -0.0000 </r>
       <r>    9.1674   -0.0000 </r>
       <r>    9.1981   -0.0000 </r>
       <r>    9.3096   -0.0000 </r>
       <r>    9.4902   -0.0000 </r>
       <r>    9.5106   -0.0000 </r>
       <r>    9.5242   -0.0000 </r>
       <r>    9.5818   -0.0000 </r>
       <r>    9.5848   -0.0000 </r>
       <r>    9.6394   -0.0000 </r>
       <r>    9.6655   -0.0000 </r>
       <r>    9.7300   -0.0000 </r>
       <r>    9.8922   -0.0000 </r>
       <r>   10.0311    0.0000 </r>
       <r>   10.0533    0.0000 </r>
       <r>   10.6028    0.0000 </r>
       <r>   10.6679    0.0000 </r>
       <r>   10.7595    0.0000 </r>
       <r>   10.8666    0.0000 </r>
       <r>   10.9502    0.0000 </r>
       <r>   11.3563    0.0000 </r>
       <r>   11.4186    0.0000 </r>
       <r>   11.5145    0.0000 </r>
       <r>   11.7043    0.0000 </r>
       <r>   11.9807    0.0000 </r>
       <r>   12.0483    0.0000 </r>
       <r>   12.1940    0.0000 </r>
       <r>   12.2892    0.0000 </r>
       <r>   12.3552    0.0000 </r>
       <r>   12.4156    0.0000 </r>
       <r>   12.8649    0.0000 </r>
       <r>   13.1446    0.0000 </r>
       <r>   13.3265    0.0000 </r>
       <r>   13.4419    0.0000 </r>
       <r>   13.4552    0.0000 </r>
       <r>   13.5550    0.0000 </r>
       <r>   13.6930    0.0000 </r>
       <r>   14.0406    0.0000 </r>
       <r>   14.9147    0.0000 </r>
       <r>   15.0055    0.0000 </r>
       <r>   15.0278    0.0000 </r>
       <r>   15.2382    0.0000 </r>
       <r>   15.7129    0.0000 </r>
       <r>   16.1639    0.0000 </r>
       <r>   16.4909    0.0000 </r>
       <r>   16.6962    0.0000 </r>
       <r>   16.8221    0.0000 </r>
       <r>   17.1515    0.0000 </r>
       <r>   17.3952    0.0000 </r>
       <r>   17.7782    0.0000 </r>
       <r>   17.8792    0.0000 </r>
       <r>   17.8952    0.0000 </r>
       <r>   18.0582    0.0000 </r>
       <r>   18.1340    0.0000 </r>
       <r>   18.3237    0.0000 </r>
       <r>   18.4366    0.0000 </r>
      </set>
      <set comment="kpoint 3">
       <r>  -48.9398    1.0000 </r>
       <r>  -48.9395    1.0000 </r>
       <r>  -48.9365    1.0000 </r>
       <r>  -48.9362    1.0000 </r>
       <r>  -48.6472    1.0000 </r>
       <r>  -48.6439    1.0000 </r>
       <r>  -48.6012    1.0000 </r>
       <r>  -48.6005    1.0000 </r>
       <r>  -25.3373    1.0000 </r>
       <r>  -25.3329    1.0000 </r>
       <r>  -25.3269    1.0000 </r>
       <r>  -25.3236    1.0000 </r>
       <r>  -25.2240    1.0000 </r>
       <r>  -25.2218    1.0000 </r>
       <r>  -25.2022    1.0000 </r>
       <r>  -25.2002    1.0000 </r>
       <r>  -25.1725    1.0000 </r>
       <r>  -25.1712    1.0000 </r>
       <r>  -25.1464    1.0000 </r>
       <r>  -25.1451    1.0000 </r>
       <r>  -25.0419    1.0000 </r>
       <r>  -24.9929    1.0000 </r>
       <r>  -24.9889    1.0000 </r>
       <r>  -24.9739    1.0000 </r>
       <r>  -24.8553    1.0000 </r>
       <r>  -24.8510    1.0000 </r>
       <r>  -24.8314    1.0000 </r>
       <r>  -24.8275    1.0000 </r>
       <r>  -24.7825    1.0000 </r>
       <r>  -24.7813    1.0000 </r>
       <r>  -24.7557    1.0000 </r>
       <r>  -24.7546    1.0000 </r>
       <r>   -7.4310    1.0000 </r>
       <r>   -7.3297    1.0000 </r>
       <r>   -7.2905    1.0000 </r>
       <r>   -7.2405    1.0000 </r>
       <r>   -7.2403    1.0000 </r>
       <r>   -1.6405    1.0000 </r>
       <r>    0.2242    1.0000 </r>
       <r>    0.7540    1.0000 </r>
       <r>    2.2654    1.0000 </r>
       <r>    2.5636    1.0000 </r>
       <r>    2.7496    1.0000 </r>
       <r>    2.9012    1.0000 </r>
       <r>    3.3507    1.0000 </r>
       <r>    4.3622    1.0000 </r>
       <r>    4.4028    1.0000 </r>
       <r>    4.7879    1.0000 </r>
       <r>    4.8430    1.0000 </r>
       <r>    5.0642    1.0000 </r>
       <r>    5.2251    1.0000 </r>
       <r>    5.6092    1.0000 </r>
       <r>    5.7679    1.0000 </r>
       <r>    5.8178    1.0000 </r>
       <r>    6.3817    1.0000 </r>
       <r>    6.4035    1.0000 </r>
       <r>    6.4338    1.0000 </r>
       <r>    6.6062    1.0000 </r>
       <r>    6.6858    1.0000 </r>
       <r>    6.8910    1.0000 </r>
       <r>    7.0206    1.0000 </r>
       <r>    7.3317    1.0000 </r>
       <r>    7.4978    1.0000 </r>
       <r>    7.5443    1.0000 </r>
       <r>    7.6046    1.0000 </r>
       <r>    7.7227    1.0001 </r>
       <r>    8.0042    0.5944 </r>
       <r>    8.0245    0.4231 </r>
       <r>    8.0899    0.0253 </r>
       <r>    8.5335   -0.0000 </r>
       <r>    8.7413   -0.0000 </r>
       <r>    8.7843   -0.0000 </r>
       <r>    8.8601   -0.0000 </r>
       <r>    9.1261   -0.0000 </r>
       <r>    9.1542   -0.0000 </r>
       <r>    9.3009   -0.0000 </r>
       <r>    9.3873   -0.0000 </r>
       <r>    9.4646   -0.0000 </r>
       <r>    9.5375   -0.0000 </r>
       <r>    9.6133   -0.0000 </r>
       <r>    9.6142   -0.0000 </r>
       <r>    9.6878   -0.0000 </r>
       <r>    9.6954   -0.0000 </r>
       <r>    9.7016   -0.0000 </r>
       <r>    9.7663   -0.0000 </r>
       <r>   10.0131   -0.0000 </r>
       <r>   10.1553    0.0000 </r>
       <r>   10.4238    0.0000 </r>
       <r>   10.5146    0.0000 </r>
       <r>   10.5475    0.0000 </r>
       <r>   10.7756    0.0000 </r>
       <r>   10.8555    0.0000 </r>
       <r>   11.2557    0.0000 </r>
       <r>   11.2617    0.0000 </r>
       <r>   11.4919    0.0000 </r>
       <r>   11.7000    0.0000 </r>
       <r>   12.0782    0.0000 </r>
       <r>   12.1047    0.0000 </r>
       <r>   12.2920    0.0000 </r>
       <r>   12.3092    0.0000 </r>
       <r>   12.5634    0.0000 </r>
       <r>   12.6533    0.0000 </r>
       <r>   12.8777    0.0000 </r>
       <r>   13.0719    0.0000 </r>
       <r>   13.2841    0.0000 </r>
       <r>   13.4004    0.0000 </r>
       <r>   13.6486    0.0000 </r>
       <r>   13.6496    0.0000 </r>
       <r>   13.8638    0.0000 </r>
       <r>   13.9442    0.0000 </r>
       <r>   14.3366    0.0000 </r>
       <r>   14.8616    0.0000 </r>
       <r>   15.2227    0.0000 </r>
       <r>   15.9217    0.0000 </r>
       <r>   15.9261    0.0000 </r>
       <r>   16.1546    0.0000 </r>
       <r>   16.2048    0.0000 </r>
       <r>   16.3869    0.0000 </r>
       <r>   16.5099    0.0000 </r>
       <r>   16.7720    0.0000 </r>
       <r>   17.2574    0.0000 </r>
       <r>   17.3722    0.0000 </r>
       <r>   17.5198    0.0000 </r>
       <r>   17.7598    0.0000 </r>
       <r>   17.7990    0.0000 </r>
       <r>   17.9247    0.0000 </r>
       <r>   17.9748    0.0000 </r>
       <r>   18.0857    0.0000 </r>
      </set>
      <set comment="kpoint 4">
       <r>  -48.9390    1.0000 </r>
       <r>  -48.9386    1.0000 </r>
       <r>  -48.9368    1.0000 </r>
       <r>  -48.9365    1.0000 </r>
       <r>  -48.6475    1.0000 </r>
       <r>  -48.6442    1.0000 </r>
       <r>  -48.6015    1.0000 </r>
       <r>  -48.6009    1.0000 </r>
       <r>  -25.3366    1.0000 </r>
       <r>  -25.3335    1.0000 </r>
       <r>  -25.3264    1.0000 </r>
       <r>  -25.3240    1.0000 </r>
       <r>  -25.2219    1.0000 </r>
       <r>  -25.2198    1.0000 </r>
       <r>  -25.1801    1.0000 </r>
       <r>  -25.1781    1.0000 </r>
       <r>  -25.1745    1.0000 </r>
       <r>  -25.1730    1.0000 </r>
       <r>  -25.1243    1.0000 </r>
       <r>  -25.1231    1.0000 </r>
       <r>  -25.0408    1.0000 </r>
       <r>  -24.9920    1.0000 </r>
       <r>  -24.9889    1.0000 </r>
       <r>  -24.9738    1.0000 </r>
       <r>  -24.8769    1.0000 </r>
       <r>  -24.8722    1.0000 </r>
       <r>  -24.8312    1.0000 </r>
       <r>  -24.8272    1.0000 </r>
       <r>  -24.8085    1.0000 </r>
       <r>  -24.8071    1.0000 </r>
       <r>  -24.7561    1.0000 </r>
       <r>  -24.7551    1.0000 </r>
       <r>   -7.4312    1.0000 </r>
       <r>   -7.3294    1.0000 </r>
       <r>   -7.2902    1.0000 </r>
       <r>   -7.2406    1.0000 </r>
       <r>   -7.2403    1.0000 </r>
       <r>   -1.4260    1.0000 </r>
       <r>    0.0429    1.0000 </r>
       <r>    0.6399    1.0000 </r>
       <r>    1.7459    1.0000 </r>
       <r>    2.7883    1.0000 </r>
       <r>    3.0307    1.0000 </r>
       <r>    3.1956    1.0000 </r>
       <r>    3.5348    1.0000 </r>
       <r>    3.9395    1.0000 </r>
       <r>    4.3108    1.0000 </r>
       <r>    4.4814    1.0000 </r>
       <r>    4.6331    1.0000 </r>
       <r>    4.7591    1.0000 </r>
       <r>    5.4772    1.0000 </r>
       <r>    5.6674    1.0000 </r>
       <r>    5.9245    1.0000 </r>
       <r>    6.2621    1.0000 </r>
       <r>    6.3324    1.0000 </r>
       <r>    6.3432    1.0000 </r>
       <r>    6.6110    1.0000 </r>
       <r>    6.7242    1.0000 </r>
       <r>    6.7321    1.0000 </r>
       <r>    7.1528    1.0000 </r>
       <r>    7.3064    1.0000 </r>
       <r>    7.3490    1.0000 </r>
       <r>    7.4543    1.0000 </r>
       <r>    7.5390    1.0000 </r>
       <r>    7.5848    1.0000 </r>
       <r>    7.7172    1.0001 </r>
       <r>    8.1353   -0.0354 </r>
       <r>    8.1638   -0.0284 </r>
       <r>    8.2590   -0.0015 </r>
       <r>    8.5147   -0.0000 </r>
       <r>    8.5659   -0.0000 </r>
       <r>    8.5888   -0.0000 </r>
       <r>    8.7825   -0.0000 </r>
       <r>    9.0474   -0.0000 </r>
       <r>    9.2654   -0.0000 </r>
       <r>    9.2725   -0.0000 </r>
       <r>    9.3205   -0.0000 </r>
       <r>    9.4760   -0.0000 </r>
       <r>    9.4783   -0.0000 </r>
       <r>    9.5355   -0.0000 </r>
       <r>    9.6336   -0.0000 </r>
       <r>    9.7594   -0.0000 </r>
       <r>    9.7673   -0.0000 </r>
       <r>    9.8239   -0.0000 </r>
       <r>    9.8836   -0.0000 </r>
       <r>    9.8884   -0.0000 </r>
       <r>   10.0079   -0.0000 </r>
       <r>   10.3631    0.0000 </r>
       <r>   10.3691    0.0000 </r>
       <r>   10.5273    0.0000 </r>
       <r>   10.6980    0.0000 </r>
       <r>   10.9293    0.0000 </r>
       <r>   10.9407    0.0000 </r>
       <r>   11.1544    0.0000 </r>
       <r>   11.4422    0.0000 </r>
       <r>   11.7577    0.0000 </r>
       <r>   11.8254    0.0000 </r>
       <r>   12.0203    0.0000 </r>
       <r>   12.2068    0.0000 </r>
       <r>   12.3639    0.0000 </r>
       <r>   12.6930    0.0000 </r>
       <r>   12.8491    0.0000 </r>
       <r>   13.0048    0.0000 </r>
       <r>   13.1871    0.0000 </r>
       <r>   13.4269    0.0000 </r>
       <r>   13.6011    0.0000 </r>
       <r>   13.7142    0.0000 </r>
       <r>   13.9180    0.0000 </r>
       <r>   14.0778    0.0000 </r>
       <r>   14.1232    0.0000 </r>
       <r>   14.5941    0.0000 </r>
       <r>   14.7719    0.0000 </r>
       <r>   15.1805    0.0000 </r>
       <r>   15.2481    0.0000 </r>
       <r>   15.4603    0.0000 </r>
       <r>   15.8165    0.0000 </r>
       <r>   15.9663    0.0000 </r>
       <r>   16.2723    0.0000 </r>
       <r>   16.6905    0.0000 </r>
       <r>   16.7866    0.0000 </r>
       <r>   16.8156    0.0000 </r>
       <r>   16.9433    0.0000 </r>
       <r>   17.1660    0.0000 </r>
       <r>   17.2347    0.0000 </r>
       <r>   17.4922    0.0000 </r>
       <r>   17.7751    0.0000 </r>
       <r>   17.7986    0.0000 </r>
       <r>   17.9984    0.0000 </r>
      </set>
      <set comment="kpoint 5">
       <r>  -48.9381    1.0000 </r>
       <r>  -48.9377    1.0000 </r>
       <r>  -48.9373    1.0000 </r>
       <r>  -48.9370    1.0000 </r>
       <r>  -48.6477    1.0000 </r>
       <r>  -48.6444    1.0000 </r>
       <r>  -48.6017    1.0000 </r>
       <r>  -48.6011    1.0000 </r>
       <r>  -25.3358    1.0000 </r>
       <r>  -25.3342    1.0000 </r>
       <r>  -25.3260    1.0000 </r>
       <r>  -25.3244    1.0000 </r>
       <r>  -25.2205    1.0000 </r>
       <r>  -25.2184    1.0000 </r>
       <r>  -25.1758    1.0000 </r>
       <r>  -25.1743    1.0000 </r>
       <r>  -25.1638    1.0000 </r>
       <r>  -25.1619    1.0000 </r>
       <r>  -25.1083    1.0000 </r>
       <r>  -25.1071    1.0000 </r>
       <r>  -25.0394    1.0000 </r>
       <r>  -24.9910    1.0000 </r>
       <r>  -24.9887    1.0000 </r>
       <r>  -24.9736    1.0000 </r>
       <r>  -24.8925    1.0000 </r>
       <r>  -24.8876    1.0000 </r>
       <r>  -24.8310    1.0000 </r>
       <r>  -24.8281    1.0000 </r>
       <r>  -24.8271    1.0000 </r>
       <r>  -24.8266    1.0000 </r>
       <r>  -24.7564    1.0000 </r>
       <r>  -24.7554    1.0000 </r>
       <r>   -7.4314    1.0000 </r>
       <r>   -7.3292    1.0000 </r>
       <r>   -7.2900    1.0000 </r>
       <r>   -7.2407    1.0000 </r>
       <r>   -7.2403    1.0000 </r>
       <r>   -1.2026    1.0000 </r>
       <r>   -0.2987    1.0000 </r>
       <r>    0.9018    1.0000 </r>
       <r>    1.2871    1.0000 </r>
       <r>    3.0747    1.0000 </r>
       <r>    3.3521    1.0000 </r>
       <r>    3.5373    1.0000 </r>
       <r>    3.5925    1.0000 </r>
       <r>    3.7736    1.0000 </r>
       <r>    3.8836    1.0000 </r>
       <r>    4.0797    1.0000 </r>
       <r>    4.1448    1.0000 </r>
       <r>    4.9776    1.0000 </r>
       <r>    5.2468    1.0000 </r>
       <r>    6.0543    1.0000 </r>
       <r>    6.2200    1.0000 </r>
       <r>    6.2525    1.0000 </r>
       <r>    6.3059    1.0000 </r>
       <r>    6.7843    1.0000 </r>
       <r>    6.7992    1.0000 </r>
       <r>    6.8029    1.0000 </r>
       <r>    6.9103    1.0000 </r>
       <r>    7.1139    1.0000 </r>
       <r>    7.3260    1.0000 </r>
       <r>    7.3920    1.0000 </r>
       <r>    7.4326    1.0000 </r>
       <r>    7.6860    1.0000 </r>
       <r>    7.6938    1.0000 </r>
       <r>    7.7130    1.0001 </r>
       <r>    7.8186    1.0089 </r>
       <r>    8.1194   -0.0288 </r>
       <r>    8.1244   -0.0321 </r>
       <r>    8.4574   -0.0000 </r>
       <r>    8.4958   -0.0000 </r>
       <r>    8.6778   -0.0000 </r>
       <r>    8.6908   -0.0000 </r>
       <r>    9.0496   -0.0000 </r>
       <r>    9.1837   -0.0000 </r>
       <r>    9.2441   -0.0000 </r>
       <r>    9.3375   -0.0000 </r>
       <r>    9.3692   -0.0000 </r>
       <r>    9.4324   -0.0000 </r>
       <r>    9.5512   -0.0000 </r>
       <r>    9.5806   -0.0000 </r>
       <r>    9.7537   -0.0000 </r>
       <r>    9.7944   -0.0000 </r>
       <r>    9.9026   -0.0000 </r>
       <r>    9.9674   -0.0000 </r>
       <r>   10.0254    0.0000 </r>
       <r>   10.1272    0.0000 </r>
       <r>   10.1929    0.0000 </r>
       <r>   10.1947    0.0000 </r>
       <r>   10.6680    0.0000 </r>
       <r>   10.7331    0.0000 </r>
       <r>   10.7731    0.0000 </r>
       <r>   10.9382    0.0000 </r>
       <r>   11.1193    0.0000 </r>
       <r>   11.3453    0.0000 </r>
       <r>   11.4252    0.0000 </r>
       <r>   11.5488    0.0000 </r>
       <r>   12.2794    0.0000 </r>
       <r>   12.4075    0.0000 </r>
       <r>   12.4541    0.0000 </r>
       <r>   12.7514    0.0000 </r>
       <r>   12.8047    0.0000 </r>
       <r>   13.0073    0.0000 </r>
       <r>   13.2641    0.0000 </r>
       <r>   13.5423    0.0000 </r>
       <r>   13.6723    0.0000 </r>
       <r>   14.1946    0.0000 </r>
       <r>   14.2604    0.0000 </r>
       <r>   14.3204    0.0000 </r>
       <r>   14.3962    0.0000 </r>
       <r>   14.6679    0.0000 </r>
       <r>   14.7597    0.0000 </r>
       <r>   14.7741    0.0000 </r>
       <r>   15.0515    0.0000 </r>
       <r>   15.1329    0.0000 </r>
       <r>   15.4308    0.0000 </r>
       <r>   15.4605    0.0000 </r>
       <r>   15.8853    0.0000 </r>
       <r>   16.1759    0.0000 </r>
       <r>   16.4672    0.0000 </r>
       <r>   16.6185    0.0000 </r>
       <r>   16.7864    0.0000 </r>
       <r>   17.1885    0.0000 </r>
       <r>   17.6305    0.0000 </r>
       <r>   17.7339    0.0000 </r>
       <r>   17.8550    0.0000 </r>
       <r>   17.8908    0.0000 </r>
       <r>   18.0503    0.0000 </r>
      </set>
      <set comment="kpoint 6">
       <r>  -48.9402    1.0000 </r>
       <r>  -48.9399    1.0000 </r>
       <r>  -48.9364    1.0000 </r>
       <r>  -48.9361    1.0000 </r>
       <r>  -48.6471    1.0000 </r>
       <r>  -48.6437    1.0000 </r>
       <r>  -48.6010    1.0000 </r>
       <r>  -48.6003    1.0000 </r>
       <r>  -25.3377    1.0000 </r>
       <r>  -25.3326    1.0000 </r>
       <r>  -25.3271    1.0000 </r>
       <r>  -25.3234    1.0000 </r>
       <r>  -25.2199    1.0000 </r>
       <r>  -25.2186    1.0000 </r>
       <r>  -25.2176    1.0000 </r>
       <r>  -25.2164    1.0000 </r>
       <r>  -25.1650    1.0000 </r>
       <r>  -25.1639    1.0000 </r>
       <r>  -25.1636    1.0000 </r>
       <r>  -25.1626    1.0000 </r>
       <r>  -25.0423    1.0000 </r>
       <r>  -24.9932    1.0000 </r>
       <r>  -24.9889    1.0000 </r>
       <r>  -24.9738    1.0000 </r>
       <r>  -24.8382    1.0000 </r>
       <r>  -24.8379    1.0000 </r>
       <r>  -24.8341    1.0000 </r>
       <r>  -24.8339    1.0000 </r>
       <r>  -24.7626    1.0000 </r>
       <r>  -24.7626    1.0000 </r>
       <r>  -24.7615    1.0000 </r>
       <r>  -24.7615    1.0000 </r>
       <r>   -7.4309    1.0000 </r>
       <r>   -7.3298    1.0000 </r>
       <r>   -7.2907    1.0000 </r>
       <r>   -7.2404    1.0000 </r>
       <r>   -7.2404    1.0000 </r>
       <r>   -1.7324    1.0000 </r>
       <r>    0.1820    1.0000 </r>
       <r>    1.0951    1.0000 </r>
       <r>    2.0941    1.0000 </r>
       <r>    2.7706    1.0000 </r>
       <r>    2.7809    1.0000 </r>
       <r>    2.8229    1.0000 </r>
       <r>    3.1166    1.0000 </r>
       <r>    4.2010    1.0000 </r>
       <r>    4.4171    1.0000 </r>
       <r>    4.8438    1.0000 </r>
       <r>    4.9321    1.0000 </r>
       <r>    5.2248    1.0000 </r>
       <r>    5.3446    1.0000 </r>
       <r>    5.7160    1.0000 </r>
       <r>    5.7688    1.0000 </r>
       <r>    6.0432    1.0000 </r>
       <r>    6.0638    1.0000 </r>
       <r>    6.3786    1.0000 </r>
       <r>    6.4964    1.0000 </r>
       <r>    6.5538    1.0000 </r>
       <r>    6.5989    1.0000 </r>
       <r>    6.7328    1.0000 </r>
       <r>    7.0618    1.0000 </r>
       <r>    7.2620    1.0000 </r>
       <r>    7.3191    1.0000 </r>
       <r>    7.4949    1.0000 </r>
       <r>    7.6886    1.0000 </r>
       <r>    7.7112    1.0001 </r>
       <r>    7.8355    1.0145 </r>
       <r>    7.8784    1.0328 </r>
       <r>    8.0063    0.5763 </r>
       <r>    8.5246   -0.0000 </r>
       <r>    8.7371   -0.0000 </r>
       <r>    8.7914   -0.0000 </r>
       <r>    9.0450   -0.0000 </r>
       <r>    9.1209   -0.0000 </r>
       <r>    9.1601   -0.0000 </r>
       <r>    9.2785   -0.0000 </r>
       <r>    9.3611   -0.0000 </r>
       <r>    9.5361   -0.0000 </r>
       <r>    9.5488   -0.0000 </r>
       <r>    9.6104   -0.0000 </r>
       <r>    9.6151   -0.0000 </r>
       <r>    9.6318   -0.0000 </r>
       <r>    9.6406   -0.0000 </r>
       <r>    9.6615   -0.0000 </r>
       <r>    9.9014   -0.0000 </r>
       <r>    9.9123   -0.0000 </r>
       <r>   10.1805    0.0000 </r>
       <r>   10.5707    0.0000 </r>
       <r>   10.7064    0.0000 </r>
       <r>   10.7103    0.0000 </r>
       <r>   10.8167    0.0000 </r>
       <r>   10.8278    0.0000 </r>
       <r>   11.1322    0.0000 </r>
       <r>   11.3554    0.0000 </r>
       <r>   11.4312    0.0000 </r>
       <r>   11.6835    0.0000 </r>
       <r>   12.1482    0.0000 </r>
       <r>   12.2029    0.0000 </r>
       <r>   12.2688    0.0000 </r>
       <r>   12.3673    0.0000 </r>
       <r>   12.4360    0.0000 </r>
       <r>   12.5159    0.0000 </r>
       <r>   12.8846    0.0000 </r>
       <r>   13.1288    0.0000 </r>
       <r>   13.3186    0.0000 </r>
       <r>   13.3792    0.0000 </r>
       <r>   13.4906    0.0000 </r>
       <r>   13.7043    0.0000 </r>
       <r>   13.7440    0.0000 </r>
       <r>   13.8314    0.0000 </r>
       <r>   14.5778    0.0000 </r>
       <r>   14.9097    0.0000 </r>
       <r>   15.2013    0.0000 </r>
       <r>   15.2658    0.0000 </r>
       <r>   15.7180    0.0000 </r>
       <r>   16.0724    0.0000 </r>
       <r>   16.4412    0.0000 </r>
       <r>   16.6151    0.0000 </r>
       <r>   16.7655    0.0000 </r>
       <r>   16.9468    0.0000 </r>
       <r>   17.5570    0.0000 </r>
       <r>   17.6675    0.0000 </r>
       <r>   17.7861    0.0000 </r>
       <r>   17.9288    0.0000 </r>
       <r>   18.0004    0.0000 </r>
       <r>   18.2073    0.0000 </r>
       <r>   18.2434    0.0000 </r>
       <r>   18.3473    0.0000 </r>
      </set>
      <set comment="kpoint 7">
       <r>  -48.9396    1.0000 </r>
       <r>  -48.9393    1.0000 </r>
       <r>  -48.9365    1.0000 </r>
       <r>  -48.9362    1.0000 </r>
       <r>  -48.6473    1.0000 </r>
       <r>  -48.6440    1.0000 </r>
       <r>  -48.6013    1.0000 </r>
       <r>  -48.6006    1.0000 </r>
       <r>  -25.3372    1.0000 </r>
       <r>  -25.3330    1.0000 </r>
       <r>  -25.3268    1.0000 </r>
       <r>  -25.3237    1.0000 </r>
       <r>  -25.2177    1.0000 </r>
       <r>  -25.2156    1.0000 </r>
       <r>  -25.2016    1.0000 </r>
       <r>  -25.1996    1.0000 </r>
       <r>  -25.1659    1.0000 </r>
       <r>  -25.1645    1.0000 </r>
       <r>  -25.1467    1.0000 </r>
       <r>  -25.1455    1.0000 </r>
       <r>  -25.0418    1.0000 </r>
       <r>  -24.9928    1.0000 </r>
       <r>  -24.9890    1.0000 </r>
       <r>  -24.9739    1.0000 </r>
       <r>  -24.8552    1.0000 </r>
       <r>  -24.8509    1.0000 </r>
       <r>  -24.8378    1.0000 </r>
       <r>  -24.8338    1.0000 </r>
       <r>  -24.7827    1.0000 </r>
       <r>  -24.7815    1.0000 </r>
       <r>  -24.7631    1.0000 </r>
       <r>  -24.7620    1.0000 </r>
       <r>   -7.4311    1.0000 </r>
       <r>   -7.3296    1.0000 </r>
       <r>   -7.2904    1.0000 </r>
       <r>   -7.2405    1.0000 </r>
       <r>   -7.2404    1.0000 </r>
       <r>   -1.5948    1.0000 </r>
       <r>    0.2535    1.0000 </r>
       <r>    0.7627    1.0000 </r>
       <r>    2.0102    1.0000 </r>
       <r>    2.3392    1.0000 </r>
       <r>    2.9409    1.0000 </r>
       <r>    2.9609    1.0000 </r>
       <r>    3.4442    1.0000 </r>
       <r>    3.9148    1.0000 </r>
       <r>    4.6033    1.0000 </r>
       <r>    4.6972    1.0000 </r>
       <r>    5.1806    1.0000 </r>
       <r>    5.2434    1.0000 </r>
       <r>    5.2537    1.0000 </r>
       <r>    5.6483    1.0000 </r>
       <r>    5.8223    1.0000 </r>
       <r>    5.8816    1.0000 </r>
       <r>    6.0082    1.0000 </r>
       <r>    6.4259    1.0000 </r>
       <r>    6.4728    1.0000 </r>
       <r>    6.6234    1.0000 </r>
       <r>    6.6812    1.0000 </r>
       <r>    6.9305    1.0000 </r>
       <r>    7.1805    1.0000 </r>
       <r>    7.3566    1.0000 </r>
       <r>    7.5186    1.0000 </r>
       <r>    7.5753    1.0000 </r>
       <r>    7.6415    1.0000 </r>
       <r>    7.7052    1.0001 </r>
       <r>    7.9446    0.9628 </r>
       <r>    8.1221   -0.0308 </r>
       <r>    8.1447   -0.0348 </r>
       <r>    8.5478   -0.0000 </r>
       <r>    8.7180   -0.0000 </r>
       <r>    8.7933   -0.0000 </r>
       <r>    8.9136   -0.0000 </r>
       <r>    9.0605   -0.0000 </r>
       <r>    9.1391   -0.0000 </r>
       <r>    9.2458   -0.0000 </r>
       <r>    9.4007   -0.0000 </r>
       <r>    9.4373   -0.0000 </r>
       <r>    9.5395   -0.0000 </r>
       <r>    9.5838   -0.0000 </r>
       <r>    9.6143   -0.0000 </r>
       <r>    9.6358   -0.0000 </r>
       <r>    9.6733   -0.0000 </r>
       <r>    9.6734   -0.0000 </r>
       <r>    9.7230   -0.0000 </r>
       <r>    9.9104   -0.0000 </r>
       <r>   10.2616    0.0000 </r>
       <r>   10.4565    0.0000 </r>
       <r>   10.4754    0.0000 </r>
       <r>   10.5743    0.0000 </r>
       <r>   10.7307    0.0000 </r>
       <r>   10.7879    0.0000 </r>
       <r>   10.8708    0.0000 </r>
       <r>   11.2669    0.0000 </r>
       <r>   11.5133    0.0000 </r>
       <r>   11.6950    0.0000 </r>
       <r>   12.1499    0.0000 </r>
       <r>   12.2716    0.0000 </r>
       <r>   12.3851    0.0000 </r>
       <r>   12.4979    0.0000 </r>
       <r>   12.5968    0.0000 </r>
       <r>   12.7983    0.0000 </r>
       <r>   12.9155    0.0000 </r>
       <r>   13.0876    0.0000 </r>
       <r>   13.2801    0.0000 </r>
       <r>   13.3633    0.0000 </r>
       <r>   13.4562    0.0000 </r>
       <r>   13.6627    0.0000 </r>
       <r>   13.8828    0.0000 </r>
       <r>   14.1271    0.0000 </r>
       <r>   14.3246    0.0000 </r>
       <r>   14.5823    0.0000 </r>
       <r>   15.2225    0.0000 </r>
       <r>   15.5090    0.0000 </r>
       <r>   15.8399    0.0000 </r>
       <r>   15.9101    0.0000 </r>
       <r>   15.9466    0.0000 </r>
       <r>   16.3817    0.0000 </r>
       <r>   16.6127    0.0000 </r>
       <r>   16.6364    0.0000 </r>
       <r>   16.7788    0.0000 </r>
       <r>   17.4951    0.0000 </r>
       <r>   17.6497    0.0000 </r>
       <r>   17.8081    0.0000 </r>
       <r>   17.8681    0.0000 </r>
       <r>   18.1485    0.0000 </r>
       <r>   18.1759    0.0000 </r>
       <r>   18.3271    0.0000 </r>
      </set>
      <set comment="kpoint 8">
       <r>  -48.9388    1.0000 </r>
       <r>  -48.9384    1.0000 </r>
       <r>  -48.9367    1.0000 </r>
       <r>  -48.9364    1.0000 </r>
       <r>  -48.6476    1.0000 </r>
       <r>  -48.6443    1.0000 </r>
       <r>  -48.6016    1.0000 </r>
       <r>  -48.6010    1.0000 </r>
       <r>  -25.3365    1.0000 </r>
       <r>  -25.3336    1.0000 </r>
       <r>  -25.3264    1.0000 </r>
       <r>  -25.3242    1.0000 </r>
       <r>  -25.2157    1.0000 </r>
       <r>  -25.2137    1.0000 </r>
       <r>  -25.1796    1.0000 </r>
       <r>  -25.1777    1.0000 </r>
       <r>  -25.1676    1.0000 </r>
       <r>  -25.1662    1.0000 </r>
       <r>  -25.1244    1.0000 </r>
       <r>  -25.1232    1.0000 </r>
       <r>  -25.0407    1.0000 </r>
       <r>  -24.9920    1.0000 </r>
       <r>  -24.9890    1.0000 </r>
       <r>  -24.9739    1.0000 </r>
       <r>  -24.8769    1.0000 </r>
       <r>  -24.8722    1.0000 </r>
       <r>  -24.8377    1.0000 </r>
       <r>  -24.8336    1.0000 </r>
       <r>  -24.8086    1.0000 </r>
       <r>  -24.8072    1.0000 </r>
       <r>  -24.7635    1.0000 </r>
       <r>  -24.7625    1.0000 </r>
       <r>   -7.4313    1.0000 </r>
       <r>   -7.3293    1.0000 </r>
       <r>   -7.2901    1.0000 </r>
       <r>   -7.2406    1.0000 </r>
       <r>   -7.2404    1.0000 </r>
       <r>   -1.3834    1.0000 </r>
       <r>    0.0752    1.0000 </r>
       <r>    0.6845    1.0000 </r>
       <r>    1.7696    1.0000 </r>
       <r>    2.2286    1.0000 </r>
       <r>    3.1606    1.0000 </r>
       <r>    3.2534    1.0000 </r>
       <r>    3.4068    1.0000 </r>
       <r>    3.7570    1.0000 </r>
       <r>    4.2299    1.0000 </r>
       <r>    4.6765    1.0000 </r>
       <r>    4.8687    1.0000 </r>
       <r>    5.0639    1.0000 </r>
       <r>    5.6975    1.0000 </r>
       <r>    5.7333    1.0000 </r>
       <r>    5.9007    1.0000 </r>
       <r>    6.0525    1.0000 </r>
       <r>    6.2858    1.0000 </r>
       <r>    6.3668    1.0000 </r>
       <r>    6.6423    1.0000 </r>
       <r>    6.6940    1.0000 </r>
       <r>    6.7871    1.0000 </r>
       <r>    7.2618    1.0000 </r>
       <r>    7.3356    1.0000 </r>
       <r>    7.3477    1.0000 </r>
       <r>    7.4905    1.0000 </r>
       <r>    7.5258    1.0000 </r>
       <r>    7.6111    1.0000 </r>
       <r>    7.7608    1.0009 </r>
       <r>    8.0679    0.1164 </r>
       <r>    8.2200   -0.0069 </r>
       <r>    8.2305   -0.0048 </r>
       <r>    8.5857   -0.0000 </r>
       <r>    8.6061   -0.0000 </r>
       <r>    8.6497   -0.0000 </r>
       <r>    8.7873   -0.0000 </r>
       <r>    9.0331   -0.0000 </r>
       <r>    9.1451   -0.0000 </r>
       <r>    9.2403   -0.0000 </r>
       <r>    9.2496   -0.0000 </r>
       <r>    9.4402   -0.0000 </r>
       <r>    9.4869   -0.0000 </r>
       <r>    9.5696   -0.0000 </r>
       <r>    9.5895   -0.0000 </r>
       <r>    9.6418   -0.0000 </r>
       <r>    9.6989   -0.0000 </r>
       <r>    9.7781   -0.0000 </r>
       <r>    9.8569   -0.0000 </r>
       <r>    9.8629   -0.0000 </r>
       <r>    9.9540   -0.0000 </r>
       <r>   10.3175    0.0000 </r>
       <r>   10.3782    0.0000 </r>
       <r>   10.6647    0.0000 </r>
       <r>   10.6662    0.0000 </r>
       <r>   10.6786    0.0000 </r>
       <r>   10.8463    0.0000 </r>
       <r>   11.1801    0.0000 </r>
       <r>   11.4724    0.0000 </r>
       <r>   11.7780    0.0000 </r>
       <r>   11.9493    0.0000 </r>
       <r>   12.0196    0.0000 </r>
       <r>   12.2999    0.0000 </r>
       <r>   12.6019    0.0000 </r>
       <r>   12.8421    0.0000 </r>
       <r>   12.9408    0.0000 </r>
       <r>   13.0166    0.0000 </r>
       <r>   13.1421    0.0000 </r>
       <r>   13.4025    0.0000 </r>
       <r>   13.6153    0.0000 </r>
       <r>   13.7053    0.0000 </r>
       <r>   13.8125    0.0000 </r>
       <r>   13.9352    0.0000 </r>
       <r>   14.0456    0.0000 </r>
       <r>   14.5201    0.0000 </r>
       <r>   14.8316    0.0000 </r>
       <r>   14.8939    0.0000 </r>
       <r>   15.2421    0.0000 </r>
       <r>   15.4519    0.0000 </r>
       <r>   15.6473    0.0000 </r>
       <r>   15.7770    0.0000 </r>
       <r>   16.0951    0.0000 </r>
       <r>   16.2901    0.0000 </r>
       <r>   16.7154    0.0000 </r>
       <r>   16.7256    0.0000 </r>
       <r>   16.8071    0.0000 </r>
       <r>   17.0673    0.0000 </r>
       <r>   17.2980    0.0000 </r>
       <r>   17.7380    0.0000 </r>
       <r>   17.8054    0.0000 </r>
       <r>   17.9666    0.0000 </r>
       <r>   18.4552    0.0000 </r>
      </set>
      <set comment="kpoint 9">
       <r>  -48.9379    1.0000 </r>
       <r>  -48.9376    1.0000 </r>
       <r>  -48.9372    1.0000 </r>
       <r>  -48.9369    1.0000 </r>
       <r>  -48.6478    1.0000 </r>
       <r>  -48.6445    1.0000 </r>
       <r>  -48.6019    1.0000 </r>
       <r>  -48.6012    1.0000 </r>
       <r>  -25.3358    1.0000 </r>
       <r>  -25.3343    1.0000 </r>
       <r>  -25.3259    1.0000 </r>
       <r>  -25.3246    1.0000 </r>
       <r>  -25.2144    1.0000 </r>
       <r>  -25.2124    1.0000 </r>
       <r>  -25.1688    1.0000 </r>
       <r>  -25.1674    1.0000 </r>
       <r>  -25.1636    1.0000 </r>
       <r>  -25.1616    1.0000 </r>
       <r>  -25.1081    1.0000 </r>
       <r>  -25.1069    1.0000 </r>
       <r>  -25.0393    1.0000 </r>
       <r>  -24.9909    1.0000 </r>
       <r>  -24.9888    1.0000 </r>
       <r>  -24.9737    1.0000 </r>
       <r>  -24.8927    1.0000 </r>
       <r>  -24.8877    1.0000 </r>
       <r>  -24.8376    1.0000 </r>
       <r>  -24.8336    1.0000 </r>
       <r>  -24.8280    1.0000 </r>
       <r>  -24.8265    1.0000 </r>
       <r>  -24.7639    1.0000 </r>
       <r>  -24.7628    1.0000 </r>
       <r>   -7.4315    1.0000 </r>
       <r>   -7.3291    1.0000 </r>
       <r>   -7.2899    1.0000 </r>
       <r>   -7.2407    1.0000 </r>
       <r>   -7.2404    1.0000 </r>
       <r>   -1.1655    1.0000 </r>
       <r>   -0.2505    1.0000 </r>
       <r>    0.9447    1.0000 </r>
       <r>    1.3255    1.0000 </r>
       <r>    2.4880    1.0000 </r>
       <r>    2.9629    1.0000 </r>
       <r>    3.4510    1.0000 </r>
       <r>    3.6472    1.0000 </r>
       <r>    3.8517    1.0000 </r>
       <r>    4.0540    1.0000 </r>
       <r>    4.1300    1.0000 </r>
       <r>    4.5147    1.0000 </r>
       <r>    5.2737    1.0000 </r>
       <r>    5.5287    1.0000 </r>
       <r>    5.9815    1.0000 </r>
       <r>    6.0543    1.0000 </r>
       <r>    6.2881    1.0000 </r>
       <r>    6.3291    1.0000 </r>
       <r>    6.7372    1.0000 </r>
       <r>    6.8050    1.0000 </r>
       <r>    6.8895    1.0000 </r>
       <r>    6.9295    1.0000 </r>
       <r>    7.1484    1.0000 </r>
       <r>    7.3454    1.0000 </r>
       <r>    7.3567    1.0000 </r>
       <r>    7.5423    1.0000 </r>
       <r>    7.5758    1.0000 </r>
       <r>    7.7200    1.0001 </r>
       <r>    7.7948    1.0039 </r>
       <r>    7.8847    1.0345 </r>
       <r>    8.0226    0.4389 </r>
       <r>    8.1895   -0.0168 </r>
       <r>    8.5189   -0.0000 </r>
       <r>    8.5692   -0.0000 </r>
       <r>    8.6945   -0.0000 </r>
       <r>    8.7203   -0.0000 </r>
       <r>    9.0430   -0.0000 </r>
       <r>    9.1687   -0.0000 </r>
       <r>    9.2236   -0.0000 </r>
       <r>    9.2288   -0.0000 </r>
       <r>    9.3134   -0.0000 </r>
       <r>    9.4689   -0.0000 </r>
       <r>    9.5103   -0.0000 </r>
       <r>    9.5227   -0.0000 </r>
       <r>    9.6800   -0.0000 </r>
       <r>    9.7250   -0.0000 </r>
       <r>    9.7520   -0.0000 </r>
       <r>    9.9128   -0.0000 </r>
       <r>    9.9567   -0.0000 </r>
       <r>   10.0565    0.0000 </r>
       <r>   10.1317    0.0000 </r>
       <r>   10.1880    0.0000 </r>
       <r>   10.4915    0.0000 </r>
       <r>   10.7088    0.0000 </r>
       <r>   10.9101    0.0000 </r>
       <r>   10.9303    0.0000 </r>
       <r>   11.1822    0.0000 </r>
       <r>   11.3685    0.0000 </r>
       <r>   11.4169    0.0000 </r>
       <r>   11.6524    0.0000 </r>
       <r>   12.2989    0.0000 </r>
       <r>   12.4253    0.0000 </r>
       <r>   12.6722    0.0000 </r>
       <r>   12.8279    0.0000 </r>
       <r>   12.9768    0.0000 </r>
       <r>   13.0203    0.0000 </r>
       <r>   13.3275    0.0000 </r>
       <r>   13.4204    0.0000 </r>
       <r>   13.5393    0.0000 </r>
       <r>   13.9980    0.0000 </r>
       <r>   14.0734    0.0000 </r>
       <r>   14.1259    0.0000 </r>
       <r>   14.2827    0.0000 </r>
       <r>   14.5107    0.0000 </r>
       <r>   14.6832    0.0000 </r>
       <r>   15.0392    0.0000 </r>
       <r>   15.1429    0.0000 </r>
       <r>   15.2467    0.0000 </r>
       <r>   15.3930    0.0000 </r>
       <r>   15.5191    0.0000 </r>
       <r>   15.7435    0.0000 </r>
       <r>   15.9735    0.0000 </r>
       <r>   16.0393    0.0000 </r>
       <r>   16.5019    0.0000 </r>
       <r>   16.7954    0.0000 </r>
       <r>   17.0417    0.0000 </r>
       <r>   17.4416    0.0000 </r>
       <r>   17.7319    0.0000 </r>
       <r>   17.8007    0.0000 </r>
       <r>   17.8583    0.0000 </r>
       <r>   18.4031    0.0000 </r>
      </set>
      <set comment="kpoint 10">
       <r>  -48.9391    1.0000 </r>
       <r>  -48.9387    1.0000 </r>
       <r>  -48.9365    1.0000 </r>
       <r>  -48.9362    1.0000 </r>
       <r>  -48.6476    1.0000 </r>
       <r>  -48.6443    1.0000 </r>
       <r>  -48.6016    1.0000 </r>
       <r>  -48.6009    1.0000 </r>
       <r>  -25.3369    1.0000 </r>
       <r>  -25.3334    1.0000 </r>
       <r>  -25.3266    1.0000 </r>
       <r>  -25.3241    1.0000 </r>
       <r>  -25.2030    1.0000 </r>
       <r>  -25.2008    1.0000 </r>
       <r>  -25.1979    1.0000 </r>
       <r>  -25.1961    1.0000 </r>
       <r>  -25.1498    1.0000 </r>
       <r>  -25.1484    1.0000 </r>
       <r>  -25.1457    1.0000 </r>
       <r>  -25.1446    1.0000 </r>
       <r>  -25.0413    1.0000 </r>
       <r>  -24.9925    1.0000 </r>
       <r>  -24.9892    1.0000 </r>
       <r>  -24.9740    1.0000 </r>
       <r>  -24.8555    1.0000 </r>
       <r>  -24.8547    1.0000 </r>
       <r>  -24.8511    1.0000 </r>
       <r>  -24.8505    1.0000 </r>
       <r>  -24.7832    1.0000 </r>
       <r>  -24.7831    1.0000 </r>
       <r>  -24.7819    1.0000 </r>
       <r>  -24.7819    1.0000 </r>
       <r>   -7.4313    1.0000 </r>
       <r>   -7.3293    1.0000 </r>
       <r>   -7.2901    1.0000 </r>
       <r>   -7.2405    1.0000 </r>
       <r>   -7.2405    1.0000 </r>
       <r>   -1.4620    1.0000 </r>
       <r>    0.2973    1.0000 </r>
       <r>    0.7538    1.0000 </r>
       <r>    1.6125    1.0000 </r>
       <r>    2.4478    1.0000 </r>
       <r>    2.4766    1.0000 </r>
       <r>    3.1375    1.0000 </r>
       <r>    3.3211    1.0000 </r>
       <r>    4.0257    1.0000 </r>
       <r>    4.2052    1.0000 </r>
       <r>    5.1663    1.0000 </r>
       <r>    5.2399    1.0000 </r>
       <r>    5.5618    1.0000 </r>
       <r>    5.5620    1.0000 </r>
       <r>    5.5978    1.0000 </r>
       <r>    5.8080    1.0000 </r>
       <r>    5.8311    1.0000 </r>
       <r>    6.0407    1.0000 </r>
       <r>    6.3968    1.0000 </r>
       <r>    6.5839    1.0000 </r>
       <r>    6.6594    1.0000 </r>
       <r>    6.7465    1.0000 </r>
       <r>    6.8756    1.0000 </r>
       <r>    7.4107    1.0000 </r>
       <r>    7.4501    1.0000 </r>
       <r>    7.5743    1.0000 </r>
       <r>    7.6315    1.0000 </r>
       <r>    7.7005    1.0000 </r>
       <r>    7.7171    1.0001 </r>
       <r>    7.8327    1.0134 </r>
       <r>    8.2297   -0.0049 </r>
       <r>    8.4099   -0.0000 </r>
       <r>    8.5915   -0.0000 </r>
       <r>    8.6078   -0.0000 </r>
       <r>    8.8211   -0.0000 </r>
       <r>    8.8420   -0.0000 </r>
       <r>    9.0065   -0.0000 </r>
       <r>    9.0994   -0.0000 </r>
       <r>    9.1536   -0.0000 </r>
[...]
       <r>    5.5021    1.0000 </r>
       <r>    5.5643    1.0000 </r>
       <r>    5.6687    1.0000 </r>
       <r>    5.6892    1.0000 </r>
       <r>    5.8219    1.0000 </r>
       <r>    6.1392    1.0000 </r>
       <r>    6.1532    1.0000 </r>
       <r>    6.2699    1.0000 </r>
       <r>    6.3838    1.0000 </r>
       <r>    6.8470    1.0000 </r>
       <r>    6.9887    1.0000 </r>
       <r>    7.0018    1.0000 </r>
       <r>    7.0726    1.0000 </r>
       <r>    7.1229    1.0000 </r>
       <r>    7.4697    1.0000 </r>
       <r>    7.5212    1.0000 </r>
       <r>    7.5370    1.0000 </r>
       <r>    7.6648    1.0000 </r>
       <r>    7.8121    1.0072 </r>
       <r>    7.9743    0.8171 </r>
       <r>    8.0075    0.5662 </r>
       <r>    8.0668    0.1225 </r>
       <r>    8.1409   -0.0353 </r>
       <r>    8.2439   -0.0029 </r>
       <r>    8.3135   -0.0001 </r>
       <r>    8.3392   -0.0000 </r>
       <r>    8.3790   -0.0000 </r>
       <r>    8.7416   -0.0000 </r>
       <r>    8.9694   -0.0000 </r>
       <r>    9.0904   -0.0000 </r>
       <r>    9.1931   -0.0000 </r>
       <r>    9.3173   -0.0000 </r>
       <r>    9.3176   -0.0000 </r>
       <r>    9.3435   -0.0000 </r>
       <r>    9.3753   -0.0000 </r>
       <r>    9.4085   -0.0000 </r>
       <r>    9.5032   -0.0000 </r>
       <r>    9.5049   -0.0000 </r>
       <r>    9.5802   -0.0000 </r>
       <r>    9.9166   -0.0000 </r>
       <r>   10.0724    0.0000 </r>
       <r>   10.0746    0.0000 </r>
       <r>   10.4159    0.0000 </r>
       <r>   10.7094    0.0000 </r>
       <r>   10.9046    0.0000 </r>
       <r>   10.9828    0.0000 </r>
       <r>   10.9852    0.0000 </r>
       <r>   11.0998    0.0000 </r>
       <r>   11.1322    0.0000 </r>
       <r>   11.3981    0.0000 </r>
       <r>   11.4540    0.0000 </r>
       <r>   11.9320    0.0000 </r>
       <r>   12.2376    0.0000 </r>
       <r>   12.3704    0.0000 </r>
       <r>   12.4127    0.0000 </r>
       <r>   12.4596    0.0000 </r>
       <r>   12.6290    0.0000 </r>
       <r>   12.6612    0.0000 </r>
       <r>   12.8647    0.0000 </r>
       <r>   13.0426    0.0000 </r>
       <r>   13.4941    0.0000 </r>
       <r>   13.5403    0.0000 </r>
       <r>   13.8449    0.0000 </r>
       <r>   15.2775    0.0000 </r>
       <r>   15.2989    0.0000 </r>
       <r>   15.4226    0.0000 </r>
       <r>   15.8252    0.0000 </r>
       <r>   15.9204    0.0000 </r>
       <r>   15.9470    0.0000 </r>
       <r>   16.0079    0.0000 </r>
       <r>   16.1946    0.0000 </r>
       <r>   16.4364    0.0000 </r>
       <r>   16.7123    0.0000 </r>
       <r>   16.8008    0.0000 </r>
       <r>   16.9444    0.0000 </r>
       <r>   16.9967    0.0000 </r>
       <r>   17.0070    0.0000 </r>
       <r>   17.0757    0.0000 </r>
       <r>   17.1330    0.0000 </r>
       <r>   17.5713    0.0000 </r>
       <r>   17.5981    0.0000 </r>
       <r>   17.6481    0.0000 </r>
      </set>
     </set>
    </set>
   </array>
  </eigenvalues>
  <separator name="orbital magnetization" >
   <v name="MAGDIPOLOUT">      0.00000000      0.00000000      0.00000000</v>
  </separator>
  <dos>
   <i name="efermi">      8.01538893 </i>
   <total>
    <array>
     <dimension dim="1">gridpoints</dimension>
     <dimension dim="2">spin</dimension>
     <field>energy</field>
     <field>total</field>
     <field>integrated</field>
     <set>
      <set comment="spin 1">
       <r>   -52.3514     0.0000     0.0000 </r>
       <r>   -52.1013     0.0000     0.0000 </r>
       <r>   -51.8512     0.0000     0.0000 </r>
       <r>   -51.6011     0.0000     0.0000 </r>
       <r>   -51.3509     0.0000     0.0000 </r>
       <r>   -51.1008     0.0000     0.0000 </r>
       <r>   -50.8507     0.0000     0.0000 </r>
       <r>   -50.6006     0.0000     0.0000 </r>
       <r>   -50.3505     0.0000     0.0000 </r>
       <r>   -50.1003     0.0000     0.0000 </r>
       <r>   -49.8502    -0.0000    -0.0000 </r>
       <r>   -49.6001    -0.0000    -0.0000 </r>
       <r>   -49.3500    -0.0000    -0.0000 </r>
       <r>   -49.0999    -0.7024    -0.1757 </r>
       <r>   -48.8498    32.7836     8.0241 </r>
       <r>   -48.5996    21.7334    13.4600 </r>
       <r>   -48.3495    10.1740    16.0047 </r>
       <r>   -48.0994    -0.0188    16.0000 </r>
       <r>   -47.8493    -0.0000    16.0000 </r>
       <r>   -47.5992     0.0000    16.0000 </r>
       <r>   -47.3491     0.0000    16.0000 </r>
       <r>   -47.0989     0.0000    16.0000 </r>
       <r>   -46.8488     0.0000    16.0000 </r>
       <r>   -46.5987     0.0000    16.0000 </r>
       <r>   -46.3486     0.0000    16.0000 </r>
       <r>   -46.0985     0.0000    16.0000 </r>
       <r>   -45.8483     0.0000    16.0000 </r>
       <r>   -45.5982     0.0000    16.0000 </r>
       <r>   -45.3481     0.0000    16.0000 </r>
       <r>   -45.0980     0.0000    16.0000 </r>
       <r>   -44.8479     0.0000    16.0000 </r>
       <r>   -44.5978     0.0000    16.0000 </r>
       <r>   -44.3476     0.0000    16.0000 </r>
       <r>   -44.0975     0.0000    16.0000 </r>
       <r>   -43.8474     0.0000    16.0000 </r>
       <r>   -43.5973     0.0000    16.0000 </r>
       <r>   -43.3472     0.0000    16.0000 </r>
       <r>   -43.0971     0.0000    16.0000 </r>
       <r>   -42.8469     0.0000    16.0000 </r>
       <r>   -42.5968     0.0000    16.0000 </r>
       <r>   -42.3467     0.0000    16.0000 </r>
       <r>   -42.0966     0.0000    16.0000 </r>
       <r>   -41.8465     0.0000    16.0000 </r>
       <r>   -41.5963     0.0000    16.0000 </r>
       <r>   -41.3462     0.0000    16.0000 </r>
       <r>   -41.0961     0.0000    16.0000 </r>
       <r>   -40.8460     0.0000    16.0000 </r>
       <r>   -40.5959     0.0000    16.0000 </r>
       <r>   -40.3458     0.0000    16.0000 </r>
       <r>   -40.0956     0.0000    16.0000 </r>
       <r>   -39.8455     0.0000    16.0000 </r>
       <r>   -39.5954     0.0000    16.0000 </r>
       <r>   -39.3453     0.0000    16.0000 </r>
       <r>   -39.0952     0.0000    16.0000 </r>
       <r>   -38.8450     0.0000    16.0000 </r>
       <r>   -38.5949     0.0000    16.0000 </r>
       <r>   -38.3448     0.0000    16.0000 </r>
       <r>   -38.0947     0.0000    16.0000 </r>
       <r>   -37.8446     0.0000    16.0000 </r>
       <r>   -37.5945     0.0000    16.0000 </r>
       <r>   -37.3443     0.0000    16.0000 </r>
       <r>   -37.0942     0.0000    16.0000 </r>
       <r>   -36.8441     0.0000    16.0000 </r>
       <r>   -36.5940     0.0000    16.0000 </r>
       <r>   -36.3439     0.0000    16.0000 </r>
       <r>   -36.0938     0.0000    16.0000 </r>
       <r>   -35.8436     0.0000    16.0000 </r>
       <r>   -35.5935     0.0000    16.0000 </r>
       <r>   -35.3434     0.0000    16.0000 </r>
       <r>   -35.0933     0.0000    16.0000 </r>
       <r>   -34.8432     0.0000    16.0000 </r>
       <r>   -34.5930     0.0000    16.0000 </r>
       <r>   -34.3429     0.0000    16.0000 </r>
       <r>   -34.0928     0.0000    16.0000 </r>
       <r>   -33.8427     0.0000    16.0000 </r>
       <r>   -33.5926     0.0000    16.0000 </r>
       <r>   -33.3425     0.0000    16.0000 </r>
       <r>   -33.0923     0.0000    16.0000 </r>
       <r>   -32.8422     0.0000    16.0000 </r>
       <r>   -32.5921     0.0000    16.0000 </r>
       <r>   -32.3420     0.0000    16.0000 </r>
       <r>   -32.0919     0.0000    16.0000 </r>
       <r>   -31.8418     0.0000    16.0000 </r>
       <r>   -31.5916     0.0000    16.0000 </r>
       <r>   -31.3415     0.0000    16.0000 </r>
       <r>   -31.0914     0.0000    16.0000 </r>
       <r>   -30.8413     0.0000    16.0000 </r>
       <r>   -30.5912     0.0000    16.0000 </r>
       <r>   -30.3410     0.0000    16.0000 </r>
       <r>   -30.0909     0.0000    16.0000 </r>
       <r>   -29.8408     0.0000    16.0000 </r>
       <r>   -29.5907     0.0000    16.0000 </r>
       <r>   -29.3406     0.0000    16.0000 </r>
       <r>   -29.0905     0.0000    16.0000 </r>
       <r>   -28.8403     0.0000    16.0000 </r>
       <r>   -28.5902     0.0000    16.0000 </r>
       <r>   -28.3401     0.0000    16.0000 </r>
       <r>   -28.0900     0.0000    16.0000 </r>
       <r>   -27.8399     0.0000    16.0000 </r>
       <r>   -27.5898     0.0000    16.0000 </r>
       <r>   -27.3396     0.0000    16.0000 </r>
       <r>   -27.0895     0.0000    16.0000 </r>
       <r>   -26.8394     0.0000    16.0000 </r>
       <r>   -26.5893     0.0000    16.0000 </r>
       <r>   -26.3392    -0.0000    16.0000 </r>
       <r>   -26.0890    -0.0000    16.0000 </r>
       <r>   -25.8389    -0.0000    16.0000 </r>
       <r>   -25.5888    -0.0253    15.9937 </r>
       <r>   -25.3387    12.5279    19.1271 </r>
       <r>   -25.0886    79.4704    39.0041 </r>
       <r>   -24.8385    63.5089    54.8888 </r>
       <r>   -24.5883    36.7482    64.0801 </r>
       <r>   -24.3382    -0.3204    64.0000 </r>
       <r>   -24.0881    -0.0000    64.0000 </r>
       <r>   -23.8380     0.0000    64.0000 </r>
       <r>   -23.5879     0.0000    64.0000 </r>
       <r>   -23.3378     0.0000    64.0000 </r>
       <r>   -23.0876     0.0000    64.0000 </r>
       <r>   -22.8375     0.0000    64.0000 </r>
       <r>   -22.5874     0.0000    64.0000 </r>
       <r>   -22.3373     0.0000    64.0000 </r>
       <r>   -22.0872     0.0000    64.0000 </r>
       <r>   -21.8370     0.0000    64.0000 </r>
       <r>   -21.5869     0.0000    64.0000 </r>
       <r>   -21.3368     0.0000    64.0000 </r>
       <r>   -21.0867     0.0000    64.0000 </r>
       <r>   -20.8366     0.0000    64.0000 </r>
       <r>   -20.5865     0.0000    64.0000 </r>
       <r>   -20.3363     0.0000    64.0000 </r>
       <r>   -20.0862     0.0000    64.0000 </r>
       <r>   -19.8361     0.0000    64.0000 </r>
       <r>   -19.5860     0.0000    64.0000 </r>
       <r>   -19.3359     0.0000    64.0000 </r>
       <r>   -19.0857     0.0000    64.0000 </r>
       <r>   -18.8356     0.0000    64.0000 </r>
       <r>   -18.5855     0.0000    64.0000 </r>
       <r>   -18.3354     0.0000    64.0000 </r>
       <r>   -18.0853     0.0000    64.0000 </r>
       <r>   -17.8352     0.0000    64.0000 </r>
       <r>   -17.5850     0.0000    64.0000 </r>
       <r>   -17.3349     0.0000    64.0000 </r>
       <r>   -17.0848     0.0000    64.0000 </r>
       <r>   -16.8347     0.0000    64.0000 </r>
       <r>   -16.5846     0.0000    64.0000 </r>
       <r>   -16.3345     0.0000    64.0000 </r>
       <r>   -16.0843     0.0000    64.0000 </r>
       <r>   -15.8342     0.0000    64.0000 </r>
       <r>   -15.5841     0.0000    64.0000 </r>
       <r>   -15.3340     0.0000    64.0000 </r>
       <r>   -15.0839     0.0000    64.0000 </r>
       <r>   -14.8337     0.0000    64.0000 </r>
       <r>   -14.5836     0.0000    64.0000 </r>
       <r>   -14.3335     0.0000    64.0000 </r>
       <r>   -14.0834     0.0000    64.0000 </r>
       <r>   -13.8333     0.0000    64.0000 </r>
       <r>   -13.5832     0.0000    64.0000 </r>
       <r>   -13.3330     0.0000    64.0000 </r>
       <r>   -13.0829     0.0000    64.0000 </r>
       <r>   -12.8328     0.0000    64.0000 </r>
       <r>   -12.5827     0.0000    64.0000 </r>
       <r>   -12.3326     0.0000    64.0000 </r>
       <r>   -12.0825     0.0000    64.0000 </r>
       <r>   -11.8323     0.0000    64.0000 </r>
       <r>   -11.5822     0.0000    64.0000 </r>
       <r>   -11.3321     0.0000    64.0000 </r>
       <r>   -11.0820     0.0000    64.0000 </r>
       <r>   -10.8319     0.0000    64.0000 </r>
       <r>   -10.5817     0.0000    64.0000 </r>
       <r>   -10.3316     0.0000    64.0000 </r>
       <r>   -10.0815     0.0000    64.0000 </r>
       <r>    -9.8314     0.0000    64.0000 </r>
       <r>    -9.5813     0.0000    64.0000 </r>
       <r>    -9.3312     0.0000    64.0000 </r>
       <r>    -9.0810     0.0000    64.0000 </r>
       <r>    -8.8309     0.0000    64.0000 </r>
       <r>    -8.5808     0.0000    64.0000 </r>
       <r>    -8.3307    -0.0000    64.0000 </r>
       <r>    -8.0806    -0.0000    64.0000 </r>
       <r>    -7.8305    -0.0000    64.0000 </r>
       <r>    -7.5803    -0.2352    63.9412 </r>
       <r>    -7.3302    13.6781    67.3623 </r>
       <r>    -7.0801    26.9599    74.1054 </r>
       <r>    -6.8300    -0.4216    74.0000 </r>
       <r>    -6.5799    -0.0000    74.0000 </r>
       <r>    -6.3297     0.0000    74.0000 </r>
       <r>    -6.0796     0.0000    74.0000 </r>
       <r>    -5.8295     0.0000    74.0000 </r>
       <r>    -5.5794     0.0000    74.0000 </r>
       <r>    -5.3293     0.0000    74.0000 </r>
       <r>    -5.0792     0.0000    74.0000 </r>
       <r>    -4.8290     0.0000    74.0000 </r>
       <r>    -4.5789     0.0000    74.0000 </r>
       <r>    -4.3288     0.0000    74.0000 </r>
       <r>    -4.0787     0.0000    74.0000 </r>
       <r>    -3.8286     0.0000    74.0000 </r>
       <r>    -3.5784     0.0000    74.0000 </r>
       <r>    -3.3283     0.0000    74.0000 </r>
       <r>    -3.0782     0.0000    74.0000 </r>
       <r>    -2.8281    -0.0000    74.0000 </r>
       <r>    -2.5780    -0.0000    74.0000 </r>
       <r>    -2.3279    -0.0000    74.0000 </r>
       <r>    -2.0777    -0.0000    74.0000 </r>
       <r>    -1.8276     0.0132    74.0033 </r>
       <r>    -1.5775     1.3273    74.3353 </r>
       <r>    -1.3274     1.9148    74.8142 </r>
       <r>    -1.0773     2.5553    75.4533 </r>
       <r>    -0.8272     1.8121    75.9066 </r>
       <r>    -0.5770     0.3765    76.0007 </r>
       <r>    -0.3269     0.0054    76.0021 </r>
       <r>    -0.0768     1.7027    76.4280 </r>
       <r>     0.1733     3.5173    77.3077 </r>
       <r>     0.4234     3.2404    78.1182 </r>
       <r>     0.6736     1.8588    78.5831 </r>
       <r>     0.9237     2.9094    79.3108 </r>
       <r>     1.1738     2.5555    79.9500 </r>
       <r>     1.4239     3.6715    80.8683 </r>
       <r>     1.6740     2.5421    81.5041 </r>
       <r>     1.9241     3.4216    82.3599 </r>
       <r>     2.1743     2.8964    83.0843 </r>
       <r>     2.4244     4.8236    84.2908 </r>
       <r>     2.6745     3.0765    85.0603 </r>
       <r>     2.9246     4.8175    86.2652 </r>
       <r>     3.1747     4.0140    87.2692 </r>
       <r>     3.4248     5.0027    88.5205 </r>
       <r>     3.6750     3.3985    89.3705 </r>
       <r>     3.9251     4.5685    90.5132 </r>
       <r>     4.1752     4.4781    91.6332 </r>
       <r>     4.4253     4.8661    92.8503 </r>
       <r>     4.6754     6.4282    94.4581 </r>
       <r>     4.9256     6.8378    96.1684 </r>
       <r>     5.1757     6.8101    97.8717 </r>
       <r>     5.4258     7.4568    99.7368 </r>
       <r>     5.6759     8.1867   101.7844 </r>
       <r>     5.9260    11.0004   104.5358 </r>
       <r>     6.1761    13.8290   107.9947 </r>
       <r>     6.4263    14.8580   111.7109 </r>
       <r>     6.6764    12.5328   114.8456 </r>
       <r>     6.9265    11.5510   117.7347 </r>
       <r>     7.1766     9.0301   119.9933 </r>
       <r>     7.4267    10.4438   122.6055 </r>
       <r>     7.6768    19.8810   127.5781 </r>
       <r>     7.9270    16.3296   131.6624 </r>
       <r>     8.1771    14.0606   135.1793 </r>
       <r>     8.4272    12.0709   138.1984 </r>
       <r>     8.6773    15.9342   142.1838 </r>
       <r>     8.9274    14.5530   145.8238 </r>
       <r>     9.1776    19.3625   150.6667 </r>
       <r>     9.4277    24.1096   156.6969 </r>
       <r>     9.6778    32.7954   164.8996 </r>
       <r>     9.9279    26.8694   171.6201 </r>
       <r>    10.1780    16.6381   175.7816 </r>
       <r>    10.4281    11.2754   178.6018 </r>
       <r>    10.6783     9.1237   180.8838 </r>
       <r>    10.9284    11.6205   183.7903 </r>
       <r>    11.1785    11.7494   186.7290 </r>
       <r>    11.4286    12.1499   189.7679 </r>
       <r>    11.6787     9.4331   192.1273 </r>
       <r>    11.9289     8.2750   194.1970 </r>
       <r>    12.1790     9.2577   196.5126 </r>
       <r>    12.4291    12.9592   199.7539 </r>
       <r>    12.6792     7.8124   201.7079 </r>
       <r>    12.9293     9.4144   204.0626 </r>
       <r>    13.1794    10.6594   206.7287 </r>
       <r>    13.4296    10.8394   209.4398 </r>
       <r>    13.6797    11.9475   212.4281 </r>
       <r>    13.9298     7.6853   214.3503 </r>
       <r>    14.1799    10.9526   217.0898 </r>
       <r>    14.4300    10.4475   219.7029 </r>
       <r>    14.6801     8.1937   221.7523 </r>
       <r>    14.9303     9.6631   224.1692 </r>
       <r>    15.1804     8.3116   226.2481 </r>
       <r>    15.4305    10.0103   228.7518 </r>
       <r>    15.6806     9.5530   231.1412 </r>
       <r>    15.9307    10.4312   233.7502 </r>
       <r>    16.1809    10.2206   236.3066 </r>
       <r>    16.4310     8.4140   238.4111 </r>
       <r>    16.6811    10.1163   240.9413 </r>
       <r>    16.9312     9.8642   243.4085 </r>
       <r>    17.1813     6.9994   245.1592 </r>
       <r>    17.4314     8.7437   247.3462 </r>
       <r>    17.6816     7.7713   249.2899 </r>
       <r>    17.9317     9.4295   251.6484 </r>
       <r>    18.1818     6.8611   253.3645 </r>
       <r>    18.4319     6.5836   255.0111 </r>
       <r>    18.6820     3.0608   255.7767 </r>
       <r>    18.9321     0.7990   255.9765 </r>
       <r>    19.1823     0.0759   255.9955 </r>
       <r>    19.4324     0.0183   256.0001 </r>
       <r>    19.6825    -0.0004   256.0000 </r>
       <r>    19.9326    -0.0000   256.0000 </r>
       <r>    20.1827     0.0000   256.0000 </r>
       <r>    20.4329     0.0000   256.0000 </r>
       <r>    20.6830     0.0000   256.0000 </r>
       <r>    20.9331     0.0000   256.0000 </r>
       <r>    21.1832     0.0000   256.0000 </r>
       <r>    21.4333     0.0000   256.0000 </r>
       <r>    21.6834     0.0000   256.0000 </r>
       <r>    21.9336     0.0000   256.0000 </r>
       <r>    22.1837     0.0000   256.0000 </r>
       <r>    22.4338     0.0000   256.0000 </r>
       <r>    22.6839     0.0000   256.0000 </r>
      </set>
     </set>
    </array>
   </total>
  </dos>
 </calculation>
 <structure name="finalpos" >
  <crystal>
   <varray name="basis" >
    <v>       5.85845550       0.00000000       0.00000000 </v>
    <v>       0.00000000       5.85845550       0.00000000 </v>
    <v>       0.00000000       0.00000000       8.30027397 </v>
   </varray>
   <i name="volume">    284.87786034 </i>
   <varray name="rec_basis" >
    <v>       0.17069345       0.00000000       0.00000000 </v>
    <v>       0.00000000       0.17069345       0.00000000 </v>
    <v>       0.00000000       0.00000000       0.12047795 </v>
   </varray>
  </crystal>
  <varray name="positions" >
   <v>       0.00000000       0.00000000       0.01867368 </v>
   <v>       0.00000000       0.00000000       0.48132632 </v>
   <v>       0.00000000       0.50000000       0.99550713 </v>
   <v>       0.00000000       0.50000000       0.50449287 </v>
   <v>       0.50000000       0.00000000       0.99550713 </v>
   <v>       0.50000000       0.00000000       0.50449287 </v>
   <v>       0.50000000       0.50000000       0.04638282 </v>
   <v>       0.50000000       0.50000000       0.45361718 </v>
   <v>       0.24268531       0.24268531       0.25000000 </v>
   <v>       0.21391683       0.21391683       0.75000000 </v>
   <v>       0.24268531       0.75731469       0.25000000 </v>
   <v>       0.21391683       0.78608317       0.75000000 </v>
   <v>       0.75731469       0.24268531       0.25000000 </v>
   <v>       0.78608317       0.21391683       0.75000000 </v>
   <v>       0.75731469       0.75731469       0.25000000 </v>
   <v>       0.78608317       0.78608317       0.75000000 </v>
   <v>       0.50000000       0.50000000       0.75000000 </v>
  </varray>
 </structure>
</modeling>
