   8   8   0   0
  0.4814702E+02  0.3993500E-09  0.4953900E-09  0.2127430E-08  0.5000000E-15
  1.000000000000000E-004
  CAR 
 unknown system                          
     12.43960812    -60.06928347  301      0.50190811      1.00000000
    -60.069  0.0000E+00  0.0000E+00
    -59.828  0.0000E+00  0.0000E+00
    -59.586  0.0000E+00  0.0000E+00
    -59.344  0.0000E+00  0.0000E+00
    -59.102  0.0000E+00  0.0000E+00
    -58.861  0.0000E+00  0.0000E+00
    -58.619  0.0000E+00  0.0000E+00
    -58.377  0.0000E+00  0.0000E+00
    -58.136  0.0000E+00  0.0000E+00
    -57.894  0.0000E+00  0.0000E+00
    -57.652 -0.5084E-32 -0.1229E-32
    -57.411 -0.3137E-16 -0.7582E-17
    -57.169 -0.1312E-05 -0.3172E-06
    -56.927 -0.2115E+00 -0.5112E-01
    -56.686  0.8511E+01  0.2006E+01
    -56.444  0.5129E+01  0.3246E+01
    -56.202  0.3241E+01  0.4029E+01
    -55.960  0.1677E+02  0.8082E+01
    -55.719 -0.3378E+00  0.8000E+01
    -55.477 -0.6929E-04  0.8000E+01
    -55.235  0.0000E+00  0.8000E+01
    -54.994  0.0000E+00  0.8000E+01
    -54.752  0.0000E+00  0.8000E+01
    -54.510  0.0000E+00  0.8000E+01
    -54.269  0.0000E+00  0.8000E+01
    -54.027  0.0000E+00  0.8000E+01
    -53.785  0.0000E+00  0.8000E+01
    -53.543  0.0000E+00  0.8000E+01
    -53.302  0.0000E+00  0.8000E+01
    -53.060  0.0000E+00  0.8000E+01
    -52.818  0.0000E+00  0.8000E+01
    -52.577  0.0000E+00  0.8000E+01
    -52.335  0.0000E+00  0.8000E+01
    -52.093  0.0000E+00  0.8000E+01
    -51.852  0.0000E+00  0.8000E+01
    -51.610  0.0000E+00  0.8000E+01
    -51.368  0.0000E+00  0.8000E+01
    -51.127  0.0000E+00  0.8000E+01
    -50.885  0.0000E+00  0.8000E+01
    -50.643  0.0000E+00  0.8000E+01
    -50.401  0.0000E+00  0.8000E+01
    -50.160  0.0000E+00  0.8000E+01
    -49.918  0.0000E+00  0.8000E+01
    -49.676  0.0000E+00  0.8000E+01
    -49.435  0.0000E+00  0.8000E+01
    -49.193  0.0000E+00  0.8000E+01
    -48.951  0.0000E+00  0.8000E+01
    -48.710  0.0000E+00  0.8000E+01
    -48.468  0.0000E+00  0.8000E+01
    -48.226  0.0000E+00  0.8000E+01
    -47.984  0.0000E+00  0.8000E+01
    -47.743  0.0000E+00  0.8000E+01
    -47.501  0.0000E+00  0.8000E+01
    -47.259  0.0000E+00  0.8000E+01
    -47.018  0.0000E+00  0.8000E+01
    -46.776  0.0000E+00  0.8000E+01
    -46.534  0.0000E+00  0.8000E+01
    -46.293  0.0000E+00  0.8000E+01
    -46.051  0.0000E+00  0.8000E+01
    -45.809  0.0000E+00  0.8000E+01
    -45.568  0.0000E+00  0.8000E+01
    -45.326  0.0000E+00  0.8000E+01
    -45.084  0.0000E+00  0.8000E+01
    -44.842  0.0000E+00  0.8000E+01
    -44.601  0.0000E+00  0.8000E+01
    -44.359  0.0000E+00  0.8000E+01
    -44.117  0.0000E+00  0.8000E+01
    -43.876  0.0000E+00  0.8000E+01
    -43.634  0.0000E+00  0.8000E+01
    -43.392  0.0000E+00  0.8000E+01
    -43.151  0.0000E+00  0.8000E+01
    -42.909  0.0000E+00  0.8000E+01
    -42.667  0.0000E+00  0.8000E+01
    -42.425  0.0000E+00  0.8000E+01
    -42.184  0.0000E+00  0.8000E+01
    -41.942  0.0000E+00  0.8000E+01
    -41.700  0.0000E+00  0.8000E+01
    -41.459  0.0000E+00  0.8000E+01
    -41.217  0.0000E+00  0.8000E+01
    -40.975  0.0000E+00  0.8000E+01
    -40.734  0.0000E+00  0.8000E+01
    -40.492  0.0000E+00  0.8000E+01
    -40.250  0.0000E+00  0.8000E+01
    -40.008  0.0000E+00  0.8000E+01
    -39.767  0.0000E+00  0.8000E+01
    -39.525  0.0000E+00  0.8000E+01
    -39.283  0.0000E+00  0.8000E+01
    -39.042  0.0000E+00  0.8000E+01
    -38.800  0.0000E+00  0.8000E+01
    -38.558  0.0000E+00  0.8000E+01
    -38.317  0.0000E+00  0.8000E+01
    -38.075  0.0000E+00  0.8000E+01
    -37.833  0.0000E+00  0.8000E+01
    -37.592  0.0000E+00  0.8000E+01
    -37.350  0.0000E+00  0.8000E+01
    -37.108  0.0000E+00  0.8000E+01
    -36.866  0.0000E+00  0.8000E+01
    -36.625  0.0000E+00  0.8000E+01
    -36.383  0.0000E+00  0.8000E+01
    -36.141  0.0000E+00  0.8000E+01
    -35.900  0.0000E+00  0.8000E+01
    -35.658  0.0000E+00  0.8000E+01
    -35.416  0.0000E+00  0.8000E+01
    -35.175  0.0000E+00  0.8000E+01
    -34.933  0.0000E+00  0.8000E+01
    -34.691  0.0000E+00  0.8000E+01
    -34.449  0.0000E+00  0.8000E+01
    -34.208 -0.2269E-42  0.8000E+01
    -33.966 -0.6822E-24  0.8000E+01
    -33.724 -0.1502E-10  0.8000E+01
    -33.483 -0.2078E-02  0.7999E+01
    -33.241  0.1543E+01  0.8372E+01
    -32.999  0.1249E+02  0.1139E+02
    -32.758  0.2098E+02  0.1646E+02
    -32.516  0.1958E+02  0.2120E+02
    -32.274  0.2870E+02  0.2813E+02
    -32.033  0.1647E+02  0.3211E+02
    -31.791 -0.4656E+00  0.3200E+02
    -31.549 -0.7098E-05  0.3200E+02
    -31.307  0.0000E+00  0.3200E+02
    -31.066  0.0000E+00  0.3200E+02
    -30.824  0.0000E+00  0.3200E+02
    -30.582  0.0000E+00  0.3200E+02
    -30.341  0.0000E+00  0.3200E+02
    -30.099  0.0000E+00  0.3200E+02
    -29.857  0.0000E+00  0.3200E+02
    -29.616  0.0000E+00  0.3200E+02
    -29.374  0.0000E+00  0.3200E+02
    -29.132  0.0000E+00  0.3200E+02
    -28.890  0.0000E+00  0.3200E+02
    -28.649  0.0000E+00  0.3200E+02
    -28.407  0.0000E+00  0.3200E+02
    -28.165  0.0000E+00  0.3200E+02
    -27.924  0.0000E+00  0.3200E+02
    -27.682  0.0000E+00  0.3200E+02
    -27.440  0.0000E+00  0.3200E+02
    -27.199  0.0000E+00  0.3200E+02
    -26.957  0.0000E+00  0.3200E+02
    -26.715  0.0000E+00  0.3200E+02
    -26.473  0.0000E+00  0.3200E+02
    -26.232  0.0000E+00  0.3200E+02
    -25.990  0.0000E+00  0.3200E+02
    -25.748  0.0000E+00  0.3200E+02
    -25.507  0.0000E+00  0.3200E+02
    -25.265  0.0000E+00  0.3200E+02
    -25.023  0.0000E+00  0.3200E+02
    -24.782  0.0000E+00  0.3200E+02
    -24.540  0.0000E+00  0.3200E+02
    -24.298  0.0000E+00  0.3200E+02
    -24.057  0.0000E+00  0.3200E+02
    -23.815  0.0000E+00  0.3200E+02
    -23.573  0.0000E+00  0.3200E+02
    -23.331  0.0000E+00  0.3200E+02
    -23.090  0.0000E+00  0.3200E+02
    -22.848  0.0000E+00  0.3200E+02
    -22.606  0.0000E+00  0.3200E+02
    -22.365  0.0000E+00  0.3200E+02
    -22.123  0.0000E+00  0.3200E+02
    -21.881  0.0000E+00  0.3200E+02
    -21.640  0.0000E+00  0.3200E+02
    -21.398  0.0000E+00  0.3200E+02
    -21.156  0.0000E+00  0.3200E+02
    -20.914  0.0000E+00  0.3200E+02
    -20.673  0.0000E+00  0.3200E+02
    -20.431  0.0000E+00  0.3200E+02
    -20.189  0.0000E+00  0.3200E+02
    -19.948  0.0000E+00  0.3200E+02
    -19.706  0.0000E+00  0.3200E+02
    -19.464  0.0000E+00  0.3200E+02
    -19.223  0.0000E+00  0.3200E+02
    -18.981  0.0000E+00  0.3200E+02
    -18.739  0.0000E+00  0.3200E+02
    -18.498  0.0000E+00  0.3200E+02
    -18.256  0.0000E+00  0.3200E+02
    -18.014  0.0000E+00  0.3200E+02
    -17.772  0.0000E+00  0.3200E+02
    -17.531  0.0000E+00  0.3200E+02
    -17.289  0.0000E+00  0.3200E+02
    -17.047  0.0000E+00  0.3200E+02
    -16.806  0.0000E+00  0.3200E+02
    -16.564  0.0000E+00  0.3200E+02
    -16.322  0.0000E+00  0.3200E+02
    -16.081  0.0000E+00  0.3200E+02
    -15.839  0.0000E+00  0.3200E+02
    -15.597  0.0000E+00  0.3200E+02
    -15.355  0.0000E+00  0.3200E+02
    -15.114  0.0000E+00  0.3200E+02
    -14.872  0.0000E+00  0.3200E+02
    -14.630  0.0000E+00  0.3200E+02
    -14.389  0.0000E+00  0.3200E+02
    -14.147  0.0000E+00  0.3200E+02
    -13.905  0.0000E+00  0.3200E+02
    -13.664  0.0000E+00  0.3200E+02
    -13.422  0.0000E+00  0.3200E+02
    -13.180  0.0000E+00  0.3200E+02
    -12.939  0.0000E+00  0.3200E+02
    -12.697  0.0000E+00  0.3200E+02
    -12.455  0.0000E+00  0.3200E+02
    -12.213  0.0000E+00  0.3200E+02
    -11.972  0.0000E+00  0.3200E+02
    -11.730  0.0000E+00  0.3200E+02
    -11.488  0.0000E+00  0.3200E+02
    -11.247  0.0000E+00  0.3200E+02
    -11.005  0.0000E+00  0.3200E+02
    -10.763  0.0000E+00  0.3200E+02
    -10.522  0.0000E+00  0.3200E+02
    -10.280  0.0000E+00  0.3200E+02
    -10.038  0.0000E+00  0.3200E+02
     -9.796  0.0000E+00  0.3200E+02
     -9.555  0.0000E+00  0.3200E+02
     -9.313  0.0000E+00  0.3200E+02
     -9.071  0.0000E+00  0.3200E+02
     -8.830 -0.8293E-34  0.3200E+02
     -8.588 -0.5691E-18  0.3200E+02
     -8.346 -0.2651E-07  0.3200E+02
     -8.105 -0.4844E-02  0.3200E+02
     -7.863  0.1713E+00  0.3204E+02
     -7.621  0.1214E+01  0.3233E+02
     -7.379  0.1649E+00  0.3237E+02
     -7.138  0.1318E+01  0.3269E+02
     -6.896  0.8158E+00  0.3289E+02
     -6.654  0.1114E+01  0.3316E+02
     -6.413  0.6877E+00  0.3332E+02
     -6.171  0.1596E+01  0.3371E+02
     -5.929  0.1665E+01  0.3411E+02
     -5.688  0.2070E+01  0.3461E+02
     -5.446  0.2010E+01  0.3510E+02
     -5.204  0.1280E+01  0.3541E+02
     -4.963  0.6031E+00  0.3555E+02
     -4.721  0.1724E+01  0.3597E+02
     -4.479  0.2203E+01  0.3650E+02
     -4.237  0.1968E+01  0.3698E+02
     -3.996  0.1872E+01  0.3743E+02
     -3.754  0.4475E+01  0.3851E+02
     -3.512  0.2014E+01  0.3900E+02
     -3.271  0.1880E+01  0.3945E+02
     -3.029  0.4840E+00  0.3957E+02
     -2.787  0.2003E+01  0.4006E+02
     -2.546  0.3622E+01  0.4093E+02
     -2.304  0.1968E+01  0.4141E+02
     -2.062  0.3108E+01  0.4216E+02
     -1.820  0.4240E+01  0.4318E+02
     -1.579  0.4954E+01  0.4438E+02
     -1.337  0.5917E+01  0.4581E+02
     -1.095  0.4079E+01  0.4680E+02
     -0.854  0.7288E+01  0.4856E+02
     -0.612  0.8894E+01  0.5071E+02
     -0.370  0.5235E+01  0.5197E+02
     -0.129  0.8791E+01  0.5410E+02
      0.113  0.8127E+01  0.5606E+02
      0.355  0.1019E+02  0.5852E+02
      0.596  0.1088E+02  0.6115E+02
      0.838  0.8030E+01  0.6309E+02
      1.080  0.1205E+02  0.6601E+02
      1.322  0.1102E+02  0.6867E+02
      1.563  0.9037E+01  0.7086E+02
      1.805  0.9281E+01  0.7310E+02
      2.047  0.1085E+02  0.7572E+02
      2.288  0.1256E+02  0.7876E+02
      2.530  0.1282E+02  0.8185E+02
      2.772  0.6917E+01  0.8353E+02
      3.013  0.9197E+01  0.8575E+02
      3.255  0.1069E+02  0.8833E+02
      3.497  0.5427E+01  0.8964E+02
      3.739  0.3029E+01  0.9038E+02
      3.980  0.7183E+01  0.9211E+02
      4.222  0.4015E+01  0.9308E+02
      4.464  0.5568E+01  0.9443E+02
      4.705  0.7395E+01  0.9622E+02
      4.947  0.8494E+01  0.9827E+02
      5.189  0.5348E+01  0.9956E+02
      5.430  0.7223E+01  0.1013E+03
      5.672  0.6707E+01  0.1029E+03
      5.914  0.6687E+01  0.1045E+03
      6.156  0.7161E+01  0.1063E+03
      6.397  0.8857E+01  0.1084E+03
      6.639  0.7159E+01  0.1101E+03
      6.881  0.7812E+01  0.1120E+03
      7.122  0.7994E+01  0.1140E+03
      7.364  0.9091E+01  0.1162E+03
      7.606  0.9499E+01  0.1185E+03
      7.847  0.8835E+01  0.1206E+03
      8.089  0.6537E+01  0.1222E+03
      8.331  0.9493E+01  0.1245E+03
      8.572  0.7662E+01  0.1263E+03
      8.814  0.5148E+01  0.1276E+03
      9.056  0.1618E+01  0.1280E+03
      9.298  0.1823E+00  0.1280E+03
      9.539 -0.5108E-02  0.1280E+03
      9.781 -0.3318E-07  0.1280E+03
     10.023  0.0000E+00  0.1280E+03
     10.264  0.0000E+00  0.1280E+03
     10.506  0.0000E+00  0.1280E+03
     10.748  0.0000E+00  0.1280E+03
     10.989  0.0000E+00  0.1280E+03
     11.231  0.0000E+00  0.1280E+03
     11.473  0.0000E+00  0.1280E+03
     11.715  0.0000E+00  0.1280E+03
     11.956  0.0000E+00  0.1280E+03
     12.198  0.0000E+00  0.1280E+03
     12.440  0.0000E+00  0.1280E+03
