    8    8    1    1
  0.4814702E+02  0.3993500E-09  0.4953900E-09  0.2127430E-08  0.5000000E-15
  1.000000000000000E-004
  CAR 
 unknown system                          
     60     22     64
 
  0.1276756E-14  0.1276756E-14  0.1276756E-14  0.2380952E-01
      1        -56.773425   1.000000
      2        -56.460026   1.000000
      3        -56.137669   1.000000
      4        -56.053666   1.000000
      5        -33.200237   1.000000
      6        -33.016010   1.000000
      7        -32.919658   1.000000
      8        -32.821636   1.000000
      9        -32.708999   1.000000
     10        -32.690333   1.000000
     11        -32.531475   1.000000
     12        -32.432929   1.000000
     13        -32.405420   1.000000
     14        -32.384278   1.000000
     15        -32.204933   1.000000
     16        -32.184715   1.000000
     17         -7.947840   1.000000
     18         -6.371726   1.000000
     19         -4.353743   1.000000
     20         -2.233938   1.000000
     21         -1.787750   1.000000
     22         -1.519092   1.000000
     23         -1.343568   1.000000
     24         -1.138228   1.000000
     25         -0.828422   1.000000
     26         -0.576215   1.000000
     27         -0.329931   1.000000
     28         -0.094984   1.000000
     29          0.384210   1.035083
     30          0.504680   0.476552
     31          0.518664   0.360384
     32          0.768284  -0.000540
     33          1.255820  -0.000000
     34          1.279736  -0.000000
     35          1.694626  -0.000000
     36          1.887209  -0.000000
     37          2.170335  -0.000000
     38          2.262422  -0.000000
     39          2.422722  -0.000000
     40          2.641529   0.000000
     41          3.232554   0.000000
     42          3.433102   0.000000
     43          3.510023   0.000000
     44          3.525405   0.000000
     45          3.714578   0.000000
     46          3.863822   0.000000
     47          4.050238   0.000000
     48          4.300201   0.000000
     49          4.816335   0.000000
     50          4.892369   0.000000
     51          5.111821   0.000000
     52          5.161006   0.000000
     53          5.351252   0.000000
     54          5.659166   0.000000
     55          5.846941   0.000000
     56          5.869824   0.000000
     57          6.496513   0.000000
     58          6.786029   0.000000
     59          7.366311   0.000000
     60          7.394342   0.000000
     61          7.599869   0.000000
     62          7.759077   0.000000
     63          8.238411   0.000000
     64          8.475222   0.000000
 
  0.1428571E+00  0.1290634E-14  0.1276756E-14  0.4761905E-01
      1        -56.773129   1.000000
      2        -56.459472   1.000000
      3        -56.136136   1.000000
      4        -56.055650   1.000000
      5        -33.200478   1.000000
      6        -33.016957   1.000000
      7        -32.923468   1.000000
      8        -32.823707   1.000000
      9        -32.709389   1.000000
     10        -32.695203   1.000000
     11        -32.530711   1.000000
     12        -32.434574   1.000000
     13        -32.411660   1.000000
     14        -32.384845   1.000000
     15        -32.200718   1.000000
     16        -32.177507   1.000000
     17         -7.716424   1.000000
     18         -6.163046   1.000000
     19         -4.202613   1.000000
     20         -2.395153   1.000000
     21         -1.822516   1.000000
     22         -1.642905   1.000000
     23         -1.506170   1.000000
     24         -1.009661   1.000000
     25         -0.895615   1.000000
     26         -0.546265   1.000000
     27         -0.465997   1.000000
     28         -0.210284   1.000000
     29          0.144599   1.000003
     30          0.428744   0.970435
     31          0.673406  -0.017899
     32          0.905379  -0.000000
     33          1.047699  -0.000000
     34          1.406466  -0.000000
     35          1.563269  -0.000000
     36          1.950108  -0.000000
     37          2.092866  -0.000000
     38          2.281210  -0.000000
     39          2.503732   0.000000
     40          2.687996   0.000000
     41          2.965114   0.000000
     42          3.075366   0.000000
     43          3.196391   0.000000
     44          3.462965   0.000000
     45          3.782729   0.000000
     46          3.941889   0.000000
     47          4.066908   0.000000
     48          4.225379   0.000000
     49          4.606434   0.000000
     50          4.713161   0.000000
     51          4.882453   0.000000
     52          5.275250   0.000000
     53          5.431070   0.000000
     54          5.769895   0.000000
     55          6.251566   0.000000
     56          6.355320   0.000000
     57          6.703325   0.000000
     58          7.017784   0.000000
     59          7.318878   0.000000
     60          7.440215   0.000000
     61          7.552459   0.000000
     62          8.026876   0.000000
     63          8.137112   0.000000
     64          8.511676   0.000000
 
  0.2857143E+00  0.1304512E-14  0.1276756E-14  0.4761905E-01
      1        -56.772464   1.000000
      2        -56.458228   1.000000
      3        -56.132361   1.000000
      4        -56.060440   1.000000
      5        -33.201059   1.000000
      6        -33.019122   1.000000
      7        -32.931909   1.000000
      8        -32.828868   1.000000
      9        -32.710340   1.000000
     10        -32.705298   1.000000
     11        -32.528935   1.000000
     12        -32.439378   1.000000
     13        -32.419807   1.000000
     14        -32.390329   1.000000
     15        -32.188096   1.000000
     16        -32.165413   1.000000
     17         -7.043972   1.000000
     18         -5.566435   1.000000
     19         -3.854872   1.000000
     20         -3.361697   1.000000
     21         -2.081143   1.000000
     22         -1.752111   1.000000
     23         -1.410601   1.000000
     24         -1.194775   1.000000
     25         -0.873440   1.000000
     26         -0.696475   1.000000
     27         -0.249241   1.000000
     28         -0.208715   1.000000
     29          0.088999   1.000000
     30          0.273553   1.002882
     31          0.582696   0.007963
     32          0.816485  -0.000040
     33          0.953151  -0.000000
     34          1.271658  -0.000000
     35          1.474473  -0.000000
     36          1.700607  -0.000000
     37          1.861844  -0.000000
     38          2.198621  -0.000000
     39          2.369124  -0.000000
     40          2.457582  -0.000000
     41          2.640846   0.000000
     42          2.811423   0.000000
     43          2.992080   0.000000
     44          3.212604   0.000000
     45          3.457564   0.000000
     46          3.845702   0.000000
     47          4.231790   0.000000
     48          4.501427   0.000000
     49          4.697139   0.000000
     50          4.829906   0.000000
     51          4.988938   0.000000
     52          5.398153   0.000000
     53          5.731656   0.000000
     54          5.890664   0.000000
     55          6.215270   0.000000
     56          6.249656   0.000000
     57          6.927223   0.000000
     58          7.179463   0.000000
     59          7.304158   0.000000
     60          7.710331   0.000000
     61          8.099039   0.000000
     62          8.176743   0.000000
     63          8.548384   0.000000
     64          8.813682   0.000000
 
  0.4285714E+00  0.1332268E-14  0.1276756E-14  0.4761905E-01
      1        -56.771930   1.000000
      2        -56.457228   1.000000
      3        -56.128903   1.000000
      4        -56.064710   1.000000
      5        -33.201557   1.000000
      6        -33.020851   1.000000
      7        -32.938786   1.000000
      8        -32.832995   1.000000
      9        -32.713828   1.000000
     10        -32.710440   1.000000
     11        -32.527417   1.000000
     12        -32.443337   1.000000
     13        -32.420944   1.000000
     14        -32.399438   1.000000
     15        -32.173933   1.000000
     16        -32.160462   1.000000
     17         -6.000084   1.000000
     18         -4.725236   1.000000
     19         -4.688777   1.000000
     20         -3.792505   1.000000
     21         -2.605371   1.000000
     22         -1.580384   1.000000
     23         -1.469041   1.000000
     24         -1.202850   1.000000
     25         -0.931505   1.000000
     26         -0.755753   1.000000
     27         -0.355560   1.000000
     28         -0.078218   1.000000
     29          0.215693   1.000198
     30          0.403928   1.022902
     31          0.519361   0.354768
     32          0.734376  -0.002444
     33          0.833719  -0.000014
     34          1.104275  -0.000000
     35          1.327657  -0.000000
     36          1.500024  -0.000000
     37          1.779442  -0.000000
     38          2.021204  -0.000000
     39          2.096540  -0.000000
     40          2.270898  -0.000000
     41          2.393791  -0.000000
     42          2.473015  -0.000000
     43          2.934218   0.000000
     44          2.979056   0.000000
     45          3.188298   0.000000
     46          3.882902   0.000000
     47          4.429685   0.000000
     48          4.526615   0.000000
     49          4.664071   0.000000
     50          5.094674   0.000000
     51          5.355238   0.000000
     52          5.618614   0.000000
     53          6.049979   0.000000
     54          6.157106   0.000000
     55          6.404516   0.000000
     56          6.529080   0.000000
     57          6.805018   0.000000
     58          7.302526   0.000000
     59          7.378800   0.000000
     60          7.644567   0.000000
     61          7.848830   0.000000
     62          8.142137   0.000000
     63          8.437016   0.000000
     64          8.660531   0.000000
 
  0.1276756E-14  0.1666667E+00  0.1276756E-14  0.4761905E-01
      1        -56.773413   1.000000
      2        -56.460005   1.000000
      3        -56.137627   1.000000
      4        -56.053700   1.000000
      5        -33.200362   1.000000
      6        -33.016308   1.000000
      7        -32.919728   1.000000
      8        -32.821707   1.000000
      9        -32.709901   1.000000
     10        -32.690455   1.000000
     11        -32.532318   1.000000
     12        -32.432337   1.000000
     13        -32.405494   1.000000
     14        -32.384390   1.000000
     15        -32.204845   1.000000
     16        -32.184584   1.000000
     17         -7.753347   1.000000
     18         -6.217863   1.000000
     19         -4.293218   1.000000
     20         -2.659221   1.000000
     21         -2.200725   1.000000
     22         -1.722151   1.000000
     23         -1.178304   1.000000
     24         -1.083619   1.000000
     25         -0.675641   1.000000
     26         -0.448778   1.000000
     27         -0.232109   1.000000
     28         -0.026480   1.000000
     29          0.157474   1.000006
     30          0.529640   0.275017
     31          0.668300  -0.020145
     32          0.848283  -0.000006
     33          1.203035  -0.000000
     34          1.284285  -0.000000
     35          1.566123  -0.000000
     36          1.855544  -0.000000
     37          1.938002  -0.000000
     38          2.195911  -0.000000
     39          2.209926  -0.000000
     40          2.560135   0.000000
     41          2.667132   0.000000
     42          3.084577   0.000000
     43          3.185261   0.000000
     44          3.311728   0.000000
     45          3.812582   0.000000
     46          3.915867   0.000000
     47          3.963164   0.000000
     48          4.294530   0.000000
     49          4.732472   0.000000
     50          4.757354   0.000000
     51          5.168518   0.000000
     52          5.454811   0.000000
     53          5.865111   0.000000
     54          5.978087   0.000000
     55          6.255820   0.000000
     56          6.724503   0.000000
     57          6.995017   0.000000
     58          7.057649   0.000000
     59          7.419194   0.000000
     60          7.460270   0.000000
     61          7.722498   0.000000
     62          7.955377   0.000000
     63          8.198183   0.000000
     64          8.705391   0.000000
 
  0.1428571E+00  0.1666667E+00  0.1276756E-14  0.4761905E-01
      1        -56.773112   1.000000
      2        -56.459442   1.000000
      3        -56.136070   1.000000
      4        -56.055705   1.000000
      5        -33.200663   1.000000
      6        -33.017415   1.000000
      7        -32.923582   1.000000
      8        -32.823801   1.000000
      9        -32.710742   1.000000
     10        -32.695403   1.000000
     11        -32.531999   1.000000
     12        -32.433746   1.000000
     13        -32.411694   1.000000
     14        -32.384997   1.000000
     15        -32.200583   1.000000
     16        -32.177336   1.000000
     17         -7.373246   1.000000
     18         -5.910248   1.000000
     19         -4.147457   1.000000
     20         -2.854629   1.000000
     21         -2.546564   1.000000
     22         -1.729863   1.000000
     23         -1.420828   1.000000
     24         -1.065553   1.000000
     25         -0.773269   1.000000
     26         -0.480612   1.000000
     27         -0.264697   1.000000
     28         -0.048639   1.000000
     29          0.171142   1.000015
     30          0.406010   1.020330
     31          0.800254  -0.000102
     32          0.840341  -0.000009
     33          1.078284  -0.000000
     34          1.237519  -0.000000
     35          1.378976  -0.000000
     36          1.581730  -0.000000
     37          1.859283  -0.000000
     38          2.012744  -0.000000
     39          2.226122  -0.000000
     40          2.283414  -0.000000
     41          2.499986  -0.000000
     42          2.826092   0.000000
     43          3.078510   0.000000
     44          3.187126   0.000000
     45          3.440190   0.000000
     46          3.829618   0.000000
     47          4.235732   0.000000
     48          4.518264   0.000000
     49          4.728527   0.000000
     50          4.917690   0.000000
     51          5.354613   0.000000
     52          5.944744   0.000000
     53          6.003892   0.000000
     54          6.339493   0.000000
     55          6.570074   0.000000
     56          6.861645   0.000000
     57          7.147364   0.000000
     58          7.274625   0.000000
     59          7.397717   0.000000
     60          7.615631   0.000000
     61          7.741371   0.000000
     62          8.198726   0.000000
     63          8.372975   0.000000
     64          8.590390   0.000000
 
  0.2857143E+00  0.1666667E+00  0.1276756E-14  0.4761905E-01
      1        -56.772451   1.000000
      2        -56.458204   1.000000
      3        -56.132302   1.000000
      4        -56.060492   1.000000
      5        -33.201202   1.000000
      6        -33.019515   1.000000
      7        -32.932018   1.000000
      8        -32.828930   1.000000
      9        -32.711448   1.000000
     10        -32.705504   1.000000
     11        -32.530064   1.000000
     12        -32.438828   1.000000
     13        -32.419659   1.000000
     14        -32.390392   1.000000
     15        -32.187983   1.000000
     16        -32.165284   1.000000
     17         -6.610151   1.000000
     18         -5.310389   1.000000
     19         -3.847315   1.000000
     20         -3.514062   1.000000
     21         -2.666807   1.000000
     22         -2.083472   1.000000
     23         -1.703506   1.000000
     24         -1.180377   1.000000
     25         -0.848478   1.000000
     26         -0.572507   1.000000
     27         -0.280717   1.000000
     28          0.011544   1.000000
     29          0.167025   1.000012
     30          0.380473   1.035441
     31          0.599499  -0.022443
     32          0.866754  -0.000002
     33          0.956806  -0.000000
     34          1.028164  -0.000000
     35          1.310415  -0.000000
     36          1.443690  -0.000000
     37          1.753530  -0.000000
     38          1.879303  -0.000000
     39          2.035841  -0.000000
     40          2.306635  -0.000000
     41          2.405471  -0.000000
     42          2.622876   0.000000
     43          2.867484   0.000000
     44          3.038616   0.000000
     45          3.232184   0.000000
     46          3.600161   0.000000
     47          4.321981   0.000000
     48          4.626698   0.000000
     49          5.093874   0.000000
     50          5.317775   0.000000
     51          5.543517   0.000000
     52          5.765072   0.000000
     53          6.067935   0.000000
     54          6.382918   0.000000
     55          6.728076   0.000000
     56          6.819559   0.000000
     57          7.280484   0.000000
     58          7.383788   0.000000
     59          7.517504   0.000000
     60          7.773367   0.000000
     61          8.265813   0.000000
     62          8.340378   0.000000
     63          8.463893   0.000000
     64          8.815744   0.000000
 
  0.4285714E+00  0.1666667E+00  0.1276756E-14  0.4761905E-01
      1        -56.771927   1.000000
      2        -56.457221   1.000000
      3        -56.128881   1.000000
      4        -56.064731   1.000000
      5        -33.201604   1.000000
      6        -33.020989   1.000000
      7        -32.938828   1.000000
      8        -32.833015   1.000000
      9        -32.713847   1.000000
     10        -32.710882   1.000000
     11        -32.527827   1.000000
     12        -32.443159   1.000000
     13        -32.420883   1.000000
     14        -32.399426   1.000000
     15        -32.173896   1.000000
     16        -32.160422   1.000000
     17         -5.592356   1.000000
     18         -4.964889   1.000000
     19         -4.551488   1.000000
     20         -3.806562   1.000000
     21         -2.666865   1.000000
     22         -2.177800   1.000000
     23         -1.756431   1.000000
     24         -1.079690   1.000000
     25         -0.807730   1.000000
     26         -0.692668   1.000000
     27         -0.230534   1.000000
     28         -0.075856   1.000000
     29          0.270052   1.002506
     30          0.497298   0.538967
     31          0.537635   0.217985
     32          0.547194   0.156881
     33          0.937889  -0.000000
     34          1.189993  -0.000000
     35          1.236061  -0.000000
     36          1.588684  -0.000000
     37          1.771043  -0.000000
     38          1.918402  -0.000000
     39          2.081310  -0.000000
     40          2.247163  -0.000000
     41          2.295280  -0.000000
     42          2.437002  -0.000000
     43          2.710181   0.000000
     44          2.818146   0.000000
     45          3.171019   0.000000
     46          3.520786   0.000000
     47          4.200241   0.000000
     48          4.658420   0.000000
     49          5.122499   0.000000
     50          5.224316   0.000000
     51          5.557945   0.000000
     52          5.985886   0.000000
     53          6.281835   0.000000
     54          6.492190   0.000000
     55          6.512473   0.000000
     56          6.823559   0.000000
     57          6.958568   0.000000
     58          7.136047   0.000000
     59          7.429896   0.000000
     60          7.725195   0.000000
     61          7.957530   0.000000
     62          8.179661   0.000000
     63          8.245959   0.000000
     64          8.444364   0.000000
 
 -0.4285714E+00  0.1666667E+00  0.1276756E-14  0.4761905E-01
      1        -56.771935   1.000000
      2        -56.457236   1.000000
      3        -56.128922   1.000000
      4        -56.064697   1.000000
      5        -33.201524   1.000000
      6        -33.020742   1.000000
      7        -32.938763   1.000000
      8        -32.832984   1.000000
      9        -32.713691   1.000000
     10        -32.710234   1.000000
     11        -32.527101   1.000000
     12        -32.443435   1.000000
     13        -32.421042   1.000000
     14        -32.399440   1.000000
     15        -32.173947   1.000000
     16        -32.160519   1.000000
     17         -6.233265   1.000000
     18         -4.820506   1.000000
     19         -4.477898   1.000000
     20         -3.779216   1.000000
     21         -2.469932   1.000000
     22         -1.812730   1.000000
     23         -1.592075   1.000000
     24         -1.006528   1.000000
     25         -0.804537   1.000000
     26         -0.616836   1.000000
     27         -0.335322   1.000000
     28         -0.009721   1.000000
     29          0.165310   1.000010
     30          0.281762   1.003954
     31          0.418961   0.997208
     32          0.796069  -0.000129
     33          0.969933  -0.000000
     34          1.101322  -0.000000
     35          1.396677  -0.000000
     36          1.705830  -0.000000
     37          1.897396  -0.000000
     38          2.113954  -0.000000
     39          2.291866  -0.000000
     40          2.349024  -0.000000
     41          2.392082  -0.000000
     42          2.615362   0.000000
     43          2.726798   0.000000
     44          3.093717   0.000000
     45          3.238353   0.000000
     46          3.534666   0.000000
     47          4.147142   0.000000
     48          4.501296   0.000000
     49          4.843120   0.000000
     50          4.968384   0.000000
     51          5.285003   0.000000
     52          5.429575   0.000000
     53          5.757783   0.000000
     54          5.902907   0.000000
     55          6.543909   0.000000
     56          6.669786   0.000000
     57          6.794632   0.000000
     58          6.965207   0.000000
     59          7.345405   0.000000
     60          7.538165   0.000000
     61          7.977197   0.000000
     62          8.074053   0.000000
     63          8.438131   0.000000
     64          8.614992   0.000000
 
 -0.2857143E+00  0.1666667E+00  0.1276756E-14  0.4761905E-01
      1        -56.772469   1.000000
      2        -56.458237   1.000000
      3        -56.132382   1.000000
      4        -56.060420   1.000000
      5        -33.201005   1.000000
      6        -33.018972   1.000000
      7        -32.931875   1.000000
      8        -32.828847   1.000000
      9        -32.709923   1.000000
     10        -32.705227   1.000000
     11        -32.528509   1.000000
     12        -32.439565   1.000000
     13        -32.419891   1.000000
     14        -32.390296   1.000000
     15        -32.188134   1.000000
     16        -32.165470   1.000000
     17         -7.170671   1.000000
     18         -5.659398   1.000000
     19         -3.872929   1.000000
     20         -3.296520   1.000000
     21         -1.983100   1.000000
     22         -1.531337   1.000000
     23         -1.378535   1.000000
     24         -1.141590   1.000000
     25         -0.915330   1.000000
     26         -0.694205   1.000000
     27         -0.432303   1.000000
     28         -0.168149   1.000000
     29          0.093528   1.000000
     30          0.264181   1.001969
     31          0.571605   0.041187
     32          0.832555  -0.000015
     33          1.001911  -0.000000
     34          1.347815  -0.000000
     35          1.609350  -0.000000
     36          1.734352  -0.000000
     37          2.084150  -0.000000
     38          2.311546  -0.000000
     39          2.449080  -0.000000
     40          2.632033   0.000000
     41          2.816664   0.000000
     42          2.932263   0.000000
     43          3.067564   0.000000
     44          3.239862   0.000000
     45          3.469663   0.000000
     46          3.767145   0.000000
     47          3.858967   0.000000
     48          4.357649   0.000000
     49          4.542160   0.000000
     50          4.676842   0.000000
     51          4.871025   0.000000
     52          5.241240   0.000000
     53          5.512494   0.000000
     54          5.732380   0.000000
     55          6.168715   0.000000
     56          6.308615   0.000000
     57          6.798470   0.000000
     58          7.053715   0.000000
     59          7.214353   0.000000
     60          7.695924   0.000000
     61          7.925983   0.000000
     62          8.200572   0.000000
     63          8.448824   0.000000
     64          8.612623   0.000000
 
 -0.1428571E+00  0.1666667E+00  0.1276756E-14  0.4761905E-01
      1        -56.773127   1.000000
      2        -56.459469   1.000000
      3        -56.136129   1.000000
      4        -56.055655   1.000000
      5        -33.200494   1.000000
      6        -33.016995   1.000000
      7        -32.923480   1.000000
      8        -32.823716   1.000000
      9        -32.709516   1.000000
     10        -32.695213   1.000000
     11        -32.530824   1.000000
     12        -32.434487   1.000000
     13        -32.411684   1.000000
     14        -32.384845   1.000000
     15        -32.200701   1.000000
     16        -32.177496   1.000000
     17         -7.688998   1.000000
     18         -6.141341   1.000000
     19         -4.193743   1.000000
     20         -2.431303   1.000000
     21         -1.905007   1.000000
     22         -1.638020   1.000000
     23         -1.524905   1.000000
     24         -1.019700   1.000000
     25         -0.860978   1.000000
     26         -0.514607   1.000000
     27         -0.468799   1.000000
     28         -0.195371   1.000000
     29          0.154070   1.000005
     30          0.411774   1.011628
     31          0.688752  -0.011943
     32          0.890988  -0.000000
     33          1.057915  -0.000000
     34          1.399477  -0.000000
     35          1.529833  -0.000000
     36          1.931268  -0.000000
     37          2.092168  -0.000000
     38          2.254016  -0.000000
     39          2.471284  -0.000000
     40          2.647314   0.000000
     41          2.862568   0.000000
     42          3.037209   0.000000
     43          3.191662   0.000000
     44          3.429480   0.000000
     45          3.748670   0.000000
     46          3.961635   0.000000
     47          4.086824   0.000000
     48          4.251345   0.000000
     49          4.633292   0.000000
     50          4.754034   0.000000
     51          4.927486   0.000000
     52          5.327145   0.000000
     53          5.478690   0.000000
     54          5.829737   0.000000
     55          6.305334   0.000000
     56          6.407597   0.000000
     57          6.709961   0.000000
     58          7.041963   0.000000
     59          7.316192   0.000000
     60          7.472882   0.000000
     61          7.602194   0.000000
     62          8.044029   0.000000
     63          8.145228   0.000000
     64          8.488098   0.000000
 
  0.1276756E-14  0.3333333E+00  0.1276756E-14  0.4761905E-01
      1        -56.773391   1.000000
      2        -56.459965   1.000000
      3        -56.137542   1.000000
      4        -56.053776   1.000000
      5        -33.200619   1.000000
      6        -33.016920   1.000000
      7        -32.919877   1.000000
      8        -32.821855   1.000000
      9        -32.711717   1.000000
     10        -32.690708   1.000000
     11        -32.533983   1.000000
     12        -32.431229   1.000000
     13        -32.405650   1.000000
     14        -32.384602   1.000000
     15        -32.204674   1.000000
     16        -32.184335   1.000000
     17         -7.226766   1.000000
     18         -5.896124   1.000000
     19         -4.354336   1.000000
     20         -3.430754   1.000000
     21         -2.789611   1.000000
     22         -1.917460   1.000000
     23         -1.086474   1.000000
     24         -0.704477   1.000000
     25         -0.601195   1.000000
     26         -0.311163   1.000000
     27         -0.076354   1.000000
     28          0.187025   1.000040
     29          0.199566   1.000082
     30          0.592226  -0.011943
     31          0.625316  -0.035445
     32          0.923392  -0.000000
     33          1.090282  -0.000000
     34          1.102501  -0.000000
     35          1.208738  -0.000000
     36          1.341944  -0.000000
     37          1.626029  -0.000000
     38          1.865699  -0.000000
     39          1.987777  -0.000000
     40          2.226550  -0.000000
     41          2.361684  -0.000000
     42          2.453613  -0.000000
     43          2.915141   0.000000
     44          3.228281   0.000000
     45          3.299617   0.000000
     46          3.811746   0.000000
     47          4.456617   0.000000
     48          4.671767   0.000000
     49          4.717262   0.000000
     50          5.169062   0.000000
     51          5.567272   0.000000
     52          5.882902   0.000000
     53          6.103756   0.000000
     54          6.231648   0.000000
     55          6.559599   0.000000
     56          6.802415   0.000000
     57          7.220205   0.000000
     58          7.482435   0.000000
     59          7.697600   0.000000
     60          7.738815   0.000000
     61          7.962806   0.000000
     62          8.431550   0.000000
     63          8.645964   0.000000
     64          8.907267   0.000000
 
  0.1428571E+00  0.3333333E+00  0.1276756E-14  0.4761905E-01
      1        -56.773094   1.000000
      2        -56.459409   1.000000
      3        -56.135999   1.000000
      4        -56.055769   1.000000
      5        -33.200864   1.000000
      6        -33.017913   1.000000
      7        -32.923714   1.000000
      8        -32.823905   1.000000
      9        -32.712214   1.000000
     10        -32.695627   1.000000
     11        -32.533374   1.000000
     12        -32.432869   1.000000
     13        -32.411760   1.000000
     14        -32.385144   1.000000
     15        -32.200436   1.000000