       N       E                     dE             d eps       ncg     rms          rms(c)
DAV:   1     0.206222784452E+03    0.20622E+03   -0.34016E+04  2816   0.825E+02
DAV:   2    -0.305299285558E+02   -0.23675E+03   -0.23661E+03  3072   0.136E+02
DAV:   3    -0.541508605833E+02   -0.23621E+02   -0.23609E+02  5120   0.460E+01
DAV:   4    -0.549172218559E+02   -0.76636E+00   -0.76633E+00  3328   0.801E+00
DAV:   5    -0.549362526546E+02   -0.19031E-01   -0.19031E-01  5120   0.122E+00    0.192E+01
DAV:   6    -0.640573553438E+02   -0.91211E+01   -0.31815E+02  5120   0.328E+01    0.416E+01
DAV:   7    -0.549971572418E+02    0.90602E+01   -0.46391E+02  5056   0.346E+01    0.256E+01
DAV:   8    -0.512451574079E+02    0.37520E+01   -0.18466E+02  5312   0.223E+01    0.189E+01
DAV:   9    -0.466835149044E+02    0.45616E+01   -0.46787E+01  5504   0.128E+01    0.960E+00
DAV:  10    -0.456029878519E+02    0.10805E+01   -0.12577E+01  5120   0.796E+00    0.674E+00
DAV:  11    -0.449712094513E+02    0.63178E+00   -0.36448E+00  5056   0.485E+00    0.327E+00
DAV:  12    -0.447857633638E+02    0.18545E+00   -0.91469E-01  5248   0.302E+00    0.160E+00
DAV:  13    -0.447658080520E+02    0.19955E-01   -0.48853E-01  5376   0.156E+00    0.147E+00
DAV:  14    -0.447711879829E+02   -0.53799E-02   -0.65384E-01  5440   0.133E+00    0.141E+00
DAV:  15    -0.447534763675E+02    0.17712E-01   -0.34976E-01  5440   0.118E+00    0.638E-01
DAV:  16    -0.447508368380E+02    0.26395E-02   -0.38742E-02  5312   0.467E-01    0.119E-01
DAV:  17    -0.447519920668E+02   -0.11552E-02   -0.15746E-03  4864   0.855E-02    0.689E-02
DAV:  18    -0.447532972872E+02   -0.13052E-02   -0.12293E-03  4224   0.687E-02    0.550E-02
DAV:  19    -0.447538457867E+02   -0.54850E-03   -0.41411E-04  3840   0.480E-02    0.251E-02
DAV:  20    -0.447540819862E+02   -0.23620E-03   -0.15455E-04  3968   0.332E-02    0.118E-02
DAV:  21    -0.447541692752E+02   -0.87289E-04   -0.61812E-05  3520   0.202E-02    0.103E-02
DAV:  22    -0.447542509596E+02   -0.81684E-04   -0.84877E-06  4800   0.658E-03    0.487E-03
DAV:  23    -0.447543713375E+02   -0.12038E-03   -0.17745E-05  4480   0.650E-03    0.370E-03
DAV:  24    -0.447544375235E+02   -0.66186E-04   -0.11305E-05  4160   0.437E-03    0.137E-03
DAV:  25    -0.447544730935E+02   -0.35570E-04   -0.31460E-06  3968   0.233E-03    0.121E-03
DAV:  26    -0.447544848143E+02   -0.11721E-04   -0.90823E-07  3904   0.128E-03    0.300E-04
DAV:  27    -0.447544878179E+02   -0.30037E-05   -0.19105E-07  4160   0.511E-04
   1 F= -.44754488E+02 E0= -.44753203E+02  d E =-.385543E-02
