 vasp.6.5.0 16Dec24 (build Apr 17 2025 17:55:45) complex                        
  
 executed on             LinuxIFC date 2025.07.14  12:49:53
 running   64 mpi-ranks, on    1 nodes
 distrk:  each k-point on   64 cores,    1 groups
 distr:  one band on NCORE=   1 cores,   64 groups


--------------------------------------------------------------------------------------------------------


 INCAR:
   ISTART = 0
   ICHARG = 2
   PREC = N
   LREAL = .FALSE.
   ENCUT = 520
   ALGO = N
   NELM = 500
   EDIFF = 1E-05
   IBRION = -1
   ISIF = 3
   NSW = 0
   EDIFFG = -0.01
   ISMEAR = 1
   SIGMA = 0.1
   LVHAR = .TRUE.
   LVTOT = .TRUE.

 POTCAR:    PAW_PBE Ti_sv 26Sep2005               
 POTCAR:    PAW_PBE Al 04Jan2001                  
 -----------------------------------------------------------------------------
|                                                                             |
|           W    W    AA    RRRRR   N    N  II  N    N   GGGG   !!!           |
|           W    W   A  A   R    R  NN   N  II  NN   N  G    G  !!!           |
|           W    W  A    A  R    R  N N  N  II  N N  N  G       !!!           |
|           W WW W  AAAAAA  RRRRR   N  N N  II  N  N N  G  GGG   !            |
|           WW  WW  A    A  R   R   N   NN  II  N   NN  G    G                |
|           W    W  A    A  R    R  N    N  II  N    N   GGGG   !!!           |
|                                                                             |
|     For optimal performance we recommend to set                             |
|       NCORE = 2 up to number-of-cores-per-socket                            |
|     NCORE specifies how many cores store one orbital (NPAR=cpu/NCORE).      |
|     This setting can greatly improve the performance of VASP for DFT.       |
|     The default, NCORE=1 might be grossly inefficient on modern             |
|     multi-core architectures or massively parallel machines. Do your        |
|     own testing! More info at https://www.vasp.at/wiki/index.php/NCORE      |
|     Unfortunately you need to use the default for GW and RPA                |
|     calculations (for HF NCORE is supported but not extensively tested      |
|     yet).                                                                   |
|                                                                             |
 -----------------------------------------------------------------------------

 POTCAR:    PAW_PBE Ti_sv 26Sep2005               
   SHA256 =  4d747badb5a5ea28d858fbac70885b3f8929d6fd9e5b0dbe1ecb9878dc164da1 Ti_sv/POTCAR          
   COPYR  = (c) Copyright 26Sep2005 Georg Kresse                                                    
   COPYR  = This file is part of the software VASP. Any use, copying, and all other rights are regul
   COPYR  = If you do not have a valid VASP license, you may not use, copy or distribute this file. 
   VRHFIN =Ti: 3p4s3d                                                                               
   LEXCH  = PE                                                                                      
   EATOM  =  1588.0892 eV,  116.7213 Ry                                                             
                                                                                                    
   TITEL  = PAW_PBE Ti_sv 26Sep2005                                                                 
   LULTRA =        F    use ultrasoft PP ?                                                          
   IUNSCR =        1    unscreen: 0-lin 1-nonlin 2-no                                               
   RPACOR =    2.000    partial core radius                                                         
   POMASS =   47.880; ZVAL   =   12.000    mass and valenz                                          
   RCORE  =    2.300    outmost cutoff radius                                                       
   RWIGS  =    2.300; RWIGS  =    1.217    wigner-seitz radius (au A)                               
   ENMAX  =  274.610; ENMIN  =  205.957 eV                                                          
   ICORE  =        3    local potential                                                             
   LCOR   =        T    correct aug charges                                                         
   LPAW   =        T    paw PP                                                                      
   EAUG   =  482.848                                                                                
   RMAX   =    2.348    core radius for proj-oper                                                   
   RAUG   =    1.300    factor for augmentation sphere                                              
   RDEP   =    2.381    radius for radial grids                                                     
   RDEPT  =    1.930    core radius for aug-charge                                                  
                                                                                                    
   Atomic configuration                                                                             
    8 entries                                                                                       
     n  l   j            E        occ.                                                              
     1  0  0.50     -4865.3608   2.0000                                                             
     2  0  0.50      -533.1368   2.0000                                                             
     2  1  1.50      -440.5031   6.0000                                                             
     3  0  0.50       -59.3186   2.0000                                                             
     4  0  0.50        -3.7291   1.0000                                                             
     3  1  1.50       -35.7012   6.0000                                                             
     3  2  2.50        -1.9157   3.0000                                                             
     4  3  2.50        -1.3606   0.0000                                                             
   Description                                                                                      
     l       E           TYP  RCUT    TYP  RCUT                                                     
     0    -59.3185931     23  1.800                                                                 
     0     -3.7290822     23  2.300                                                                 
     1    -35.7012045     23  2.300                                                                 
     1     -1.3605826     23  2.300                                                                 
     2     -1.9156920     23  2.300                                                                 
     2     -0.0236318     23  2.300                                                                 
     3     -1.3605826     23  2.300                                                                 
  local pseudopotential read in
  partial core-charges read in
  partial kinetic energy density read in
  atomic valenz-charges read in
  non local Contribution for L=           0  read in
    real space projection operators read in
  non local Contribution for L=           0  read in
    real space projection operators read in
  non local Contribution for L=           1  read in
    real space projection operators read in
  non local Contribution for L=           1  read in
    real space projection operators read in
  non local Contribution for L=           2  read in
    real space projection operators read in
  non local Contribution for L=           2  read in
    real space projection operators read in
    PAW grid and wavefunctions read in
 
   number of l-projection  operators is LMAX  =           6
   number of lm-projection operators is LMMAX =          18
 
 POTCAR:    PAW_PBE Al 04Jan2001                  
   SHA256 =  17880443556af62b473fe41b62a467bd001ad55d2cabe504a3f22e34d4e9db96 Al/POTCAR             
   COPYR  = (c) Copyright 04Jan2001 Georg Kresse                                                    
   COPYR  = This file is part of the software VASP. Any use, copying, and all other rights are regul
   COPYR  = If you do not have a valid VASP license, you may not use, copy or distribute this file. 
   VRHFIN =Al: s2p1                                                                                 
   LEXCH  = PE                                                                                      
   EATOM  =    53.5387 eV,    3.9350 Ry                                                             
                                                                                                    
   TITEL  = PAW_PBE Al 04Jan2001                                                                    
   LULTRA =        F    use ultrasoft PP ?                                                          
   IUNSCR =        1    unscreen: 0-lin 1-nonlin 2-no                                               
   RPACOR =    1.500    partial core radius                                                         
   POMASS =   26.981; ZVAL   =    3.000    mass and valenz                                          
   RCORE  =    1.900    outmost cutoff radius                                                       
   RWIGS  =    2.650; RWIGS  =    1.402    wigner-seitz radius (au A)                               
   ENMAX  =  240.300; ENMIN  =  180.225 eV                                                          
   ICORE  =        2    local potential                                                             
   LCOR   =        T    correct aug charges                                                         
   LPAW   =        T    paw PP                                                                      
   EAUG   =  291.052                                                                                
   DEXC   =    0.000                                                                                
   RMAX   =    1.939    core radius for proj-oper                                                   
   RAUG   =    1.300    factor for augmentation sphere                                              
   RDEP   =    1.966    radius for radial grids                                                     
   RDEPT  =    1.856    core radius for aug-charge                                                  
                                                                                                    
   Atomic configuration                                                                             
    6 entries                                                                                       
     n  l   j            E        occ.                                                              
     1  0  0.50     -1511.1048   2.0000                                                             
     2  0  0.50      -108.1629   2.0000                                                             
     2  1  1.50       -69.6402   6.0000                                                             
     3  0  0.50        -7.7528   2.0000                                                             
     3  1  1.50        -2.7121   1.0000                                                             
     3  2  2.50        -2.7212   0.0000                                                             
   Description                                                                                      
     l       E           TYP  RCUT    TYP  RCUT                                                     
     0     -7.7528455     23  1.900                                                                 
     0     -3.3096929     23  1.900                                                                 
     1     -2.7120682     23  1.900                                                                 
     1     13.6058260     23  1.900                                                                 
     2     -2.7211652      7  1.900                                                                 
  local pseudopotential read in
  partial core-charges read in
  partial kinetic energy density read in
  atomic valenz-charges read in
  non local Contribution for L=           0  read in
    real space projection operators read in
  non local Contribution for L=           0  read in
    real space projection operators read in
  non local Contribution for L=           1  read in
    real space projection operators read in
  non local Contribution for L=           1  read in
    real space projection operators read in
    PAW grid and wavefunctions read in
 
   number of l-projection  operators is LMAX  =           4
   number of lm-projection operators is LMMAX =           8
 
  PAW_PBE Ti_sv 26Sep2005               :
 energy of atom  1       EATOM=-1588.0892
 kinetic energy error for atom=    0.0042 (will be added to EATOM!!)
  PAW_PBE Al 04Jan2001                  :
 energy of atom  2       EATOM=  -53.5387
 kinetic energy error for atom=    0.0002 (will be added to EATOM!!)
 
 
 POSCAR: 0000065828-primitive-cell\(1\1\1)
  positions in direct lattice
  No initial velocities read in


 exchange-correlation table for PE
   RHO(1)=    0.500       N(1)  =     2000
   RHO(2)=  100.500       N(2)  =     4000
 


--------------------------------------------------------------------------------------------------------


 ion  position               nearest neighbor table
   1  0.209  0.418  0.371-   2 2.82   2 2.82   7 2.85   6 2.85   5 2.85   6 2.85   5 2.85   5 2.85
                             6 2.85
   2  0.806  0.612  0.455-   1 2.82   1 2.82   3 2.82   3 2.82   5 2.85   7 2.85   6 2.85   6 2.85
                             6 2.85   7 2.85   7 2.85   8 2.85
   3  0.403  0.806  0.540-   4 2.82   4 2.82   2 2.82   2 2.82   8 2.85   8 2.85   7 2.85   8 2.85
                             7 2.85   7 2.85   6 2.85
   4  0.000  0.000  0.624-   3 2.82   3 2.82   8 2.85   8 2.85   8 2.85   7 2.85
   5  0.911  0.821  0.329-   6 2.82   6 2.82   2 2.85   1 2.85   1 2.85   1 2.85
   6  0.508  0.015  0.413-   5 2.82   7 2.82   7 2.82   5 2.82   1 2.85   2 2.85   1 2.85   2 2.85
                             2 2.85   1 2.85   3 2.85
   7  0.105  0.209  0.498-   6 2.82   6 2.82   8 2.82   8 2.82   1 2.85   2 2.85   2 2.85   2 2.85
                             3 2.85   3 2.85   3 2.85   4 2.85
   8  0.702  0.403  0.582-   7 2.82   7 2.82   3 2.85   4 2.85   3 2.85   4 2.85   4 2.85   3 2.85
                             2 2.85
 
  LATTYP: Found a base centered orthorhombic cell.
 ALAT       =     3.9934999943
 B/A-ratio  =     2.2705271971
 C/A-ratio  =     5.3272316644
  
  Lattice vectors:
  
 A1 = (   1.9967256301,  -4.5336751742,   0.0000000000)
 A2 = (   1.9967743642,   4.5336751742,   0.0000000000)
 A3 = (   0.0000000000,   0.0000000000,  21.2742996216)


Analysis of symmetry for initial positions (statically):
=====================================================================
 Subroutine PRICEL returns:
 Original cell was already a primitive cell.
 

 Routine SETGRP: Setting up the symmetry group for a 
 base centered orthorhombic supercell.


 Subroutine GETGRP returns: Found  1 space group operations
 (whereof  1 operations were pure point group operations)
 out of a pool of  8 trial point group operations.


The static configuration has the point symmetry C_1 .


Analysis of symmetry for dynamics (positions and initial velocities):
=====================================================================
 Subroutine PRICEL returns:
 Original cell was already a primitive cell.
 

 Routine SETGRP: Setting up the symmetry group for a 
 base centered orthorhombic supercell.


 Subroutine GETGRP returns: Found  1 space group operations
 (whereof  1 operations were pure point group operations)
 out of a pool of  8 trial point group operations.


The dynamic configuration has the point symmetry C_1 .


 Subroutine INISYM returns: Found  1 space group operations
 (whereof  1 operations are pure point group operations),
 and found     1 'primitive' translations


----------------------------------------------------------------------------------------

                                     Primitive cell                                     

  volume of cell :     385.1761

  direct lattice vectors                    reciprocal lattice vectors
     3.993499994  0.000000000  0.000000000     0.250406912  0.110284456  0.000000000
    -1.996725630  4.533675174  0.000000000     0.000000000  0.220571603  0.000000000
     0.000000000  0.000000000 21.274299622     0.000000000  0.000000000  0.047005073

  length of vectors
     3.993499994  4.953899860 21.274299622     0.273617036  0.220571603  0.047005073

  position of ions in fractional coordinates (direct lattice)
     0.209040001  0.418089986  0.371170014
     0.806029975  0.612060010  0.455430001
     0.403010011  0.806029975  0.539699972
     0.000000000  0.000000000  0.623960018
     0.910549998  0.821099997  0.329039991
     0.507539988  0.015070000  0.413300008
     0.104520001  0.209040001  0.497559994
     0.701510012  0.403010011  0.581830025

  ion indices of the primitive-cell ions
   primitive index   ion index
                 1           1
                 2           2
                 3           3
                 4           4
                 5           5
                 6           6
                 7           7
                 8           8

----------------------------------------------------------------------------------------

 
 
 KPOINTS: K-Spacing Value to Generate K-Mesh: 0.04

Automatic generation of k-mesh.
 Grid dimensions read from file:
 generate k-points for:    7    6    1

 Generating k-lattice:

  Cartesian coordinates                     Fractional coordinates (reciprocal lattice)
     0.035772416  0.015754922  0.000000000     0.142857143  0.000000000  0.000000000
     0.000000000  0.036761934  0.000000000     0.000000000  0.166666667  0.000000000
     0.000000000  0.000000000  0.047005073     0.000000000  0.000000000  1.000000000

  Length of vectors
     0.039088148  0.036761934  0.047005073

  Shift w.r.t. Gamma in fractional coordinates (k-lattice)
     0.000000000  0.000000000  0.000000000

 -----------------------------------------------------------------------------
|                                                                             |
|           W    W    AA    RRRRR   N    N  II  N    N   GGGG   !!!           |
|           W    W   A  A   R    R  NN   N  II  NN   N  G    G  !!!           |
|           W    W  A    A  R    R  N N  N  II  N N  N  G       !!!           |
|           W WW W  AAAAAA  RRRRR   N  N N  II  N  N N  G  GGG   !            |
|           WW  WW  A    A  R   R   N   NN  II  N   NN  G    G                |
|           W    W  A    A  R    R  N    N  II  N    N   GGGG   !!!           |
|                                                                             |
|     Your reciprocal lattice and k-lattice belong to different lattice       |
|     classes:                                                                |
|                                                                             |
|        The reciprocal lattice is base centered orthorhombic,                |
|        whereas your k-lattice is simple monoclinic.                         |
|                                                                             |
|     Results are often still useful ...                                      |
|                                                                             |
 -----------------------------------------------------------------------------

 WARNING: IBZKPT: internal override: KBLOWUP is changed to .FALSE.
      ... skipping the blow-up phase ...

 
 Subroutine IBZKPT returns following result:
 ===========================================
 
 Found     22 irreducible k-points:
 
 Following reciprocal coordinates:
            Coordinates               Weight
  0.000000  0.000000  0.000000      1.000000
  0.142857  0.000000  0.000000      2.000000
  0.285714  0.000000  0.000000      2.000000
  0.428571  0.000000  0.000000      2.000000
  0.000000  0.166667  0.000000      2.000000
  0.142857  0.166667  0.000000      2.000000
  0.285714  0.166667  0.000000      2.000000
  0.428571  0.166667  0.000000      2.000000
 -0.428571  0.166667  0.000000      2.000000
 -0.285714  0.166667  0.000000      2.000000
 -0.142857  0.166667  0.000000      2.000000
  0.000000  0.333333  0.000000      2.000000
  0.142857  0.333333  0.000000      2.000000
  0.285714  0.333333  0.000000      2.000000
  0.428571  0.333333  0.000000      2.000000
 -0.428571  0.333333  0.000000      2.000000
 -0.285714  0.333333  0.000000      2.000000
 -0.142857  0.333333  0.000000      2.000000
  0.000000  0.500000  0.000000      1.000000
  0.142857  0.500000  0.000000      2.000000
  0.285714  0.500000  0.000000      2.000000
  0.428571  0.500000  0.000000      2.000000
 
 Following cartesian coordinates:
            Coordinates               Weight
  0.000000  0.000000  0.000000      1.000000
  0.035772  0.015755  0.000000      2.000000
  0.071545  0.031510  0.000000      2.000000
  0.107317  0.047265  0.000000      2.000000
  0.000000  0.036762  0.000000      2.000000
  0.035772  0.052517  0.000000      2.000000
  0.071545  0.068272  0.000000      2.000000
  0.107317  0.084027  0.000000      2.000000
 -0.107317 -0.010503  0.000000      2.000000
 -0.071545  0.005252  0.000000      2.000000
 -0.035772  0.021007  0.000000      2.000000
  0.000000  0.073524  0.000000      2.000000
  0.035772  0.089279  0.000000      2.000000
  0.071545  0.105034  0.000000      2.000000
  0.107317  0.120789  0.000000      2.000000
 -0.107317  0.026259  0.000000      2.000000
 -0.071545  0.042014  0.000000      2.000000
 -0.035772  0.057769  0.000000      2.000000
  0.000000  0.110286  0.000000      1.000000
  0.035772  0.126041  0.000000      2.000000
  0.071545  0.141796  0.000000      2.000000
  0.107317  0.157551  0.000000      2.000000
 


--------------------------------------------------------------------------------------------------------




 Dimension of arrays:
   k-points           NKPTS =     22   k-points in BZ     NKDIM =     22   number of bands    NBANDS=     64
   number of dos      NEDOS =    301   number of ions     NIONS =      8
   non local maximal  LDIM  =      6   non local SUM 2l+1 LMDIM =     18
   total plane-waves  NPLWV =  80640
   max r-space proj   IRMAX =      1   max aug-charges    IRDMAX=   8347
   dimension x,y,z NGX =    24 NGY =   28 NGZ =  120
   dimension x,y,z NGXF=    48 NGYF=   56 NGZF=  240
   support grid    NGXF=    48 NGYF=   56 NGZF=  240
   ions per type =               4   4
   NGX,Y,Z   is equivalent  to a cutoff of   9.99,  9.40,  9.38 a.u.
   NGXF,Y,Z  is equivalent  to a cutoff of  19.98, 18.79, 18.75 a.u.

 SYSTEM =  unknown system                          
 POSCAR =  0000065828-primitive-cell\(1\1\1)       

 Startparameter for this run:
   NWRITE =      2    write-flag & timer
   PREC   = n         normal or accurate (medium, high low for compatibility)
   ISTART =      0    job   : 0-new  1-cont  2-samecut
   ICHARG =      2    charge: 1-file 2-atom 10-const
   ISPIN  =      1    spin polarized calculation?
   LNONCOLLINEAR =      F non collinear calculations
   LSORBIT =      F    spin-orbit coupling
   INIWAV =      1    electr: 0-lowe 1-rand  2-diag
   LASPH  =      F    aspherical Exc in radial PAW
 Electronic Relaxation 1
   ENCUT  =  520.0 eV  38.22 Ry    6.18 a.u.   7.43  9.21 39.56*2*pi/ulx,y,z
   ENINI  =  520.0     initial cutoff
   ENAUG  =  482.8 eV  augmentation charge cutoff
   NELM   =    500;   NELMIN=  2; NELMDL= -5     # of ELM steps 
   EDIFF  = 0.1E-04   stopping-criterion for ELM
   LREAL  =      F    real-space projection
   NLSPLINE    = F    spline interpolate recip. space projectors
   LCOMPAT=      F    compatible to vasp.4.4
   GGA_COMPAT  = T    GGA compatible to vasp.4.4-vasp.4.6
   LMAXPAW     = -100 max onsite density
   LMAXMIX     =    2 max onsite mixed and CHGCAR
   VOSKOWN=      0    Vosko Wilk Nusair interpolation
   ROPT   =    0.00000   0.00000
 Ionic relaxation
   EDIFFG = -.1E-01   stopping-criterion for IOM
   NSW    =      0    number of steps for IOM
   NBLOCK =      1;   KBLOCK =      1    inner block; outer block 
   IBRION =     -1    ionic relax: 0-MD 1-quasi-New 2-CG
   NFREE  =      0    steps in history (QN), initial steepest desc. (CG)
   ISIF   =      3    stress and relaxation
   IWAVPR =     10    prediction:  0-non 1-charg 2-wave 3-comb
   ISYM   =      2    0-nonsym 1-usesym 2-fastsym
   LCORR  =      T    Harris-Foulkes like correction to forces

   POTIM  = 0.5000    time-step for ionic-motion
   TEIN   =    0.0    initial temperature
   TEBEG  =    0.0;   TEEND  =   0.0 temperature during run
   SMASS  =  -3.00    Nose mass-parameter (am)
   estimated Nose-frequenzy (Omega)   =  0.10E-29 period in steps = 0.13E+47 mass=  -0.364E-27a.u.
   SCALEE = 1.0000    scale energy and forces
   NPACO  =    256;   APACO  = 10.0  distance and # of slots for P.C.
   PSTRESS=    0.0 pullay stress

  Mass of Ions in am
   POMASS =  47.88 26.98
  Ionic Valenz
   ZVAL   =  12.00  3.00
  Atomic Wigner-Seitz radii
   RWIGS  =  -1.00 -1.00
  virtual crystal weights 
   VCA    =   1.00  1.00
   NELECT =      60.0000    total number of electrons
   NUPDOWN=      -1.0000    fix difference up-down

 DOS related values:
   EMIN   =  10.00;   EMAX   =-10.00  energy-range for DOS
   EFERMI =   0.00;   METHOD = LEGACY      
   ISMEAR =     1;   SIGMA  =   0.10  broadening in eV -4-tet -1-fermi 0-gaus
   EFERMI_NEDOS =   21; number of points for ismear=-14 and -15

 Electronic relaxation 2 (details)
   IALGO  =     38    algorithm
   LDIAG  =      T    sub-space diagonalisation (order eigenvalues)
   LSUBROT=      F    optimize rotation matrix (better conditioning)
   TURBO    =      0    0=normal 1=particle mesh
   IRESTART =      0    0=no restart 2=restart with 2 vectors
   NREBOOT  =      0    no. of reboots
   NMIN     =      0    reboot dimension
   EREF     =   0.00    reference energy to select bands
   IMIX   =      4    mixing-type and parameters
     AMIX     =   0.40;   BMIX     =  1.00
     AMIX_MAG =   1.60;   BMIX_MAG =  1.00
     AMIN     =   0.10
     WC   =   100.;   INIMIX=   1;  MIXPRE=   1;  MAXMIX= -45

 Intra band minimization:
   WEIMIN = 0.0000     energy-eigenvalue tresh-hold
   EBREAK =  0.39E-07  absolut break condition
   DEPER  =   0.30     relativ break condition  

   TIME   =   0.40     timestep for ELM

  volume/ion in A,a.u.               =      48.15       324.91
  Fermi-wavevector in a.u.,A,eV,Ry     =   0.880857  1.664579 10.556886  0.775909
  Thomas-Fermi vector in A             =   2.001274
 
 Write flags
   LWAVE        =      T    write WAVECAR
   LDOWNSAMPLE  =      F    k-point downsampling of WAVECAR
   LCHARG       =      T    write CHGCAR
   LVTOT        =      F    write LOCPOT, total local potential
   LVHAR        =      T    write LOCPOT, Hartree potential only
   WRT_POTENTIAL=  hartree ionic  ! write potential to hdf5 file
   LELF         =      F    write electronic localiz. function (ELF)
   LORBIT       =      0    0 simple, 1 ext, 2 COOP (PROOUT), +10 PAW based schemes


 Python interface
   PLUGINS active      =      F    recompile with -DPLUGINS to activate
 
 Dipole corrections
   LMONO      =      F    monopole corrections only (constant potential shift)
   LDIPOL     =      F    correct potential (dipole corrections)
   IDIPOL     =      0    1-x, 2-y, 3-z, 4-all directions 
   EPSILON    =  1.0000000 bulk dielectric constant
   LVACPOTAV  =      F  vacuum potentials using an averaging scheme for the charge density
   VACPOTFLAT =  0.1000000 required flatness to determine vacuum potential
 
Coulomb truncation method
  LTRUNCATE          =      F  Coulomb kernel truncation to be used
  IDIMENSIONALITY    =      3  Dimensionality of cutoff (0 molecules / 2 surfaces)
  ISURFACE           =     -1  Direction of surface normal
  LCOARSEN           =      F  Coarsen the charge grid before padding, preferred

 
 Exchange correlation treatment:
   GGA     = PE    functional components
   XC_C    = 1    coefficients multiplying the functional components
   LIBXC   =     F    Libxc                    
   VOSKOWN =     0    Vosko Wilk Nusair interpolation
   LHFCALC =     F    Hartree Fock is set to
   LHFONE  =     F    Hartree Fock one center treatment
   AEXX    =    0.0000 exact exchange contribution

 Parameters of functionals:
   PE:
     No parameter
 
 Van der Waals corrections
   IVDW    =     0    specifies the selected vdW correction

 Linear response parameters
   LEPSILON=     F    determine dielectric tensor
   LRPA    =     F    only Hartree local field effects (RPA)
   LNABLA  =     F    use nabla operator in PAW spheres
   LVEL    =     F    velocity operator in full k-point grid
   CSHIFT  =0.1000    complex shift for real part using Kramers Kronig
   OMEGAMAX=  -1.0    maximum frequency
   DEG_THRESHOLD= 0.2000000E-02 threshold for treating states as degnerate
   RTIME   =   -0.100 relaxation time in fs
  (WPLASMAI=    0.000 imaginary part of plasma frequency in eV, 0.658/RTIME)
   DFIELD  = 0.0000000 0.0000000 0.0000000 field for delta impulse in time
 
  Optional k-point grid parameters
   LKPOINTS_OPT  =     F    use optional k-point grid
   KPOINTS_OPT_MODE=     1    mode for optional k-point grid
 
 Orbital magnetization related:
   ORBITALMAG=     F  switch on orbital magnetization
   LCHIMAG   =     F  perturbation theory with respect to B field
   DQ        =  0.001000  dq finite difference perturbation B field
   LLRAUG    =     F  two centre corrections for induced B field
   LBONE     =     F  B-component reconstruction in AE one-centre
   LVGVCALC  =     T  calculate vGv susceptibility
   LVGVAPPL  =     F  apply vGv susceptibility instead of pGv for G=0

 Random number generation:
   RANDOM_GENERATOR = DEFAULT
   PCG_SEED         = not used


--------------------------------------------------------------------------------------------------------


 Static calculation
 charge density and potential will be updated during run
 non-spin polarized calculation
 Variant of blocked Davidson
 Davidson routine will perform the subspace rotation
 perform sub-space diagonalisation
    after iterative eigenvector-optimisation
 modified Broyden-mixing scheme, WC =      100.0
 initial mixing is a Kerker type mixing with AMIX =  0.4000 and BMIX =      1.0000
 Hartree-type preconditioning will be used
 using additional bands           34
 reciprocal scheme for non local part
 use partial core corrections
 calculate Harris-corrections to forces 
   (improved forces if not selfconsistent)
 use gradient corrections 
 use of overlap-Matrix (Vanderbilt PP)
 Methfessel and Paxton  Order N= 1 SIGMA  =   0.10


--------------------------------------------------------------------------------------------------------


  energy-cutoff  :      520.00
  volume of cell :      385.18
      direct lattice vectors                 reciprocal lattice vectors
     3.993499994  0.000000000  0.000000000     0.250406912  0.110284456  0.000000000
    -1.996725630  4.533675174  0.000000000     0.000000000  0.220571603  0.000000000
     0.000000000  0.000000000 21.274299622     0.000000000  0.000000000  0.047005073

  length of vectors
     3.993499994  4.953899860 21.274299622     0.273617036  0.220571603  0.047005073


 
 k-points in units of 2pi/SCALE and weight: K-Spacing Value to Generate K-Mesh: 0.04
   0.00000000  0.00000000  0.00000000       0.024
   0.03577242  0.01575492  0.00000000       0.048
   0.07154483  0.03150984  0.00000000       0.048
   0.10731725  0.04726477  0.00000000       0.048
   0.00000000  0.03676193  0.00000000       0.048
   0.03577242  0.05251686  0.00000000       0.048
   0.07154483  0.06827178  0.00000000       0.048
   0.10731725  0.08402670  0.00000000       0.048
  -0.10731725 -0.01050283  0.00000000       0.048
  -0.07154483  0.00525209  0.00000000       0.048
  -0.03577242  0.02100701  0.00000000       0.048
   0.00000000  0.07352387  0.00000000       0.048
   0.03577242  0.08927879  0.00000000       0.048
   0.07154483  0.10503371  0.00000000       0.048
   0.10731725  0.12078863  0.00000000       0.048
  -0.10731725  0.02625910  0.00000000       0.048
  -0.07154483  0.04201402  0.00000000       0.048
  -0.03577242  0.05776895  0.00000000       0.048
   0.00000000  0.11028580  0.00000000       0.024
   0.03577242  0.12604072  0.00000000       0.048
   0.07154483  0.14179565  0.00000000       0.048
   0.10731725  0.15755057  0.00000000       0.048
 
 k-points in reciprocal lattice and weights: K-Spacing Value to Generate K-Mesh: 0.04
   0.00000000  0.00000000  0.00000000       0.024
   0.14285714  0.00000000  0.00000000       0.048
   0.28571429  0.00000000  0.00000000       0.048
   0.42857143  0.00000000  0.00000000       0.048
   0.00000000  0.16666667  0.00000000       0.048
   0.14285714  0.16666667  0.00000000       0.048
   0.28571429  0.16666667  0.00000000       0.048
   0.42857143  0.16666667  0.00000000       0.048
  -0.42857143  0.16666667  0.00000000       0.048
  -0.28571429  0.16666667  0.00000000       0.048
  -0.14285714  0.16666667  0.00000000       0.048
   0.00000000  0.33333333  0.00000000       0.048
   0.14285714  0.33333333  0.00000000       0.048
   0.28571429  0.33333333  0.00000000       0.048
   0.42857143  0.33333333  0.00000000       0.048
  -0.42857143  0.33333333  0.00000000       0.048
  -0.28571429  0.33333333  0.00000000       0.048
  -0.14285714  0.33333333  0.00000000       0.048
   0.00000000  0.50000000  0.00000000       0.024
   0.14285714  0.50000000  0.00000000       0.048
   0.28571429  0.50000000  0.00000000       0.048
   0.42857143  0.50000000  0.00000000       0.048
 
 position of ions in fractional coordinates (direct lattice) 
   0.20904000  0.41808999  0.37117001
   0.80602998  0.61206001  0.45543000
   0.40301001  0.80602998  0.53969997
   0.00000000  0.00000000  0.62396002
   0.91055000  0.82110000  0.32903999
   0.50753999  0.01507000  0.41330001
   0.10452000  0.20904000  0.49755999
   0.70151001  0.40301001  0.58183003
 
 position of ions in cartesian coordinates  (Angst):
  -0.00000975  1.89548419  7.89638209
   1.99676479  2.77488127  9.68895430
  -0.00000023  3.65427809 11.48173891
   0.00000000  0.00000000 13.27431237
   1.99677000  3.72260067  7.00009536
   1.99677028  0.06832248  8.79266820
   0.00000510  0.94771946 10.58524039
   1.99677981  1.82711648 12.37802628
 


--------------------------------------------------------------------------------------------------------


 k-point     1 :   0.0000 0.0000 0.0000  plane waves:   10401
 k-point     2 :   0.1429 0.0000 0.0000  plane waves:   10379
 k-point     3 :   0.2857 0.0000 0.0000  plane waves:   10384
 k-point     4 :   0.4286 0.0000 0.0000  plane waves:   10327
 k-point     5 :   0.0000 0.1667 0.0000  plane waves:   10387
 k-point     6 :   0.1429 0.1667 0.0000  plane waves:   10381
 k-point     7 :   0.2857 0.1667 0.0000  plane waves:   10383
 k-point     8 :   0.4286 0.1667 0.0000  plane waves:   10336
 k-point     9 :  -0.4286 0.1667 0.0000  plane waves:   10357
 k-point    10 :  -0.2857 0.1667 0.0000  plane waves:   10367
 k-point    11 :  -0.1429 0.1667 0.0000  plane waves:   10371
 k-point    12 :   0.0000 0.3333 0.0000  plane waves:   10407
 k-point    13 :   0.1429 0.3333 0.0000  plane waves:   10402
 k-point    14 :   0.2857 0.3333 0.0000  plane waves:   10363
 k-point    15 :   0.4286 0.3333 0.0000  plane waves:   10307
 k-point    16 :  -0.4286 0.3333 0.0000  plane waves:   10370
 k-point    17 :  -0.2857 0.3333 0.0000  plane waves:   10382
 k-point    18 :  -0.1429 0.3333 0.0000  plane waves:   10381
 k-point    19 :   0.0000 0.5000 0.0000  plane waves:   10416
 k-point    20 :   0.1429 0.5000 0.0000  plane waves:   10402
 k-point    21 :   0.2857 0.5000 0.0000  plane waves:   10366
 k-point    22 :   0.4286 0.5000 0.0000  plane waves:   10344

 maximum and minimum number of plane-waves per node :     10416    10307

 maximum number of plane-waves:     10416
 maximum index in each direction: 
   IXMAX=    7   IYMAX=    9   IZMAX=   39
   IXMIN=   -7   IYMIN=   -9   IZMIN=  -39


 serial   3D FFT for wavefunctions
 parallel 3D FFT for charge:
    minimum data exchange during FFTs selected (reduces bandwidth)


 total amount of memory used by VASP MPI-rank0   106039. kBytes
=======================================================================

   base                                    :      30000. kBytes
   nonl-proj                               :      67432. kBytes
   fftplans                                :        773. kBytes
   grid                                    :       3993. kBytes
   one-center                              :        124. kBytes
   wavefun                                 :       3717. kBytes
 
     INWAV:  cpu time      0.0000: real time      0.0000
 Broyden mixing: mesh for mixing (old mesh)
   NGX = 15   NGY = 19   NGZ = 79
  (NGX  = 48   NGY  = 56   NGZ  =240)
  gives a total of  22515 points

 initial charge density was supplied:
 charge density of overlapping atoms calculated
 number of electron      60.0000000 magnetization 
 keeping initial charge density in first step


--------------------------------------------------------------------------------------------------------


 Maximum index for augmentation-charges          429 (set IRDMAX)


--------------------------------------------------------------------------------------------------------


 First call to EWALD:  gamma=   0.244
 Maximum number of real-space cells   5x   4x   1
 Maximum number of reciprocal cells   2x   2x   7

    FEWALD:  cpu time      0.0010: real time      0.0010


--------------------------------------- Ionic step        1  -------------------------------------------




--------------------------------------- Iteration      1(   1)  ---------------------------------------


    POTLOK:  cpu time      0.0136: real time      0.0137
    SETDIJ:  cpu time      0.0017: real time      0.0017
     EDDAV:  cpu time      1.3708: real time      1.3712
       DOS:  cpu time      0.0008: real time      0.0008
    --------------------------------------------
      LOOP:  cpu time      1.3869: real time      1.3874

 eigenvalue-minimisations  :  2816
 total energy-change (2. order) : 0.2062228E+03  (-0.3401619E+04)
 number of electron      60.0000000 magnetization 
 augmentation part       60.0000000 magnetization 

 Free energy of the ion-electron system (eV)
  ---------------------------------------------------
  alpha Z        PSCENC =        50.92604651
  Ewald energy   TEWEN  =     10004.50904231
  -Hartree energ DENC   =    -15702.44817740
  -exchange      EXHF   =         0.00000000
  -V(xc)+E(xc)   XCENC  =       140.24336640
  PAW double counting   =      5323.06139147    -5116.90369196
  entropy T*S    EENTRO =        -0.00067739
  eigenvalues    EBANDS =     -1059.65829304
  atomic energy  EATOM  =      6566.49377757
  Solvation  Ediel_sol  =         0.00000000
  ---------------------------------------------------
  free energy    TOTEN  =       206.22278445 eV

  energy without entropy =      206.22346184  energy(sigma->0) =      206.22301025


--------------------------------------------------------------------------------------------------------




--------------------------------------- Iteration      1(   2)  ---------------------------------------


     EDDAV:  cpu time      1.5826: real time      1.5827
       DOS:  cpu time      0.0008: real time      0.0008
    --------------------------------------------
      LOOP:  cpu time      1.5834: real time      1.5835

 eigenvalue-minimisations  :  3072
 total energy-change (2. order) :-0.2367527E+03  (-0.2366057E+03)
 number of electron      60.0000000 magnetization 
 augmentation part       60.0000000 magnetization 

 Free energy of the ion-electron system (eV)
  ---------------------------------------------------
  alpha Z        PSCENC =        50.92604651
  Ewald energy   TEWEN  =     10004.50904231
  -Hartree energ DENC   =    -15702.44817740
  -exchange      EXHF   =         0.00000000
  -V(xc)+E(xc)   XCENC  =       140.24336640
  PAW double counting   =      5323.06139147    -5116.90369196
  entropy T*S    EENTRO =         0.00574212
  eigenvalues    EBANDS =     -1296.41742556
  atomic energy  EATOM  =      6566.49377757
  Solvation  Ediel_sol  =         0.00000000
  ---------------------------------------------------
  free energy    TOTEN  =       -30.52992856 eV

  energy without entropy =      -30.53567068  energy(sigma->0) =      -30.53184260


--------------------------------------------------------------------------------------------------------




--------------------------------------- Iteration      1(   3)  ---------------------------------------


     EDDAV:  cpu time      3.7488: real time      3.7493
       DOS:  cpu time      0.0007: real time      0.0007
    --------------------------------------------
      LOOP:  cpu time      3.7495: real time      3.7500

 eigenvalue-minimisations  :  5120
 total energy-change (2. order) :-0.2362093E+02  (-0.2360934E+02)
 number of electron      60.0000000 magnetization 
 augmentation part       60.0000000 magnetization 

 Free energy of the ion-electron system (eV)
  ---------------------------------------------------
  alpha Z        PSCENC =        50.92604651
  Ewald energy   TEWEN  =     10004.50904231
  -Hartree energ DENC   =    -15702.44817740
  -exchange      EXHF   =         0.00000000
  -V(xc)+E(xc)   XCENC  =       140.24336640
  PAW double counting   =      5323.06139147    -5116.90369196
  entropy T*S    EENTRO =         0.00035012
  eigenvalues    EBANDS =     -1320.03296559
  atomic energy  EATOM  =      6566.49377757
  Solvation  Ediel_sol  =         0.00000000
  ---------------------------------------------------
  free energy    TOTEN  =       -54.15086058 eV

  energy without entropy =      -54.15121071  energy(sigma->0) =      -54.15097729


--------------------------------------------------------------------------------------------------------




--------------------------------------- Iteration      1(   4)  ---------------------------------------


     EDDAV:  cpu time      1.8933: real time      1.8935
       DOS:  cpu time      0.0008: real time      0.0008
    --------------------------------------------
      LOOP:  cpu time      1.8941: real time      1.8943

 eigenvalue-minimisations  :  3328
 total energy-change (2. order) :-0.7663613E+00  (-0.7663263E+00)
 number of electron      60.0000000 magnetization 
 augmentation part       60.0000000 magnetization 

 Free energy of the ion-electron system (eV)
  ---------------------------------------------------
  alpha Z        PSCENC =        50.92604651
  Ewald energy   TEWEN  =     10004.50904231
  -Hartree energ DENC   =    -15702.44817740
  -exchange      EXHF   =         0.00000000
  -V(xc)+E(xc)   XCENC  =       140.24336640
  PAW double counting   =      5323.06139147    -5116.90369196
  entropy T*S    EENTRO =         0.00050046
  eigenvalues    EBANDS =     -1320.79947720
  atomic energy  EATOM  =      6566.49377757
  Solvation  Ediel_sol  =         0.00000000
  ---------------------------------------------------
  free energy    TOTEN  =       -54.91722186 eV

  energy without entropy =      -54.91772232  energy(sigma->0) =      -54.91738868


--------------------------------------------------------------------------------------------------------




--------------------------------------- Iteration      1(   5)  ---------------------------------------


     EDDAV:  cpu time      3.7387: real time      3.7389
       DOS:  cpu time      0.0008: real time      0.0007
    CHARGE:  cpu time      0.0269: real time      0.0270
    MIXING:  cpu time      0.0008: real time      0.0008
    --------------------------------------------
      LOOP:  cpu time      3.7672: real time      3.7674

 eigenvalue-minimisations  :  5120
 total energy-change (2. order) :-0.1903080E-01  (-0.1903072E-01)
 number of electron      59.9999994 magnetization 
 augmentation part       13.5178696 magnetization 

 Broyden mixing:
  rms(total) = 0.19168E+01    rms(broyden)= 0.19168E+01
  rms(prec ) = 0.22178E+01
  weight for this iteration     100.00

 Free energy of the ion-electron system (eV)
  ---------------------------------------------------
  alpha Z        PSCENC =        50.92604651
  Ewald energy   TEWEN  =     10004.50904231
  -Hartree energ DENC   =    -15702.44817740
  -exchange      EXHF   =         0.00000000
  -V(xc)+E(xc)   XCENC  =       140.24336640
  PAW double counting   =      5323.06139147    -5116.90369196
  entropy T*S    EENTRO =         0.00048715
  eigenvalues    EBANDS =     -1320.81849469
  atomic energy  EATOM  =      6566.49377757
  Solvation  Ediel_sol  =         0.00000000
  ---------------------------------------------------
  free energy    TOTEN  =       -54.93625265 eV

  energy without entropy =      -54.93673981  energy(sigma->0) =      -54.93641504


--------------------------------------------------------------------------------------------------------




--------------------------------------- Iteration      1(   6)  ---------------------------------------


    POTLOK:  cpu time      0.0131: real time      0.0131
    SETDIJ:  cpu time      0.0013: real time      0.0013
     EDDAV:  cpu time      3.6240: real time      3.6242
       DOS:  cpu time      0.0007: real time      0.0007
    CHARGE:  cpu time      0.0265: real time      0.0265
    MIXING:  cpu time      0.0010: real time      0.0010
    --------------------------------------------
      LOOP:  cpu time      3.6667: real time      3.6668

 eigenvalue-minimisations  :  5120
 total energy-change (2. order) :-0.9121103E+01  (-0.3181527E+02)
 number of electron      59.9999980 magnetization 
 augmentation part       17.1238966 magnetization 

 Broyden mixing:
  rms(total) = 0.41602E+01    rms(broyden)= 0.41602E+01
  rms(prec ) = 0.54515E+01
  weight for this iteration     100.00

 eigenvalues of (default mixing * dielectric matrix)
  average eigenvalue GAMMA=   0.2650
  0.2650

 Free energy of the ion-electron system (eV)
  ---------------------------------------------------
  alpha Z        PSCENC =        50.92604651
  Ewald energy   TEWEN  =     10004.50904231
  -Hartree energ DENC   =    -15630.07450217
  -exchange      EXHF   =         0.00000000
  -V(xc)+E(xc)   XCENC  =       134.64798392
  PAW double counting   =      5665.41783077    -5460.29990230
  entropy T*S    EENTRO =        -0.00279254
  eigenvalues    EBANDS =     -1395.67483942
  atomic energy  EATOM  =      6566.49377757
  Solvation  Ediel_sol  =         0.00000000
  ---------------------------------------------------
  free energy    TOTEN  =       -64.05735534 eV

  energy without entropy =      -64.05456281  energy(sigma->0) =      -64.05642450


--------------------------------------------------------------------------------------------------------




--------------------------------------- Iteration      1(   7)  ---------------------------------------


    POTLOK:  cpu time      0.0117: real time      0.0117
    SETDIJ:  cpu time      0.0013: real time      0.0013
     EDDAV:  cpu time      3.5499: real time      3.5503
       DOS:  cpu time      0.0004: real time      0.0004
    CHARGE:  cpu time      0.0234: real time      0.0234
    MIXING:  cpu time      0.0007: real time      0.0007
    --------------------------------------------
      LOOP:  cpu time      3.5874: real time      3.5877

 eigenvalue-minimisations  :  5056
 total energy-change (2. order) : 0.9060198E+01  (-0.4639114E+02)
 number of electron      59.9999987 magnetization 
 augmentation part       15.8956966 magnetization 

 Broyden mixing:
  rms(total) = 0.25638E+01    rms(broyden)= 0.25637E+01
  rms(prec ) = 0.36185E+01
  weight for this iteration     100.00

 eigenvalues of (default mixing * dielectric matrix)
  average eigenvalue GAMMA=   0.3054
  0.4414  0.1693

 Free energy of the ion-electron system (eV)
  ---------------------------------------------------
  alpha Z        PSCENC =        50.92604651
  Ewald energy   TEWEN  =     10004.50904231
  -Hartree energ DENC   =    -15650.21661902
  -exchange      EXHF   =         0.00000000
  -V(xc)+E(xc)   XCENC  =       136.16606973
  PAW double counting   =      5750.70456239    -5544.02589126
  entropy T*S    EENTRO =         0.00105710
  eigenvalues    EBANDS =     -1369.55520257
  atomic energy  EATOM  =      6566.49377757
  Solvation  Ediel_sol  =         0.00000000
  ---------------------------------------------------
  free energy    TOTEN  =       -54.99715724 eV

  energy without entropy =      -54.99821434  energy(sigma->0) =      -54.99750961


--------------------------------------------------------------------------------------------------------




--------------------------------------- Iteration      1(   8)  ---------------------------------------


    POTLOK:  cpu time      0.0138: real time      0.0138
    SETDIJ:  cpu time      0.0014: real time      0.0014
     EDDAV:  cpu time      3.8732: real time      3.8738
       DOS:  cpu time      0.0004: real time      0.0004
    CHARGE:  cpu time      0.0261: real time      0.0261
    MIXING:  cpu time      0.0007: real time      0.0007
    --------------------------------------------
      LOOP:  cpu time      3.9156: real time      3.9161

 eigenvalue-minimisations  :  5312
 total energy-change (2. order) : 0.3752000E+01  (-0.1846606E+02)
 number of electron      59.9999997 magnetization 
 augmentation part       15.2022965 magnetization 

 Broyden mixing:
  rms(total) = 0.18898E+01    rms(broyden)= 0.18898E+01
  rms(prec ) = 0.23719E+01
  weight for this iteration     100.00

 eigenvalues of (default mixing * dielectric matrix)
  average eigenvalue GAMMA=   0.3621
  0.7328  0.1768  0.1768

 Free energy of the ion-electron system (eV)
  ---------------------------------------------------
  alpha Z        PSCENC =        50.92604651
  Ewald energy   TEWEN  =     10004.50904231
  -Hartree energ DENC   =    -15674.24616515
  -exchange      EXHF   =         0.00000000
  -V(xc)+E(xc)   XCENC  =       137.12818472
  PAW double counting   =      5843.74044984    -5635.70567968
  entropy T*S    EENTRO =        -0.00018410
  eigenvalues    EBANDS =     -1344.09062943
  atomic energy  EATOM  =      6566.49377757
  Solvation  Ediel_sol  =         0.00000000
  ---------------------------------------------------
  free energy    TOTEN  =       -51.24515741 eV

  energy without entropy =      -51.24497331  energy(sigma->0) =      -51.24509604


--------------------------------------------------------------------------------------------------------




--------------------------------------- Iteration      1(   9)  ---------------------------------------


    POTLOK:  cpu time      0.0141: real time      0.0141
    SETDIJ:  cpu time      0.0013: real time      0.0013
     EDDAV:  cpu time      4.1180: real time      4.1183
       DOS:  cpu time      0.0007: real time      0.0007
    CHARGE:  cpu time      0.0270: real time      0.0270
    MIXING:  cpu time      0.0008: real time      0.0008
    --------------------------------------------
      LOOP:  cpu time      4.1619: real time      4.1622

 eigenvalue-minimisations  :  5504
 total energy-change (2. order) : 0.4561643E+01  (-0.4678667E+01)
 number of electron      59.9999994 magnetization 
 augmentation part       14.1429149 magnetization 

 Broyden mixing:
  rms(total) = 0.95972E+00    rms(broyden)= 0.95970E+00
  rms(prec ) = 0.12080E+01
  weight for this iteration     100.00

 eigenvalues of (default mixing * dielectric matrix)
  average eigenvalue GAMMA=   0.4393
  1.1007  0.2513  0.2513  0.1539

 Free energy of the ion-electron system (eV)
  ---------------------------------------------------
  alpha Z        PSCENC =        50.92604651
  Ewald energy   TEWEN  =     10004.50904231
  -Hartree energ DENC   =    -15715.28312693
  -exchange      EXHF   =         0.00000000
  -V(xc)+E(xc)   XCENC  =       137.77951197
  PAW double counting   =      5966.20993144    -5756.50464525
  entropy T*S    EENTRO =        -0.00801931
  eigenvalues    EBANDS =     -1300.80603321
  atomic energy  EATOM  =      6566.49377757
  Solvation  Ediel_sol  =         0.00000000
  ---------------------------------------------------
  free energy    TOTEN  =       -46.68351490 eV

  energy without entropy =      -46.67549560  energy(sigma->0) =      -46.68084180


--------------------------------------------------------------------------------------------------------




--------------------------------------- Iteration      1(  10)  ---------------------------------------


    POTLOK:  cpu time      0.0136: real time      0.0136
    SETDIJ:  cpu time      0.0013: real time      0.0013
     EDDAV:  cpu time      3.6636: real time      3.6638
       DOS:  cpu time      0.0007: real time      0.0007
    CHARGE:  cpu time      0.0268: real time      0.0268
    MIXING:  cpu time      0.0010: real time      0.0010
    --------------------------------------------
      LOOP:  cpu time      3.7070: real time      3.7073

 eigenvalue-minimisations  :  5120
 total energy-change (2. order) : 0.1080527E+01  (-0.1257700E+01)
 number of electron      59.9999994 magnetization 
 augmentation part       14.4324444 magnetization 

 Broyden mixing:
  rms(total) = 0.67430E+00    rms(broyden)= 0.67429E+00
  rms(prec ) = 0.78112E+00
  weight for this iteration     100.00

 eigenvalues of (default mixing * dielectric matrix)
  average eigenvalue GAMMA=   0.5056
  1.5247  0.3488  0.2900  0.2125  0.1520

 Free energy of the ion-electron system (eV)
  ---------------------------------------------------
  alpha Z        PSCENC =        50.92604651
  Ewald energy   TEWEN  =     10004.50904231
  -Hartree energ DENC   =    -15705.69846233
  -exchange      EXHF   =         0.00000000
  -V(xc)+E(xc)   XCENC  =       137.22803506
  PAW double counting   =      6071.18543205    -5860.13218065
  entropy T*S    EENTRO =         0.00198338
  eigenvalues    EBANDS =     -1310.11666174
  atomic energy  EATOM  =      6566.49377757
  Solvation  Ediel_sol  =         0.00000000
  ---------------------------------------------------
  free energy    TOTEN  =       -45.60298785 eV

  energy without entropy =      -45.60497123  energy(sigma->0) =      -45.60364898


--------------------------------------------------------------------------------------------------------




--------------------------------------- Iteration      1(  11)  ---------------------------------------


    POTLOK:  cpu time      0.0136: real time      0.0136
    SETDIJ:  cpu time      0.0013: real time      0.0013
     EDDAV:  cpu time      3.5558: real time      3.5562
       DOS:  cpu time      0.0004: real time      0.0004
    CHARGE:  cpu time      0.0236: real time      0.0236
    MIXING:  cpu time      0.0005: real time      0.0005
    --------------------------------------------
      LOOP:  cpu time      3.5951: real time      3.5955

 eigenvalue-minimisations  :  5056
 total energy-change (2. order) : 0.6317784E+00  (-0.3644822E+00)
 number of electron      59.9999993 magnetization 
 augmentation part       14.6862221 magnetization 

 Broyden mixing:
  rms(total) = 0.32695E+00    rms(broyden)= 0.32694E+00
  rms(prec ) = 0.38536E+00
  weight for this iteration     100.00

 eigenvalues of (default mixing * dielectric matrix)
  average eigenvalue GAMMA=   0.5892
  1.7549  0.7978  0.3766  0.2277  0.2277  0.1507

 Free energy of the ion-electron system (eV)
  ---------------------------------------------------
  alpha Z        PSCENC =        50.92604651
  Ewald energy   TEWEN  =     10004.50904231
  -Hartree energ DENC   =    -15696.50178370
  -exchange      EXHF   =         0.00000000
  -V(xc)+E(xc)   XCENC  =       136.76560362
  PAW double counting   =      6145.38241244    -5933.11314569
  entropy T*S    EENTRO =        -0.00343381
  eigenvalues    EBANDS =     -1319.42972868
  atomic energy  EATOM  =      6566.49377757
  Solvation  Ediel_sol  =         0.00000000
  ---------------------------------------------------
  free energy    TOTEN  =       -44.97120945 eV

  energy without entropy =      -44.96777564  energy(sigma->0) =      -44.97006485


--------------------------------------------------------------------------------------------------------




--------------------------------------- Iteration      1(  12)  ---------------------------------------


    POTLOK:  cpu time      0.0142: real time      0.0142
    SETDIJ:  cpu time      0.0013: real time      0.0013
     EDDAV:  cpu time      3.7850: real time      3.7853
       DOS:  cpu time      0.0008: real time      0.0008
    CHARGE:  cpu time      0.0263: real time      0.0263
    MIXING:  cpu time      0.0008: real time      0.0008
    --------------------------------------------
      LOOP:  cpu time      3.8285: real time      3.8287

 eigenvalue-minimisations  :  5248
 total energy-change (2. order) : 0.1854461E+00  (-0.9146913E-01)
 number of electron      59.9999993 magnetization 
 augmentation part       14.7799854 magnetization 

 Broyden mixing:
  rms(total) = 0.16001E+00    rms(broyden)= 0.16000E+00
  rms(prec ) = 0.18823E+00
  weight for this iteration     100.00

 eigenvalues of (default mixing * dielectric matrix)
  average eigenvalue GAMMA=   0.7153
  1.6589  1.6589  0.6978  0.3841  0.1514  0.2281  0.2281

 Free energy of the ion-electron system (eV)
  ---------------------------------------------------
  alpha Z        PSCENC =        50.92604651
  Ewald energy   TEWEN  =     10004.50904231
  -Hartree energ DENC   =    -15702.06706447
  -exchange      EXHF   =         0.00000000
  -V(xc)+E(xc)   XCENC  =       136.56536021
  PAW double counting   =      6236.70797250    -6022.24496500
  entropy T*S    EENTRO =        -0.00259212
  eigenvalues    EBANDS =     -1315.67334085
  atomic energy  EATOM  =      6566.49377757
  Solvation  Ediel_sol  =         0.00000000
  ---------------------------------------------------
  free energy    TOTEN  =       -44.78576336 eV

  energy without entropy =      -44.78317124  energy(sigma->0) =      -44.78489932


--------------------------------------------------------------------------------------------------------




--------------------------------------- Iteration      1(  13)  ---------------------------------------


    POTLOK:  cpu time      0.0131: real time      0.0131
    SETDIJ:  cpu time      0.0014: real time      0.0014
     EDDAV:  cpu time      3.9516: real time      3.9518
       DOS:  cpu time      0.0007: real time      0.0007
    CHARGE:  cpu time      0.0263: real time      0.0263
    MIXING:  cpu time      0.0011: real time      0.0011
    --------------------------------------------
      LOOP:  cpu time      3.9941: real time      3.9943

 eigenvalue-minimisations  :  5376
 total energy-change (2. order) : 0.1995531E-01  (-0.4885272E-01)
 number of electron      59.9999992 magnetization 
 augmentation part       14.8269847 magnetization 

 Broyden mixing:
  rms(total) = 0.14692E+00    rms(broyden)= 0.14691E+00
  rms(prec ) = 0.19456E+00
  weight for this iteration     100.00

 eigenvalues of (default mixing * dielectric matrix)
  average eigenvalue GAMMA=   0.8212
  1.9539  1.9539  1.0676  0.6136  0.3715  0.1515  0.2290  0.2290

 Free energy of the ion-electron system (eV)
  ---------------------------------------------------
  alpha Z        PSCENC =        50.92604651
  Ewald energy   TEWEN  =     10004.50904231
  -Hartree energ DENC   =    -15711.70999546
  -exchange      EXHF   =         0.00000000
  -V(xc)+E(xc)   XCENC  =       136.62524209
  PAW double counting   =      6297.51080003    -6080.23943614
  entropy T*S    EENTRO =        -0.00147602
  eigenvalues    EBANDS =     -1308.87980894
  atomic energy  EATOM  =      6566.49377757
  Solvation  Ediel_sol  =         0.00000000
  ---------------------------------------------------
  free energy    TOTEN  =       -44.76580805 eV

  energy without entropy =      -44.76433203  energy(sigma->0) =      -44.76531604


--------------------------------------------------------------------------------------------------------




--------------------------------------- Iteration      1(  14)  ---------------------------------------


    POTLOK:  cpu time      0.0133: real time      0.0133
    SETDIJ:  cpu time      0.0014: real time      0.0014
     EDDAV:  cpu time      4.0424: real time      4.0426
       DOS:  cpu time      0.0004: real time      0.0004
    CHARGE:  cpu time      0.0240: real time      0.0240
    MIXING:  cpu time      0.0011: real time      0.0011
    --------------------------------------------
      LOOP:  cpu time      4.0825: real time      4.0827

 eigenvalue-minimisations  :  5440
 total energy-change (2. order) :-0.5379931E-02  (-0.6538409E-01)
 number of electron      59.9999993 magnetization 
 augmentation part       14.7001923 magnetization 

 Broyden mixing:
  rms(total) = 0.14108E+00    rms(broyden)= 0.14108E+00
  rms(prec ) = 0.19350E+00
  weight for this iteration     100.00

 eigenvalues of (default mixing * dielectric matrix)
  average eigenvalue GAMMA=   0.8105
  2.3369  1.5429  0.9623  0.9623  0.5139  0.3663  0.1515  0.2293  0.2293

 Free energy of the ion-electron system (eV)
  ---------------------------------------------------
  alpha Z        PSCENC =        50.92604651
  Ewald energy   TEWEN  =     10004.50904231
  -Hartree energ DENC   =    -15719.36549861
  -exchange      EXHF   =         0.00000000
  -V(xc)+E(xc)   XCENC  =       136.82626902
  PAW double counting   =      6290.66816121    -6072.35502281
  entropy T*S    EENTRO =        -0.00377674
  eigenvalues    EBANDS =     -1302.47018644
  atomic energy  EATOM  =      6566.49377757
  Solvation  Ediel_sol  =         0.00000000
  ---------------------------------------------------
  free energy    TOTEN  =       -44.77118798 eV

  energy without entropy =      -44.76741125  energy(sigma->0) =      -44.76992907


--------------------------------------------------------------------------------------------------------




--------------------------------------- Iteration      1(  15)  ---------------------------------------


    POTLOK:  cpu time      0.0141: real time      0.0141
    SETDIJ:  cpu time      0.0013: real time      0.0013
     EDDAV:  cpu time      4.0316: real time      4.0319
       DOS:  cpu time      0.0004: real time      0.0004
    CHARGE:  cpu time      0.0239: real time      0.0239
    MIXING:  cpu time      0.0008: real time      0.0008
    --------------------------------------------
      LOOP:  cpu time      4.0720: real time      4.0723

 eigenvalue-minimisations  :  5440
 total energy-change (2. order) : 0.1771162E-01  (-0.3497650E-01)
 number of electron      59.9999992 magnetization 
 augmentation part       14.7777419 magnetization 

 Broyden mixing:
  rms(total) = 0.63759E-01    rms(broyden)= 0.63753E-01
  rms(prec ) = 0.77098E-01
  weight for this iteration     100.00

 eigenvalues of (default mixing * dielectric matrix)
  average eigenvalue GAMMA=   0.8670
  2.2008  2.2008  1.1844  0.9212  0.5948  0.5948  0.3630  0.1515  0.2293  0.2293

 Free energy of the ion-electron system (eV)
  ---------------------------------------------------
  alpha Z        PSCENC =        50.92604651
  Ewald energy   TEWEN  =     10004.50904231
  -Hartree energ DENC   =    -15721.49952612
  -exchange      EXHF   =         0.00000000
  -V(xc)+E(xc)   XCENC  =       136.78279294
  PAW double counting   =      6306.09424519    -6087.10806353
  entropy T*S    EENTRO =        -0.00294425
  eigenvalues    EBANDS =     -1300.94884698
  atomic energy  EATOM  =      6566.49377757
  Solvation  Ediel_sol  =         0.00000000
  ---------------------------------------------------
  free energy    TOTEN  =       -44.75347637 eV

  energy without entropy =      -44.75053211  energy(sigma->0) =      -44.75249495


--------------------------------------------------------------------------------------------------------




--------------------------------------- Iteration      1(  16)  ---------------------------------------


    POTLOK:  cpu time      0.0139: real time      0.0139
    SETDIJ:  cpu time      0.0013: real time      0.0013
     EDDAV:  cpu time      3.8611: real time      3.8614
       DOS:  cpu time      0.0004: real time      0.0004
    CHARGE:  cpu time      0.0241: real time      0.0241
    MIXING:  cpu time      0.0009: real time      0.0009
    --------------------------------------------
      LOOP:  cpu time      3.9016: real time      3.9019

 eigenvalue-minimisations  :  5312
 total energy-change (2. order) : 0.2639530E-02  (-0.3874243E-02)
 number of electron      59.9999993 magnetization 
 augmentation part       14.7339799 magnetization 

 Broyden mixing:
  rms(total) = 0.11888E-01    rms(broyden)= 0.11887E-01
  rms(prec ) = 0.17885E-01
  weight for this iteration     100.00

 eigenvalues of (default mixing * dielectric matrix)
  average eigenvalue GAMMA=   0.9321
  2.4656  2.2279  1.3158  1.3158  0.7048  0.7048  0.1515  0.2293  0.2293  0.3628
  0.5457

 Free energy of the ion-electron system (eV)
  ---------------------------------------------------
  alpha Z        PSCENC =        50.92604651
  Ewald energy   TEWEN  =     10004.50904231
  -Hartree energ DENC   =    -15726.02643237
  -exchange      EXHF   =         0.00000000
  -V(xc)+E(xc)   XCENC  =       136.87353454
  PAW double counting   =      6300.18945599    -6080.74254369
  entropy T*S    EENTRO =        -0.00363244
  eigenvalues    EBANDS =     -1296.97008525
  atomic energy  EATOM  =      6566.49377757
  Solvation  Ediel_sol  =         0.00000000
  ---------------------------------------------------
  free energy    TOTEN  =       -44.75083684 eV

  energy without entropy =      -44.74720440  energy(sigma->0) =      -44.74962603


--------------------------------------------------------------------------------------------------------




--------------------------------------- Iteration      1(  17)  ---------------------------------------


    POTLOK:  cpu time      0.0142: real time      0.0142
    SETDIJ:  cpu time      0.0013: real time      0.0013
     EDDAV:  cpu time      3.3427: real time      3.3429
       DOS:  cpu time      0.0008: real time      0.0008
    CHARGE:  cpu time      0.0260: real time      0.0260
    MIXING:  cpu time      0.0011: real time      0.0011
    --------------------------------------------
      LOOP:  cpu time      3.3862: real time      3.3863

 eigenvalue-minimisations  :  4864
 total energy-change (2. order) :-0.1155229E-02  (-0.1574631E-03)
 number of electron      59.9999993 magnetization 
 augmentation part       14.7332447 magnetization 

 Broyden mixing:
  rms(total) = 0.68863E-02    rms(broyden)= 0.68860E-02
  rms(prec ) = 0.10774E-01
  weight for this iteration     100.00

 eigenvalues of (default mixing * dielectric matrix)
  average eigenvalue GAMMA=   1.0545
  2.8066  2.8066  1.8021  1.2337  1.0495  0.7172  0.7172  0.1515  0.2293  0.2293
  0.3628  0.5478

 Free energy of the ion-electron system (eV)
  ---------------------------------------------------
  alpha Z        PSCENC =        50.92604651
  Ewald energy   TEWEN  =     10004.50904231
  -Hartree energ DENC   =    -15728.58435181
  -exchange      EXHF   =         0.00000000
  -V(xc)+E(xc)   XCENC  =       136.89185691
  PAW double counting   =      6297.99382868    -6078.32120522
  entropy T*S    EENTRO =        -0.00380279
  eigenvalues    EBANDS =     -1294.65718422
  atomic energy  EATOM  =      6566.49377757
  Solvation  Ediel_sol  =         0.00000000
  ---------------------------------------------------
  free energy    TOTEN  =       -44.75199207 eV

  energy without entropy =      -44.74818928  energy(sigma->0) =      -44.75072447


--------------------------------------------------------------------------------------------------------




--------------------------------------- Iteration      1(  18)  ---------------------------------------


    POTLOK:  cpu time      0.0137: real time      0.0137
    SETDIJ:  cpu time      0.0013: real time      0.0013
     EDDAV:  cpu time      2.7067: real time      2.7069
       DOS:  cpu time      0.0004: real time      0.0004
    CHARGE:  cpu time      0.0234: real time      0.0234
    MIXING:  cpu time      0.0006: real time      0.0006
    --------------------------------------------
      LOOP:  cpu time      2.7462: real time      2.7464

 eigenvalue-minimisations  :  4224
 total energy-change (2. order) :-0.1305220E-02  (-0.1229268E-03)
 number of electron      59.9999993 magnetization 
 augmentation part       14.7303055 magnetization 

 Broyden mixing:
  rms(total) = 0.54969E-02    rms(broyden)= 0.54968E-02
  rms(prec ) = 0.73732E-02
  weight for this iteration     100.00

 eigenvalues of (default mixing * dielectric matrix)
  average eigenvalue GAMMA=   1.1484
  3.6512  2.7595  1.7826  1.6089  1.1836  0.9457  0.7700  0.7069  0.1515  0.2293
  0.2293  0.3628  0.5473

 Free energy of the ion-electron system (eV)
  ---------------------------------------------------
  alpha Z        PSCENC =        50.92604651
  Ewald energy   TEWEN  =     10004.50904231
  -Hartree energ DENC   =    -15731.55351562
  -exchange      EXHF   =         0.00000000
  -V(xc)+E(xc)   XCENC  =       136.90940379
  PAW double counting   =      6293.56479318    -6073.82933136
  entropy T*S    EENTRO =        -0.00387052
  eigenvalues    EBANDS =     -1291.76964312
  atomic energy  EATOM  =      6566.49377757
  Solvation  Ediel_sol  =         0.00000000
  ---------------------------------------------------
  free energy    TOTEN  =       -44.75329729 eV

  energy without entropy =      -44.74942677  energy(sigma->0) =      -44.75200711


--------------------------------------------------------------------------------------------------------




--------------------------------------- Iteration      1(  19)  ---------------------------------------


    POTLOK:  cpu time      0.0148: real time      0.0148
    SETDIJ:  cpu time      0.0014: real time      0.0014
     EDDAV:  cpu time      2.3089: real time      2.3094
       DOS:  cpu time      0.0004: real time      0.0022
    CHARGE:  cpu time      0.0242: real time      0.0242
    MIXING:  cpu time      0.0009: real time      0.0009
    --------------------------------------------
      LOOP:  cpu time      2.3506: real time      2.3529

 eigenvalue-minimisations  :  3840
 total energy-change (2. order) :-0.5484995E-03  (-0.4141057E-04)
 number of electron      59.9999993 magnetization 
 augmentation part       14.7314391 magnetization 

 Broyden mixing:
  rms(total) = 0.25139E-02    rms(broyden)= 0.25138E-02
  rms(prec ) = 0.34682E-02
  weight for this iteration     100.00

 eigenvalues of (default mixing * dielectric matrix)
  average eigenvalue GAMMA=   1.2563
  4.5929  2.7926  1.9888  1.9888  1.2782  0.9771  0.9771  0.1515  0.2293  0.2293
  0.7616  0.7104  0.3628  0.5473

 Free energy of the ion-electron system (eV)
  ---------------------------------------------------
  alpha Z        PSCENC =        50.92604651
  Ewald energy   TEWEN  =     10004.50904231
  -Hartree energ DENC   =    -15732.61831701
  -exchange      EXHF   =         0.00000000
  -V(xc)+E(xc)   XCENC  =       136.90763075
  PAW double counting   =      6292.85760839    -6073.17518028
  entropy T*S    EENTRO =        -0.00385845
  eigenvalues    EBANDS =     -1290.65059557
  atomic energy  EATOM  =      6566.49377757
  Solvation  Ediel_sol  =         0.00000000
  ---------------------------------------------------
  free energy    TOTEN  =       -44.75384579 eV

  energy without entropy =      -44.74998734  energy(sigma->0) =      -44.75255964


--------------------------------------------------------------------------------------------------------




--------------------------------------- Iteration      1(  20)  ---------------------------------------


    POTLOK:  cpu time      0.0134: real time      0.0134
    SETDIJ:  cpu time      0.0014: real time      0.0014
     EDDAV:  cpu time      2.4232: real time      2.4233
       DOS:  cpu time      0.0004: real time      0.0004
    CHARGE:  cpu time      0.0234: real time      0.0234
    MIXING:  cpu time      0.0007: real time      0.0007
    --------------------------------------------
      LOOP:  cpu time      2.4625: real time      2.4626

 eigenvalue-minimisations  :  3968
 total energy-change (2. order) :-0.2361995E-03  (-0.1545510E-04)
 number of electron      59.9999993 magnetization 
 augmentation part       14.7332250 magnetization 

 Broyden mixing:
  rms(total) = 0.11754E-02    rms(broyden)= 0.11753E-02
  rms(prec ) = 0.17592E-02
  weight for this iteration     100.00

 eigenvalues of (default mixing * dielectric matrix)
  average eigenvalue GAMMA=   1.3593
  5.1518  3.1305  2.2476  2.2476  1.5011  1.1143  1.1143  0.1515  0.2293  0.2293
  0.3628  0.8316  0.8316  0.6984  0.5474

 Free energy of the ion-electron system (eV)
  ---------------------------------------------------
  alpha Z        PSCENC =        50.92604651
  Ewald energy   TEWEN  =     10004.50904231
  -Hartree energ DENC   =    -15733.09786839
  -exchange      EXHF   =         0.00000000
  -V(xc)+E(xc)   XCENC  =       136.90428576
  PAW double counting   =      6293.01654404    -6073.36275388
  entropy T*S    EENTRO =        -0.00385874
  eigenvalues    EBANDS =     -1290.13929716
  atomic energy  EATOM  =      6566.49377757
  Solvation  Ediel_sol  =         0.00000000
  ---------------------------------------------------
  free energy    TOTEN  =       -44.75408199 eV

  energy without entropy =      -44.75022325  energy(sigma->0) =      -44.75279574


--------------------------------------------------------------------------------------------------------




--------------------------------------- Iteration      1(  21)  ---------------------------------------


    POTLOK:  cpu time      0.0136: real time      0.0136
    SETDIJ:  cpu time      0.0013: real time      0.0013
     EDDAV:  cpu time      2.0055: real time      2.0056
       DOS:  cpu time      0.0004: real time      0.0004
    CHARGE:  cpu time      0.0232: real time      0.0232
    MIXING:  cpu time      0.0007: real time      0.0007
    --------------------------------------------
      LOOP:  cpu time      2.0447: real time      2.0448

 eigenvalue-minimisations  :  3520
 total energy-change (2. order) :-0.8728901E-04  (-0.6181201E-05)
 number of electron      59.9999993 magnetization 
 augmentation part       14.7330723 magnetization 

 Broyden mixing:
  rms(total) = 0.10287E-02    rms(broyden)= 0.10287E-02
  rms(prec ) = 0.14841E-02
  weight for this iteration     100.00

 eigenvalues of (default mixing * dielectric matrix)
  average eigenvalue GAMMA=   1.3998
  5.5837  3.1653  2.5143  1.9535  1.9535  1.1916  1.1916  0.1515  0.2293  0.2293
  0.9681  0.8278  0.8278  0.3628  0.6991  0.5474

 Free energy of the ion-electron system (eV)
  ---------------------------------------------------
  alpha Z        PSCENC =        50.92604651
  Ewald energy   TEWEN  =     10004.50904231
  -Hartree energ DENC   =    -15733.37183402
  -exchange      EXHF   =         0.00000000
  -V(xc)+E(xc)   XCENC  =       136.90308331
  PAW double counting   =      6293.30310657    -6073.66694311
  entropy T*S    EENTRO =        -0.00385263
  eigenvalues    EBANDS =     -1289.84659577
  atomic energy  EATOM  =      6566.49377757
  Solvation  Ediel_sol  =         0.00000000
  ---------------------------------------------------
  free energy    TOTEN  =       -44.75416928 eV

  energy without entropy =      -44.75031664  energy(sigma->0) =      -44.75288506


--------------------------------------------------------------------------------------------------------




--------------------------------------- Iteration      1(  22)  ---------------------------------------


    POTLOK:  cpu time      0.0139: real time      0.0139
    SETDIJ:  cpu time      0.0013: real time      0.0013
     EDDAV:  cpu time      3.3411: real time      3.3412
       DOS:  cpu time      0.0004: real time      0.0004
    CHARGE:  cpu time      0.0259: real time      0.0259
    MIXING:  cpu time      0.0011: real time      0.0011
    --------------------------------------------
      LOOP:  cpu time      3.3837: real time      3.3838

 eigenvalue-minimisations  :  4800
 total energy-change (2. order) :-0.8168442E-04  (-0.8487675E-06)
 number of electron      59.9999993 magnetization 
 augmentation part       14.7331039 magnetization 

 Broyden mixing:
  rms(total) = 0.48700E-03    rms(broyden)= 0.48700E-03
  rms(prec ) = 0.74170E-03
  weight for this iteration     100.00

 eigenvalues of (default mixing * dielectric matrix)
  average eigenvalue GAMMA=   1.5012
  5.8835  3.8971  2.7141  2.1799  2.1799  1.5565  0.1515  0.2293  0.2293  0.3628
  1.1532  1.1532  0.5474  0.6992  0.8292  0.8292  0.9255

 Free energy of the ion-electron system (eV)
  ---------------------------------------------------
  alpha Z        PSCENC =        50.92604651
  Ewald energy   TEWEN  =     10004.50904231
  -Hartree energ DENC   =    -15733.49283024
  -exchange      EXHF   =         0.00000000
  -V(xc)+E(xc)   XCENC  =       136.90305123
  PAW double counting   =      6293.35284487    -6073.71334225
  entropy T*S    EENTRO =        -0.00385513
  eigenvalues    EBANDS =     -1289.72898583
  atomic energy  EATOM  =      6566.49377757
  Solvation  Ediel_sol  =         0.00000000
  ---------------------------------------------------
  free energy    TOTEN  =       -44.75425096 eV

  energy without entropy =      -44.75039583  energy(sigma->0) =      -44.75296592


--------------------------------------------------------------------------------------------------------




--------------------------------------- Iteration      1(  23)  ---------------------------------------


    POTLOK:  cpu time      0.0116: real time      0.0116
    SETDIJ:  cpu time      0.0013: real time      0.0013
     EDDAV:  cpu time      2.9421: real time      2.9422
       DOS:  cpu time      0.0004: real time      0.0004
    CHARGE:  cpu time      0.0237: real time      0.0237
    MIXING:  cpu time      0.0007: real time      0.0007
    --------------------------------------------
      LOOP:  cpu time      2.9798: real time      2.9799

 eigenvalue-minimisations  :  4480
 total energy-change (2. order) :-0.1203778E-03  (-0.1774506E-05)
 number of electron      59.9999993 magnetization 
 augmentation part       14.7328177 magnetization 

 Broyden mixing:
  rms(total) = 0.37024E-03    rms(broyden)= 0.37022E-03
  rms(prec ) = 0.51104E-03
  weight for this iteration     100.00

 eigenvalues of (default mixing * dielectric matrix)
  average eigenvalue GAMMA=   1.6026
  6.2255  5.0141  2.8665  2.1959  2.1959  1.8356  1.4345  0.1515  0.2293  0.2293
  0.3628  1.1368  1.1368  0.5474  0.6994  0.8347  0.8347  0.9163

 Free energy of the ion-electron system (eV)
  ---------------------------------------------------
  alpha Z        PSCENC =        50.92604651
  Ewald energy   TEWEN  =     10004.50904231
  -Hartree energ DENC   =    -15733.61936086
  -exchange      EXHF   =         0.00000000
  -V(xc)+E(xc)   XCENC  =       136.90365393
  PAW double counting   =      6293.33470076    -6073.68746487
  entropy T*S    EENTRO =        -0.00385870
  eigenvalues    EBANDS =     -1289.61090797
  atomic energy  EATOM  =      6566.49377757
  Solvation  Ediel_sol  =         0.00000000
[...]
     61       7.7727      0.00000
     62       8.2195      0.00000
     63       8.3474      0.00000
     64       8.5208      0.00000

 k-point    19 :       0.0000    0.5000    0.0000
  band No.  band energies     occupation 
      1     -56.7734      2.00000
      2     -56.4599      2.00000
      3     -56.1375      2.00000
      4     -56.0538      2.00000
      5     -33.2008      2.00000
      6     -33.0172      2.00000
      7     -32.9200      2.00000
      8     -32.8219      2.00000
      9     -32.7126      2.00000
     10     -32.6908      2.00000
     11     -32.5348      2.00000
     12     -32.4307      2.00000
     13     -32.4057      2.00000
     14     -32.3847      2.00000
     15     -32.2046      2.00000
     16     -32.1842      2.00000
     17      -6.7673      2.00000
     18      -5.8949      2.00000
     19      -4.3370      2.00000
     20      -3.9799      2.00000
     21      -2.7998      2.00000
     22      -2.2198      2.00000
     23      -0.8515      2.00000
     24      -0.7724      2.00000
     25      -0.1098      2.00000
     26      -0.0481      2.00000
     27       0.0224      2.00000
     28       0.0789      2.00000
     29       0.1243      2.00000
     30       0.4077      2.03614
     31       0.4559      1.69474
     32       0.8911     -0.00000
     33       1.0018     -0.00000
     34       1.1079     -0.00000
     35       1.1559     -0.00000
     36       1.1823     -0.00000
     37       1.4278     -0.00000
     38       1.6565     -0.00000
     39       1.7653     -0.00000
     40       2.1003     -0.00000
     41       2.1350     -0.00000
     42       2.3702     -0.00000
     43       2.7556      0.00000
     44       2.9705      0.00000
     45       3.3684      0.00000
     46       3.9735      0.00000
     47       4.4521      0.00000
     48       4.7706      0.00000
     49       5.5006      0.00000
     50       5.6452      0.00000
     51       5.7444      0.00000
     52       5.7962      0.00000
     53       5.9055      0.00000
     54       6.1625      0.00000
     55       6.3477      0.00000
     56       6.7158      0.00000
     57       7.1613      0.00000
     58       7.2652      0.00000
     59       7.4469      0.00000
     60       7.8467      0.00000
     61       7.9308      0.00000
     62       8.2561      0.00000
     63       8.8292      0.00000
     64       9.1437      0.00000

 k-point    20 :       0.1429    0.5000    0.0000
  band No.  band energies     occupation 
      1     -56.7731      2.00000
      2     -56.4594      2.00000
      3     -56.1360      2.00000
      4     -56.0558      2.00000
      5     -33.2009      2.00000
      6     -33.0180      2.00000
      7     -32.9237      2.00000
      8     -32.8239      2.00000
      9     -32.7123      2.00000
     10     -32.6956      2.00000
     11     -32.5335      2.00000
     12     -32.4328      2.00000
     13     -32.4118      2.00000
     14     -32.3851      2.00000
     15     -32.2004      2.00000
     16     -32.1771      2.00000
     17      -6.7261      2.00000
     18      -5.7020      2.00000
     19      -4.2287      2.00000
     20      -3.6285      2.00000
     21      -2.8191      2.00000
     22      -2.0516      2.00000
     23      -1.4310      2.00000
     24      -0.9109      2.00000
     25      -0.7841      2.00000
     26      -0.3103      2.00000
     27       0.0015      2.00000
     28       0.1133      2.00000
     29       0.2227      2.00057
     30       0.4918      1.17057
     31       0.6662     -0.04223
     32       0.8623     -0.00000
     33       1.0044     -0.00000
     34       1.1231     -0.00000
     35       1.2350     -0.00000
     36       1.3308     -0.00000
     37       1.5749     -0.00000
     38       1.6583     -0.00000
     39       1.8455     -0.00000
     40       1.9845     -0.00000
     41       2.2113     -0.00000
     42       2.3775     -0.00000
     43       2.7901      0.00000
     44       3.0211      0.00000
     45       3.2617      0.00000
     46       3.8707      0.00000
     47       4.2907      0.00000
     48       4.8865      0.00000
     49       5.0299      0.00000
     50       5.5206      0.00000
     51       5.6981      0.00000
     52       6.1272      0.00000
     53       6.4259      0.00000
     54       6.5683      0.00000
     55       6.6822      0.00000
     56       7.0242      0.00000
     57       7.1397      0.00000
     58       7.3035      0.00000
     59       7.5457      0.00000
     60       7.8494      0.00000
     61       8.0975      0.00000
     62       8.2961      0.00000
     63       8.5790      0.00000
     64       8.8114      0.00000

 k-point    21 :       0.2857    0.5000    0.0000
  band No.  band energies     occupation 
      1     -56.7724      2.00000
      2     -56.4582      2.00000
      3     -56.1323      2.00000
      4     -56.0605      2.00000
      5     -33.2012      2.00000
      6     -33.0196      2.00000
      7     -32.9321      2.00000
      8     -32.8289      2.00000
      9     -32.7118      2.00000
     10     -32.7055      2.00000
     11     -32.5303      2.00000
     12     -32.4387      2.00000
     13     -32.4197      2.00000
     14     -32.3904      2.00000
     15     -32.1879      2.00000
     16     -32.1653      2.00000
     17      -6.4577      2.00000
     18      -5.2599      2.00000
     19      -3.8508      2.00000
     20      -3.5508      2.00000
     21      -2.8628      2.00000
     22      -2.0806      2.00000
     23      -1.8407      2.00000
     24      -1.2801      2.00000
     25      -0.7864      2.00000
     26      -0.5054      2.00000
     27      -0.2778      2.00000
     28       0.0577      2.00000
     29       0.2164      2.00041
     30       0.4321      1.91813
     31       0.5411      0.38952
     32       0.8640     -0.00000
     33       0.9612     -0.00000
     34       1.0638     -0.00000
     35       1.2802     -0.00000
     36       1.4338     -0.00000
     37       1.7484     -0.00000
     38       1.8050     -0.00000
     39       1.9968     -0.00000
     40       2.2478     -0.00000
     41       2.2991     -0.00000
     42       2.5150      0.00000
     43       2.8448      0.00000
     44       2.9379      0.00000
     45       3.1778      0.00000
     46       3.5739      0.00000
     47       4.2408      0.00000
     48       4.6874      0.00000
     49       5.1647      0.00000
     50       5.5013      0.00000
     51       5.7033      0.00000
     52       5.9764      0.00000
     53       6.1225      0.00000
     54       6.4017      0.00000
     55       6.8945      0.00000
     56       7.0555      0.00000
     57       7.1560      0.00000
     58       7.5600      0.00000
     59       7.6589      0.00000
     60       7.8261      0.00000
     61       7.9269      0.00000
     62       8.3470      0.00000
     63       8.4096      0.00000
     64       8.8861      0.00000

 k-point    22 :       0.4286    0.5000    0.0000
  band No.  band energies     occupation 
      1     -56.7719      2.00000
      2     -56.4572      2.00000
      3     -56.1289      2.00000
      4     -56.0647      2.00000
      5     -33.2016      2.00000
      6     -33.0209      2.00000
      7     -32.9388      2.00000
      8     -32.8330      2.00000
      9     -32.7139      2.00000
     10     -32.7106      2.00000
     11     -32.5276      2.00000
     12     -32.4432      2.00000
     13     -32.4210      2.00000
     14     -32.3994      2.00000
     15     -32.1739      2.00000
     16     -32.1605      2.00000
     17      -5.8307      2.00000
     18      -4.8403      2.00000
     19      -4.6221      2.00000
     20      -3.7971      2.00000
     21      -2.6555      2.00000
     22      -1.8321      2.00000
     23      -1.5061      2.00000
     24      -1.0756      2.00000
     25      -0.9838      2.00000
     26      -0.7543      2.00000
     27      -0.3121      2.00000
     28      -0.0936      2.00000
     29       0.2574      2.00295
     30       0.4494      1.76663
     31       0.5438      0.35516
     32       0.6442     -0.06181
     33       0.8644     -0.00000
     34       1.1296     -0.00000
     35       1.2712     -0.00000
     36       1.4996     -0.00000
     37       1.7610     -0.00000
     38       1.9626     -0.00000
     39       2.0526     -0.00000
     40       2.2557     -0.00000
     41       2.3723     -0.00000
     42       2.4588     -0.00000
     43       2.8487      0.00000
     44       2.9499      0.00000
     45       3.1744      0.00000
     46       3.7980      0.00000
     47       4.4046      0.00000
     48       4.5580      0.00000
     49       4.7669      0.00000
     50       5.2321      0.00000
     51       5.4194      0.00000
     52       5.6066      0.00000
     53       6.1413      0.00000
     54       6.2864      0.00000
     55       6.5407      0.00000
     56       6.7997      0.00000
     57       6.8410      0.00000
     58       7.2214      0.00000
     59       7.4800      0.00000
     60       7.6059      0.00000
     61       7.7794      0.00000
     62       8.1748      0.00000
     63       8.5515      0.00000
     64       8.6302      0.00000


--------------------------------------------------------------------------------------------------------


 soft charge-density along one line, spin component           1
         0         1         2         3         4         5         6         7         8         9
 total charge-density along one line
 
 pseudopotential strength for first ion, spin component:           1
 -2.803 -23.983   0.005  -0.024  -0.000  -0.005   0.013  -0.000
-23.983  11.231   0.003   0.012   0.000   0.001  -0.003  -0.000
  0.005   0.003 -27.376   0.004   0.000  10.509  -0.004  -0.000
 -0.024   0.012   0.004 -27.447   0.001  -0.004  10.556  -0.001
 -0.000   0.000   0.000   0.001 -27.365  -0.000  -0.001  10.501
 -0.005   0.001  10.509  -0.004  -0.000   5.046  -0.000   0.000
  0.013  -0.003  -0.004  10.556  -0.001  -0.000   5.028   0.000
 -0.000  -0.000  -0.000  -0.001  10.501   0.000   0.000   5.047
  0.000  -0.000   0.000  -0.000  -0.000  -0.000   0.000  -0.001
  0.001   0.004  -0.005   0.005  -0.000   0.005  -0.003   0.000
 -0.032  -0.009  -0.002  -0.010   0.000   0.002   0.007  -0.000
  0.001   0.000  -0.000   0.000  -0.016   0.000  -0.000   0.010
  0.004   0.002  -0.009  -0.005   0.000   0.005   0.003  -0.000
  0.000  -0.000   0.000  -0.000  -0.000  -0.000   0.000  -0.001
  0.002   0.004  -0.007   0.006  -0.000   0.007  -0.004   0.000
 -0.040  -0.010  -0.003  -0.013   0.000   0.002   0.010  -0.000
  0.001   0.000  -0.000   0.000  -0.020   0.000  -0.000   0.013
  0.005   0.002  -0.011  -0.007   0.000   0.006   0.003  -0.000
 total augmentation occupancy for first ion, spin component:           1
  1.995  -0.057  -0.000  -0.002  -0.000  -0.000  -0.005  -0.000   0.000   0.001  -0.009   0.000  -0.002  -0.000  -0.000   0.010
 -0.057   1.303  -0.001  -0.015  -0.000   0.021   0.068  -0.000  -0.000   0.055  -0.202  -0.001  -0.054  -0.000   0.011   0.111
 -0.000  -0.001   1.983  -0.000   0.000  -0.036  -0.000   0.000  -0.000  -0.027  -0.000  -0.000   0.004   0.000   0.020   0.001
 -0.002  -0.015  -0.000   1.984   0.000  -0.000  -0.035   0.000  -0.000   0.002  -0.029  -0.000   0.006   0.000  -0.002   0.020
 -0.000  -0.000   0.000   0.000   1.983   0.000   0.000  -0.037   0.006  -0.000   0.000  -0.015  -0.000  -0.006   0.000  -0.000
 -0.000   0.021  -0.036  -0.000   0.000   0.099   0.000  -0.000   0.000   0.050  -0.008   0.000   0.027   0.000  -0.036   0.008
 -0.005   0.068  -0.000  -0.035   0.000   0.000   0.063  -0.000   0.000  -0.012   0.142  -0.000   0.025  -0.000   0.006  -0.072
 -0.000  -0.000   0.000   0.000  -0.037  -0.000  -0.000   0.097   0.067   0.000   0.000   0.147   0.000  -0.020   0.000  -0.000
  0.000  -0.000  -0.000  -0.000   0.006   0.000   0.000   0.067   2.182   0.002   0.001  -0.374   0.003  -0.918  -0.001  -0.000
  0.001   0.055  -0.027   0.002  -0.000   0.050  -0.012   0.000   0.002   1.544  -0.153   0.001  -0.376  -0.000  -0.639   0.054
 -0.009  -0.202  -0.000  -0.029   0.000  -0.008   0.142   0.000   0.001  -0.153   1.539   0.001   0.184  -0.000   0.056  -0.654
  0.000  -0.001  -0.000  -0.000  -0.015   0.000  -0.000   0.147  -0.374   0.001   0.001   1.527   0.001   0.211  -0.000  -0.000
 -0.002  -0.054   0.004   0.006  -0.000   0.027   0.025   0.000   0.003  -0.376   0.184   0.001   1.687  -0.000   0.176  -0.068
 -0.000  -0.000   0.000   0.000  -0.006   0.000  -0.000  -0.020  -0.918  -0.000  -0.000   0.211  -0.000   0.425   0.000  -0.000
 -0.000   0.011   0.020  -0.002   0.000  -0.036   0.006   0.000  -0.001  -0.639   0.056  -0.000   0.176   0.000   0.293  -0.023
  0.010   0.111   0.001   0.020  -0.000   0.008  -0.072  -0.000  -0.000   0.054  -0.654  -0.000  -0.068  -0.000  -0.023   0.302
 -0.000   0.000   0.000   0.000   0.011   0.000   0.000  -0.051   0.209  -0.000  -0.000  -0.511  -0.000  -0.115   0.000   0.000
  0.001   0.052  -0.002  -0.005   0.000  -0.001  -0.002  -0.000  -0.000   0.180  -0.072  -0.000  -0.730   0.000  -0.088   0.035


------------------------ aborting loop because EDIFF is reached ----------------------------------------


    CHARGE:  cpu time      0.0266: real time      0.0266
    FORLOC:  cpu time      0.0009: real time      0.0009
    FORNL :  cpu time      0.1817: real time      0.1817
    STRESS:  cpu time      1.1909: real time      1.1909
    FORCOR:  cpu time      0.0122: real time      0.0122
    FORHAR:  cpu time      0.0025: real time      0.0025
    MIXING:  cpu time      0.0007: real time      0.0007
    OFIELD:  cpu time      0.0000: real time      0.0000

  FORCE on cell =-STRESS in cart. coord.  units (eV):
  Direction    XX          YY          ZZ          XY          YZ          ZX
  --------------------------------------------------------------------------------------
  Alpha Z    50.92605    50.92605    50.92605
  Ewald   13003.24274 12402.37051-15401.10732    -0.00594   252.33278    -0.00642
  Hartree 14573.03780 14035.11434-12874.44141    -0.05302   216.88769     0.05371
  E(xc)    -285.81123  -286.36284  -286.47028    -0.00100     0.26548     0.00126
  Local  -28294.24782-27145.54788 27570.53597     0.10647  -475.58904    -0.16886
  n-local   -65.54915   -48.31051   -60.83928     0.03251    -9.02152    -0.02284
  augment   246.87470   240.57059   242.41345    -0.02017     3.74362     0.03944
  Kinetic   765.39837   747.16642   756.77025    -0.11565    11.26907     0.07219
  Fock        0.00000     0.00000     0.00000     0.00000     0.00000     0.00000
  -------------------------------------------------------------------------------------
  Total      -6.12854    -4.07333    -2.21257    -0.05680    -0.11192    -0.03152
  in kB     -25.49226   -16.94342    -9.20339    -0.23627    -0.46554    -0.13112
  external pressure =      -17.21 kB  Pullay stress =        0.00 kB


 VOLUME and BASIS-vectors are now :
 -----------------------------------------------------------------------------
  energy-cutoff  :      520.00
  volume of cell :      385.18
      direct lattice vectors                 reciprocal lattice vectors
     3.993499994  0.000000000  0.000000000     0.250406912  0.110284456  0.000000000
    -1.996725630  4.533675174  0.000000000     0.000000000  0.220571603  0.000000000
     0.000000000  0.000000000 21.274299622     0.000000000  0.000000000  0.047005073

  length of vectors
     3.993499994  4.953899860 21.274299622     0.273617036  0.220571603  0.047005073


 FORCES acting on ions
    electron-ion (+dipol)            ewald-force                    non-local-force                 convergence-correction
 -----------------------------------------------------------------------------------------------
   -.245E-02 0.682E+02 0.161E+04   0.449E-02 -.675E+02 -.161E+04   0.154E-02 -.705E+00 -.309E+01   0.174E-06 -.791E-04 -.157E-03
   0.491E-02 0.823E+01 0.470E+03   -.491E-02 -.859E+01 -.471E+03   -.550E-03 0.379E+00 0.937E+00   0.277E-05 0.331E-05 0.160E-03
   -.164E-01 0.285E+01 -.717E+03   0.622E-02 -.219E+01 0.718E+03   0.827E-02 -.579E+00 -.239E+00   -.719E-06 0.722E-04 0.328E-03
   0.738E-02 -.577E+02 -.177E+04   -.237E-02 0.569E+02 0.177E+04   -.117E-01 0.890E+00 0.666E+01   -.340E-05 -.938E-06 -.407E-04
   -.365E-03 -.169E+02 0.491E+03   -.645E-03 0.164E+02 -.487E+03   0.305E-02 0.460E+00 -.265E+01   0.314E-06 0.761E-05 -.309E-04
   -.917E-03 -.103E+02 0.277E+03   -.133E-02 0.102E+02 -.276E+03   0.455E-03 0.128E+00 -.117E+01   -.119E-07 0.674E-05 -.610E-05
   0.497E-02 -.511E+00 -.292E+02   0.318E-04 0.537E+00 0.294E+02   -.141E-02 -.124E+00 -.582E-01   -.639E-06 -.114E-04 0.628E-04
   0.754E-02 0.597E+01 -.332E+03   -.148E-02 -.589E+01 0.332E+03   -.477E-02 -.262E+00 0.962E+00   0.452E-06 -.254E-05 0.496E-04
 -----------------------------------------------------------------------------------------------
   0.467E-02 -.185E+00 -.134E+01   0.997E-14 -.266E-13 0.000E+00   -.514E-02 0.188E+00 0.134E+01   -.106E-05 -.409E-05 0.365E-03
 
 
 POSITION                                       TOTAL-FORCE (eV/Angst)
 -----------------------------------------------------------------------------------
     -0.00001      1.89548      7.89638         0.003642      0.038141     -0.146231
      1.99676      2.77488      9.68895        -0.000493      0.016181     -0.388806
     -0.00000      3.65428     11.48174        -0.001857      0.076157      0.587805
      0.00000      0.00000     13.27431        -0.006658      0.100416     -0.992185
      1.99677      3.72260      7.00010         0.002099     -0.036132      0.531921
      1.99677      0.06832      8.79267        -0.001739      0.080644     -0.217293
      0.00001      0.94772     10.58524         0.003652     -0.098603      0.210521
      1.99678      1.82712     12.37803         0.001352     -0.176805      0.414269
 -----------------------------------------------------------------------------------
    total drift:                               -0.000464      0.002525     -0.000051


--------------------------------------------------------------------------------------------------------



  FREE ENERGIE OF THE ION-ELECTRON SYSTEM (eV)
  ---------------------------------------------------
  free  energy   TOTEN  =       -44.75448782 eV

  energy  without entropy=      -44.75063239  energy(sigma->0) =      -44.75320268
 


--------------------------------------------------------------------------------------------------------


    POTLOK:  cpu time      0.0122: real time      0.0122


--------------------------------------------------------------------------------------------------------


 writing wavefunctions
     LOOP+:  cpu time     87.0174: real time     87.0256
    4ORBIT:  cpu time      0.0000: real time      0.0000

 total amount of memory used by VASP MPI-rank0   106039. kBytes
=======================================================================

   base                                    :      30000. kBytes
   nonl-proj                               :      67432. kBytes
   fftplans                                :        773. kBytes
   grid                                    :       3993. kBytes
   one-center                              :        124. kBytes
   wavefun                                 :       3717. kBytes
 
  
  
 General timing and accounting informations for this job:
 ========================================================
  
                  Total CPU time used (sec):       89.367
                            User time (sec):       86.284
                          System time (sec):        3.083
                         Elapsed time (sec):       89.633
  
                   Maximum memory used (kb):      282624.
                   Average memory used (kb):          N/A
  
                          Minor page faults:        40674
                          Major page faults:           10
                 Voluntary context switches:          120
