<?xml version="1.0" encoding="ISO-8859-1"?>
<modeling>
 <generator>
  <i name="program" type="string">vasp </i>
  <i name="version" type="string">6.5.0  </i>
  <i name="subversion" type="string">16Dec24 (build Apr 17 2025 17:55:45) complex                          parallel </i>
  <i name="platform" type="string">LinuxIFC </i>
  <i name="date" type="string">2025 07 14 </i>
  <i name="time" type="string">12:49:53 </i>
 </generator>
 <incar>
  <i type="int" name="ISTART">     0</i>
  <i type="string" name="PREC">N</i>
  <i type="string" name="ALGO">N</i>
  <i type="int" name="ICHARG">     2</i>
  <i type="int" name="NELM">   500</i>
  <i type="int" name="IBRION">    -1</i>
  <i name="EDIFF">      0.00001000</i>
  <i name="EDIFFG">     -0.01000000</i>
  <i type="int" name="NSW">     0</i>
  <i type="int" name="ISIF">     3</i>
  <i name="ENCUT">    520.00000000</i>
  <i type="logical" name="LREAL"> F  </i>
  <i type="int" name="ISMEAR">     1</i>
  <i name="SIGMA">      0.10000000</i>
  <i type="logical" name="LVTOT"> T  </i>
  <i type="logical" name="LVHAR"> T  </i>
 </incar>
 <primitive_cell>
  <structure name="primitive_cell" >
   <crystal>
    <varray name="basis" >
     <v>       3.99349999       0.00000000       0.00000000 </v>
     <v>      -1.99672563       4.53367517       0.00000000 </v>
     <v>       0.00000000       0.00000000      21.27429962 </v>
    </varray>
    <i name="volume">    385.17612566 </i>
    <varray name="rec_basis" >
     <v>       0.25040691       0.11028446       0.00000000 </v>
     <v>       0.00000000       0.22057160       0.00000000 </v>
     <v>       0.00000000       0.00000000       0.04700507 </v>
    </varray>
   </crystal>
   <varray name="positions" >
    <v>       0.20904000       0.41808999       0.37117001 </v>
    <v>       0.80602998       0.61206001       0.45543000 </v>
    <v>       0.40301001       0.80602998       0.53969997 </v>
    <v>       0.00000000       0.00000000       0.62396002 </v>
    <v>       0.91055000       0.82110000       0.32903999 </v>
    <v>       0.50753999       0.01507000       0.41330001 </v>
    <v>       0.10452000       0.20904000       0.49755999 </v>
    <v>       0.70151001       0.40301001       0.58183003 </v>
   </varray>
  </structure>
  <varray name="primitive_index" >
   <v type="int" >        1 </v>
   <v type="int" >        2 </v>
   <v type="int" >        3 </v>
   <v type="int" >        4 </v>
   <v type="int" >        5 </v>
   <v type="int" >        6 </v>
   <v type="int" >        7 </v>
   <v type="int" >        8 </v>
  </varray>
 </primitive_cell>
 <kpoints>
  <generation param="Gamma">
   <v type="int" name="divisions">       7        6        1 </v>
   <v name="usershift">      0.00000000       0.00000000       0.00000000 </v>
   <v name="genvec1">      0.14285714       0.00000000       0.00000000 </v>
   <v name="genvec2">      0.00000000       0.16666667       0.00000000 </v>
   <v name="genvec3">      0.00000000       0.00000000       1.00000000 </v>
   <v name="shift">      0.00000000       0.00000000       0.00000000 </v>
  </generation>
  <varray name="kpointlist" >
   <v>       0.00000000       0.00000000       0.00000000 </v>
   <v>       0.14285714       0.00000000       0.00000000 </v>
   <v>       0.28571429       0.00000000       0.00000000 </v>
   <v>       0.42857143       0.00000000       0.00000000 </v>
   <v>       0.00000000       0.16666667       0.00000000 </v>
   <v>       0.14285714       0.16666667       0.00000000 </v>
   <v>       0.28571429       0.16666667       0.00000000 </v>
   <v>       0.42857143       0.16666667       0.00000000 </v>
   <v>      -0.42857143       0.16666667       0.00000000 </v>
   <v>      -0.28571429       0.16666667       0.00000000 </v>
   <v>      -0.14285714       0.16666667       0.00000000 </v>
   <v>       0.00000000       0.33333333       0.00000000 </v>
   <v>       0.14285714       0.33333333       0.00000000 </v>
   <v>       0.28571429       0.33333333       0.00000000 </v>
   <v>       0.42857143       0.33333333       0.00000000 </v>
   <v>      -0.42857143       0.33333333       0.00000000 </v>
   <v>      -0.28571429       0.33333333       0.00000000 </v>
   <v>      -0.14285714       0.33333333       0.00000000 </v>
   <v>       0.00000000       0.50000000       0.00000000 </v>
   <v>       0.14285714       0.50000000       0.00000000 </v>
   <v>       0.28571429       0.50000000       0.00000000 </v>
   <v>       0.42857143       0.50000000       0.00000000 </v>
  </varray>
  <varray name="weights" >
   <v>       0.02380952 </v>
   <v>       0.04761905 </v>
   <v>       0.04761905 </v>
   <v>       0.04761905 </v>
   <v>       0.04761905 </v>
   <v>       0.04761905 </v>
   <v>       0.04761905 </v>
   <v>       0.04761905 </v>
   <v>       0.04761905 </v>
   <v>       0.04761905 </v>
   <v>       0.04761905 </v>
   <v>       0.04761905 </v>
   <v>       0.04761905 </v>
   <v>       0.04761905 </v>
   <v>       0.04761905 </v>
   <v>       0.04761905 </v>
   <v>       0.04761905 </v>
   <v>       0.04761905 </v>
   <v>       0.02380952 </v>
   <v>       0.04761905 </v>
   <v>       0.04761905 </v>
   <v>       0.04761905 </v>
  </varray>
 </kpoints>
 <parameters>
  <separator name="general" >
   <i type="string" name="SYSTEM">unknown system</i>
   <i type="logical" name="LCOMPAT"> F  </i>
  </separator>
  <separator name="electronic" >
   <i type="string" name="PREC">n</i>
   <i name="ENMAX">    520.00000000</i>
   <i name="ENAUG">    482.84800000</i>
   <i name="EDIFF">      0.00001000</i>
   <i type="int" name="IALGO">    38</i>
   <i type="int" name="IWAVPR">    10</i>
   <i type="int" name="NBANDS">    64</i>
   <i type="int" name="NBANDSLOW">    -1</i>
   <i type="int" name="NBANDSHIGH">    -1</i>
   <i name="NELECT">     60.00000000</i>
   <i type="int" name="TURBO">     0</i>
   <i type="int" name="IRESTART">     0</i>
   <i type="int" name="NREBOOT">     0</i>
   <i type="int" name="NMIN">     0</i>
   <i name="EREF">      0.00000000</i>
   <separator name="electronic smearing" >
    <i type="int" name="ISMEAR">     1</i>
    <i name="SIGMA">      0.10000000</i>
    <i name="KSPACING">      0.50000000</i>
    <i type="logical" name="KGAMMA"> T  </i>
    <i type="logical" name="KBLOWUP"> F  </i>
   </separator>
   <separator name="electronic projectors" >
    <i type="logical" name="LREAL"> F  </i>
    <v name="ROPT">      0.00000000      0.00000000</v>
    <i type="int" name="LMAXPAW">  -100</i>
    <i type="int" name="LMAXMIX">     2</i>
    <i type="logical" name="NLSPLINE"> F  </i>
   </separator>
   <separator name="electronic startup" >
    <i type="int" name="ISTART">     0</i>
    <i type="int" name="ICHARG">     2</i>
    <i type="int" name="INIWAV">     1</i>
   </separator>
   <separator name="electronic spin" >
    <i type="int" name="ISPIN">     1</i>
    <i type="logical" name="LNONCOLLINEAR"> F  </i>
    <v name="MAGMOM">      1.00000000      1.00000000      1.00000000      1.00000000      1.00000000      1.00000000      1.00000000      1.00000000</v>
    <i name="NUPDOWN">     -1.00000000</i>
    <i type="logical" name="LSORBIT"> F  </i>
    <v name="SAXIS">      0.00000000      0.00000000      1.00000000</v>
    <i type="logical" name="LSPIRAL"> F  </i>
    <v name="QSPIRAL">      0.00000000      0.00000000      0.00000000</v>
    <i type="logical" name="LZEROZ"> F  </i>
   </separator>
   <separator name="electronic exchange-correlation" >
    <i type="logical" name="LASPH"> F  </i>
   </separator>
   <separator name="electronic convergence" >
    <i type="int" name="NELM">   500</i>
    <i type="int" name="NELMDL">    -5</i>
    <i type="int" name="NELMIN">     2</i>
    <i name="ENINI">    520.00000000</i>
    <separator name="electronic convergence detail" >
     <i type="logical" name="LDIAG"> T  </i>
     <i type="logical" name="LSUBROT"> F  </i>
     <i name="WEIMIN">      0.00000000</i>
     <i name="EBREAK">      0.00000004</i>
     <i name="DEPER">      0.30000000</i>
     <i type="int" name="NRMM">     4</i>
     <i name="TIME">      0.40000000</i>
    </separator>
   </separator>
   <separator name="electronic mixer" >
    <i name="AMIX">      0.40000000</i>
    <i name="BMIX">      1.00000000</i>
    <i name="AMIN">      0.10000000</i>
    <i name="AMIX_MAG">      1.60000000</i>
    <i name="BMIX_MAG">      1.00000000</i>
    <separator name="electronic mixer details" >
     <i type="int" name="IMIX">     4</i>
     <i type="logical" name="MIXFIRST"> F  </i>
     <i type="int" name="MAXMIX">   -45</i>
     <i name="WC">    100.00000000</i>
     <i type="int" name="INIMIX">     1</i>
     <i type="int" name="MIXPRE">     1</i>
     <i type="int" name="MREMOVE">     5</i>
    </separator>
   </separator>
   <separator name="electronic dipolcorrection" >
    <i type="logical" name="LDIPOL"> F  </i>
    <i type="logical" name="LMONO"> F  </i>
    <i type="int" name="IDIPOL">     0</i>
    <i name="EPSILON">      1.00000000</i>
    <v name="DIPOL">   -100.00000000   -100.00000000   -100.00000000</v>
    <i name="EFIELD">      0.00000000</i>
    <i type="logical" name="LVACPOTAV"> F  </i>
   </separator>
  </separator>
  <separator name="grids" >
   <i type="int" name="NGX">    24</i>
   <i type="int" name="NGY">    28</i>
   <i type="int" name="NGZ">   120</i>
   <i type="int" name="NGXF">    48</i>
   <i type="int" name="NGYF">    56</i>
   <i type="int" name="NGZF">   240</i>
   <i type="logical" name="ADDGRID"> F  </i>
  </separator>
  <separator name="ionic" >
   <i type="int" name="NSW">     0</i>
   <i type="int" name="IBRION">    -1</i>
   <i type="int" name="MDALGO">     0</i>
   <i type="int" name="ISIF">     3</i>
   <i name="PSTRESS">      0.00000000</i>
   <i name="EDIFFG">     -0.01000000</i>
   <i type="int" name="NFREE">     0</i>
   <i name="POTIM">      0.50000000</i>
   <i name="SMASS">     -3.00000000</i>
   <i name="SCALEE">      1.00000000</i>
  </separator>
  <separator name="ionic md" >
   <i name="TEBEG">      0.00010000</i>
   <i name="TEEND">      0.00010000</i>
   <i type="int" name="NBLOCK">     1</i>
   <i type="int" name="KBLOCK">     1</i>
   <i type="int" name="NPACO">   256</i>
   <i name="APACO">     10.00000000</i>
  </separator>
  <separator name="symmetry" >
   <i type="int" name="ISYM">     2</i>
   <i name="SYMPREC">      0.00001000</i>
  </separator>
  <separator name="dos" >
   <i type="int" name="LORBIT">     0</i>
   <v name="RWIGS">     -1.00000000     -1.00000000</v>
   <i type="int" name="NEDOS">   301</i>
   <i name="EMIN">     10.00000000</i>
   <i name="EMAX">    -10.00000000</i>
   <i name="EFERMI">      0.00000000</i>
  </separator>
  <separator name="writing" >
   <i type="int" name="NWRITE">     2</i>
   <i type="logical" name="LWAVE"> T  </i>
   <i type="logical" name="LDOWNSAMPLE"> F  </i>
   <i type="logical" name="LCHARG"> T  </i>
   <i type="logical" name="LPARD"> F  </i>
   <i type="logical" name="LVTOT"> F  </i>
   <i type="logical" name="LVHAR"> T  </i>
   <i type="logical" name="LELF"> F  </i>
   <i type="logical" name="LOPTICS"> F  </i>
   <v name="STM">      0.00000000      0.00000000      0.00000000      0.00000000      0.00000000      0.00000000      0.00000000</v>
  </separator>
  <separator name="performance" >
   <i type="int" name="NPAR">    64</i>
   <i type="int" name="NSIM">     4</i>
   <i type="int" name="NBLK">    -1</i>
   <i type="logical" name="LPLANE"> T  </i>
   <i type="logical" name="LSCALAPACK"> T  </i>
   <i type="logical" name="LSCAAWARE"> F  </i>
   <i type="logical" name="LSCALU"> F  </i>
   <i type="logical" name="LASYNC"> F  </i>
   <i type="logical" name="LORBITALREAL"> F  </i>
  </separator>
  <separator name="miscellaneous" >
   <i type="int" name="IDIOT">     3</i>
   <i type="int" name="PHON_NSTRUCT">    -1</i>
   <i type="logical" name="LMUSIC"> F  </i>
   <v name="POMASS">     47.88000000     26.98100000</v>
   <v name="DARWINR">      0.00000000      0.00000000</v>
   <v name="DARWINV">      1.00000000      1.00000000</v>
   <i type="logical" name="LCORR"> T  </i>
  </separator>
  <i type="logical" name="GGA_COMPAT"> T  </i>
  <i type="logical" name="LBERRY"> F  </i>
  <i type="int" name="ICORELEVEL">     0</i>
  <i type="logical" name="LDAU"> F  </i>
  <i type="int" name="I_CONSTRAINED_M">     0</i>
  <separator name="electronic exchange-correlation" >
   <i type="string" name="GGA    ">PE</i>
   <i type="string" name="XC_C">1</i>
   <i type="int" name="VOSKOWN">     0</i>
   <i type="logical" name="LHFCALC"> F  </i>
   <i type="string" name="PRECFOCK"></i>
   <i type="logical" name="LSYMGRAD"> F  </i>
   <i type="logical" name="LHFONE"> F  </i>
   <i type="logical" name="LRHFCALC"> F  </i>
   <i type="logical" name="LTHOMAS"> F  </i>
   <i type="logical" name="LMODELHF"> F  </i>
   <i type="logical" name="LFOCKACE"> F  </i>
   <i name="ENCUT4O">     -1.00000000</i>
   <i type="int" name="EXXOEP">     0</i>
   <i type="int" name="FOURORBIT">     0</i>
   <i name="AEXX">      0.00000000</i>
   <i name="HFALPHA">      0.00000000</i>
   <i name="MCALPHA">      0.00000000</i>
   <i name="ALDAX">      1.00000000</i>
   <i name="AGGAX">      1.00000000</i>
   <i name="AMGGAX">      1.00000000</i>
   <i name="ALDAC">      1.00000000</i>
   <i name="AGGAC">      1.00000000</i>
   <i name="AMGGAC">      1.00000000</i>
   <i type="int" name="NKREDX">     1</i>
   <i type="int" name="NKREDY">     1</i>
   <i type="int" name="NKREDZ">     1</i>
   <i type="logical" name="SHIFTRED"> F  </i>
   <i type="logical" name="ODDONLY"> F  </i>
   <i type="logical" name="EVENONLY"> F  </i>
   <i type="int" name="LMAXFOCK">     0</i>
   <i type="int" name="NMAXFOCKAE">     0</i>
   <i type="logical" name="LFOCKAEDFT"> F  </i>
   <i name="HFSCREEN">      0.00000000</i>
   <i name="HFSCREENC">      0.00000000</i>
   <i type="int" name="NBANDSGWLOW">     0</i>
  </separator>
  <separator name="vdW DFT" >
   <i type="logical" name="LUSE_VDW"> F  </i>
   <i type="int" name="IVDW_NL">    -1</i>
   <i type="logical" name="LSPIN_VDW"> F  </i>
   <i name="ZAB_VDW">     -0.84910000</i>
   <i name="GAMMA_VDW">      1.39626340</i>
   <i name="ALPHA_VDW">      0.00000000</i>
   <i name="PARAM1">      0.12340000</i>
   <i name="PARAM2">      1.00000000</i>
   <i name="BPARAM">      6.30000000</i>
   <i name="CPARAM">      0.00930000</i>
  </separator>
  <separator name="model GW" >
   <i type="int" name="MODEL_GW">     0</i>
   <i name="MODEL_EPS0">     28.88820942</i>
   <i name="MODEL_ALPHA">      1.00000000</i>
  </separator>
  <separator name="linear response parameters" >
   <i type="logical" name="LEPSILON"> F  </i>
   <i type="logical" name="LRPA"> F  </i>
   <i type="logical" name="LNABLA"> F  </i>
   <i type="logical" name="LVEL"> F  </i>
   <i name="CSHIFT">      0.10000000</i>
   <i name="OMEGAMAX">     -1.00000000</i>
   <i name="DEG_THRESHOLD">      0.00200000</i>
   <i name="RTIME">     -0.10000000</i>
   <i name="WPLASMAI">      0.00000000</i>
   <v name="DFIELD">      0.00000000      0.00000000      0.00000000</v>
   <v name="WPLASMA">      0.00000000      0.00000000      0.00000000      0.00000000      0.00000000      0.00000000      0.00000000      0.00000000      0.00000000</v>
  </separator>
  <separator name="orbital magnetization" >
   <i type="logical" name="NUCIND"> F  </i>
   <v name="MAGPOS">      0.00000000      0.00000000      0.00000000</v>
   <i type="logical" name="LNICSALL"> T  </i>
   <i type="logical" name="ORBITALMAG"> F  </i>
   <i type="logical" name="LMAGBLOCH"> F  </i>
   <i type="logical" name="LCHIMAG"> F  </i>
   <i type="logical" name="LGAUGE"> T  </i>
   <i type="int" name="MAGATOM">     0</i>
   <v name="MAGDIPOL">      0.00000000      0.00000000      0.00000000</v>
   <v name="AVECCONST">      0.00000000      0.00000000      0.00000000</v>
  </separator>
  <separator name="response functions" >
   <i type="logical" name="LALL_IN_ONE"> F  </i>
   <i type="int" name="IALL_IN_ONE">    -1</i>
   <i type="int" name="NBANDS_WAVE">    -1</i>
   <i type="logical" name="LFINITE_TEMPERATURE"> F  </i>
   <i type="logical" name="LADDER"> F  </i>
   <i type="logical" name="LRPAFORCE"> F  </i>
   <i type="logical" name="LFXC"> F  </i>
   <i type="logical" name="LHARTREE"> T  </i>
   <i type="int" name="IBSE">     2</i>
   <v type="int" name="KPOINT">    -1     0     0     0</v>
   <i type="logical" name="LTCTC"> F  </i>
   <i type="logical" name="LTCTE"> F  </i>
   <i type="logical" name="LTETE"> F  </i>
   <i type="logical" name="LTRIPLET"> F  </i>
   <i type="logical" name="LFXCEPS"> F  </i>
   <i type="logical" name="LFXHEG"> F  </i>
   <i type="int" name="NATURALO">     2</i>
   <i type="logical" name="LHOLEGF"> F  </i>
   <i type="logical" name="L2ORDER"> F  </i>
   <i type="logical" name="LDMP1"> F  </i>
   <i type="logical" name="LMP2LT"> F  </i>
   <i type="logical" name="LSMP2LT"> F  </i>
   <i type="logical" name="LGWLF"> F  </i>
   <i name="ENCUTGW">     -1.60000002</i>
   <i name="ENCUTGWSOFT">     -1.60000002</i>
   <i name="ENCUTLF">     -1.00000000</i>
   <i type="logical" name="ESF_SPLINES"> F  </i>
   <i name="ESF_CONV">      0.01000000</i>
   <i type="int" name="ESF_NINTER">    15</i>
   <i type="int" name="LMAXMP2">    -1</i>
   <i name="SCISSOR">      0.00000000</i>
   <i type="int" name="NOMEGA">     0</i>
   <i type="int" name="NOMEGAR">     0</i>
   <i type="int" name="NBANDSGW">    -1</i>
   <i type="int" name="NBANDSO">    -1</i>
   <i type="int" name="NBANDSV">    -1</i>
   <i type="int" name="NELMGW">     1</i>
   <i type="int" name="NELMHF">     1</i>
   <i type="int" name="DIM">     3</i>
   <i type="int" name="IESPILON">     4</i>
   <i type="int" name="ANTIRES">     0</i>
   <i name="OMEGAMAX">    -30.00000000</i>
   <i name="OMEGAMIN">    -30.00000000</i>
   <i name="OMEGATL">   -200.00000000</i>
   <i type="int" name="OMEGAGRID">     0</i>
   <i name="CSHIFT">     -0.10000000</i>
   <i type="logical" name="LSELFENERGY"> F  </i>
   <i type="logical" name="LSPECTRAL"> F  </i>
   <i type="logical" name="LSPECTRALGW"> F  </i>
   <i type="logical" name="LSINGLES"> F  </i>
   <i type="logical" name="LFERMIGW"> F  </i>
   <i type="logical" name="ODDONLYGW"> F  </i>
   <i type="logical" name="EVENONLYGW"> F  </i>
   <i type="int" name="NKREDLFX">     1</i>
   <i type="int" name="NKREDLFY">     1</i>
   <i type="int" name="NKREDLFZ">     1</i>
   <i type="int" name="MAXMEM">  2800</i>
   <i type="int" name="TELESCOPE">     0</i>
   <i type="int" name="NTAUPAR">    -1</i>
   <i type="int" name="NOMEGAPAR">    -1</i>
   <i name="DAMP_NEWTON">      0.80000001</i>
   <i name="LAMBDA">      1.00000000</i>
  </separator>
  <separator name="External order field" >
   <i name="OFIELD_KAPPA">      0.00000000</i>
   <v name="OFIELD_K">      0.00000000      0.00000000      0.00000000</v>
   <i name="OFIELD_Q6_NEAR">      0.00000000</i>
   <i name="OFIELD_Q6_FAR">      0.00000000</i>
   <i name="OFIELD_A">      0.00000000</i>
  </separator>
  <separator name="optional k-points parameters" >
   <i type="int" name="KPOINTS_OPT_MODE">     1</i>
   <i type="logical" name="LKPOINTS_OPT"> F  </i>
  </separator>
 </parameters>
 <atominfo>
  <atoms>       8 </atoms>
  <types>       2 </types>
  <array name="atoms" >
   <dimension dim="1">ion</dimension>
   <field type="string">element</field>
   <field type="int">atomtype</field>
   <set>
    <rc><c>Ti</c><c>   1</c></rc>
    <rc><c>Ti</c><c>   1</c></rc>
    <rc><c>Ti</c><c>   1</c></rc>
    <rc><c>Ti</c><c>   1</c></rc>
    <rc><c>Al</c><c>   2</c></rc>
    <rc><c>Al</c><c>   2</c></rc>
    <rc><c>Al</c><c>   2</c></rc>
    <rc><c>Al</c><c>   2</c></rc>
   </set>
  </array>
  <array name="atomtypes" >
   <dimension dim="1">type</dimension>
   <field type="int">atomspertype</field>
   <field type="string">element</field>
   <field>mass</field>
   <field>valence</field>
   <field type="string">pseudopotential</field>
   <set>
    <rc><c>   4</c><c>Ti</c><c>     47.88000000</c><c>     12.00000000</c><c>  PAW_PBE Ti_sv 26Sep2005               </c></rc>
    <rc><c>   4</c><c>Al</c><c>     26.98100000</c><c>      3.00000000</c><c>  PAW_PBE Al 04Jan2001                  </c></rc>
   </set>
  </array>
 </atominfo>
 <structure name="initialpos" >
  <crystal>
   <varray name="basis" >
    <v>       3.99349999       0.00000000       0.00000000 </v>
    <v>      -1.99672563       4.53367517       0.00000000 </v>
    <v>       0.00000000       0.00000000      21.27429962 </v>
   </varray>
   <i name="volume">    385.17612566 </i>
   <varray name="rec_basis" >
    <v>       0.25040691       0.11028446       0.00000000 </v>
    <v>       0.00000000       0.22057160       0.00000000 </v>
    <v>       0.00000000       0.00000000       0.04700507 </v>
   </varray>
  </crystal>
  <varray name="positions" >
   <v>       0.20904000       0.41808999       0.37117001 </v>
   <v>       0.80602998       0.61206001       0.45543000 </v>
   <v>       0.40301001       0.80602998       0.53969997 </v>
   <v>       0.00000000       0.00000000       0.62396002 </v>
   <v>       0.91055000       0.82110000       0.32903999 </v>
   <v>       0.50753999       0.01507000       0.41330001 </v>
   <v>       0.10452000       0.20904000       0.49755999 </v>
   <v>       0.70151001       0.40301001       0.58183003 </v>
  </varray>
 </structure>
 <calculation>
  <scstep>
   <time name="dav">    1.37    1.37</time>
   <time name="total">    1.39    1.39</time>
   <energy>
    <i name="alphaZ">     50.92604651 </i>
    <i name="ewald">  10004.50904231 </i>
    <i name="hartreedc"> -15702.44817740 </i>
    <i name="XCdc">    140.24336640 </i>
    <i name="pawpsdc">   5323.06139147 </i>
    <i name="pawaedc">  -5116.90369196 </i>
    <i name="eentropy">     -0.00067739 </i>
    <i name="bandstr">  -1059.65829304 </i>
    <i name="atom">   6566.49377757 </i>
    <i name="e_fr_energy">    206.22278445 </i>
    <i name="e_wo_entrp">    206.22346184 </i>
    <i name="e_0_energy">    206.22301025 </i>
   </energy>
  </scstep>
  <scstep>
   <time name="dav">    1.58    1.58</time>
   <time name="total">    1.58    1.58</time>
   <energy>
    <i name="e_fr_energy">    -30.52992856 </i>
    <i name="e_wo_entrp">    -30.53567068 </i>
    <i name="e_0_energy">    -30.53184260 </i>
   </energy>
  </scstep>
  <scstep>
   <time name="dav">    3.75    3.75</time>
   <time name="total">    3.75    3.75</time>
   <energy>
    <i name="e_fr_energy">    -54.15086058 </i>
    <i name="e_wo_entrp">    -54.15121071 </i>
    <i name="e_0_energy">    -54.15097729 </i>
   </energy>
  </scstep>
  <scstep>
   <time name="dav">    1.89    1.89</time>
   <time name="total">    1.89    1.89</time>
   <energy>
    <i name="e_fr_energy">    -54.91722186 </i>
    <i name="e_wo_entrp">    -54.91772232 </i>
    <i name="e_0_energy">    -54.91738868 </i>
   </energy>
  </scstep>
  <scstep>
   <time name="dav">    3.74    3.74</time>
   <time name="total">    3.77    3.77</time>
   <energy>
    <i name="e_fr_energy">    -54.93625265 </i>
    <i name="e_wo_entrp">    -54.93673981 </i>
    <i name="e_0_energy">    -54.93641504 </i>
   </energy>
  </scstep>
  <scstep>
   <time name="dav">    3.62    3.62</time>
   <time name="total">    3.67    3.67</time>
   <energy>
    <i name="e_fr_energy">    -64.05735534 </i>
    <i name="e_wo_entrp">    -64.05456281 </i>
    <i name="e_0_energy">    -64.05642450 </i>
   </energy>
  </scstep>
  <scstep>
   <time name="dav">    3.55    3.55</time>
   <time name="total">    3.59    3.59</time>
   <energy>
    <i name="e_fr_energy">    -54.99715724 </i>
    <i name="e_wo_entrp">    -54.99821434 </i>
    <i name="e_0_energy">    -54.99750961 </i>
   </energy>
  </scstep>
  <scstep>
   <time name="dav">    3.87    3.87</time>
   <time name="total">    3.92    3.92</time>
   <energy>
    <i name="e_fr_energy">    -51.24515741 </i>
    <i name="e_wo_entrp">    -51.24497331 </i>
    <i name="e_0_energy">    -51.24509604 </i>
   </energy>
  </scstep>
  <scstep>
   <time name="dav">    4.12    4.12</time>
   <time name="total">    4.16    4.16</time>
   <energy>
    <i name="e_fr_energy">    -46.68351490 </i>
    <i name="e_wo_entrp">    -46.67549560 </i>
    <i name="e_0_energy">    -46.68084180 </i>
   </energy>
  </scstep>
  <scstep>
   <time name="dav">    3.66    3.66</time>
   <time name="total">    3.71    3.71</time>
   <energy>
    <i name="e_fr_energy">    -45.60298785 </i>
    <i name="e_wo_entrp">    -45.60497123 </i>
    <i name="e_0_energy">    -45.60364898 </i>
   </energy>
  </scstep>
  <scstep>
   <time name="dav">    3.56    3.56</time>
   <time name="total">    3.60    3.60</time>
   <energy>
    <i name="e_fr_energy">    -44.97120945 </i>
    <i name="e_wo_entrp">    -44.96777564 </i>
    <i name="e_0_energy">    -44.97006485 </i>
   </energy>
  </scstep>
  <scstep>
   <time name="dav">    3.79    3.79</time>
   <time name="total">    3.83    3.83</time>
   <energy>
    <i name="e_fr_energy">    -44.78576336 </i>
    <i name="e_wo_entrp">    -44.78317124 </i>
    <i name="e_0_energy">    -44.78489932 </i>
   </energy>
  </scstep>
  <scstep>
   <time name="dav">    3.95    3.95</time>
   <time name="total">    3.99    3.99</time>
   <energy>
    <i name="e_fr_energy">    -44.76580805 </i>
    <i name="e_wo_entrp">    -44.76433203 </i>
    <i name="e_0_energy">    -44.76531604 </i>
   </energy>
  </scstep>
  <scstep>
   <time name="dav">    4.04    4.04</time>
   <time name="total">    4.08    4.08</time>
   <energy>
    <i name="e_fr_energy">    -44.77118798 </i>
    <i name="e_wo_entrp">    -44.76741125 </i>
    <i name="e_0_energy">    -44.76992907 </i>
   </energy>
  </scstep>
  <scstep>
   <time name="dav">    4.03    4.03</time>
   <time name="total">    4.07    4.07</time>
   <energy>
    <i name="e_fr_energy">    -44.75347637 </i>
    <i name="e_wo_entrp">    -44.75053211 </i>
    <i name="e_0_energy">    -44.75249495 </i>
   </energy>
  </scstep>
  <scstep>
   <time name="dav">    3.86    3.86</time>
   <time name="total">    3.90    3.90</time>
   <energy>
    <i name="e_fr_energy">    -44.75083684 </i>
    <i name="e_wo_entrp">    -44.74720440 </i>
    <i name="e_0_energy">    -44.74962603 </i>
   </energy>
  </scstep>
  <scstep>
   <time name="dav">    3.34    3.34</time>
   <time name="total">    3.39    3.39</time>
   <energy>
    <i name="e_fr_energy">    -44.75199207 </i>
    <i name="e_wo_entrp">    -44.74818928 </i>
    <i name="e_0_energy">    -44.75072447 </i>
   </energy>
  </scstep>
  <scstep>
   <time name="dav">    2.71    2.71</time>
   <time name="total">    2.75    2.75</time>
   <energy>
    <i name="e_fr_energy">    -44.75329729 </i>
    <i name="e_wo_entrp">    -44.74942677 </i>
    <i name="e_0_energy">    -44.75200711 </i>
   </energy>
  </scstep>
  <scstep>
   <time name="dav">    2.31    2.31</time>
   <time name="total">    2.35    2.35</time>
   <energy>
    <i name="e_fr_energy">    -44.75384579 </i>
    <i name="e_wo_entrp">    -44.74998734 </i>
    <i name="e_0_energy">    -44.75255964 </i>
   </energy>
  </scstep>
  <scstep>
   <time name="dav">    2.42    2.42</time>
   <time name="total">    2.46    2.46</time>
   <energy>
    <i name="e_fr_energy">    -44.75408199 </i>
    <i name="e_wo_entrp">    -44.75022325 </i>
    <i name="e_0_energy">    -44.75279574 </i>
   </energy>
  </scstep>
  <scstep>
   <time name="dav">    2.01    2.01</time>
   <time name="total">    2.04    2.04</time>
   <energy>
    <i name="e_fr_energy">    -44.75416928 </i>
    <i name="e_wo_entrp">    -44.75031664 </i>
    <i name="e_0_energy">    -44.75288506 </i>
   </energy>
  </scstep>
  <scstep>
   <time name="dav">    3.34    3.34</time>
   <time name="total">    3.38    3.38</time>
   <energy>
    <i name="e_fr_energy">    -44.75425096 </i>
    <i name="e_wo_entrp">    -44.75039583 </i>
    <i name="e_0_energy">    -44.75296592 </i>
   </energy>
  </scstep>
  <scstep>
   <time name="dav">    2.94    2.94</time>
   <time name="total">    2.98    2.98</time>
   <energy>
    <i name="e_fr_energy">    -44.75437134 </i>
    <i name="e_wo_entrp">    -44.75051264 </i>
    <i name="e_0_energy">    -44.75308510 </i>
   </energy>
  </scstep>
  <scstep>
   <time name="dav">    2.65    2.65</time>
   <time name="total">    2.69    2.69</time>
   <energy>
    <i name="e_fr_energy">    -44.75443752 </i>
    <i name="e_wo_entrp">    -44.75058148 </i>
    <i name="e_0_energy">    -44.75315218 </i>
   </energy>
  </scstep>
  <scstep>
   <time name="dav">    2.41    2.41</time>
   <time name="total">    2.44    2.44</time>
   <energy>
    <i name="e_fr_energy">    -44.75447309 </i>
    <i name="e_wo_entrp">    -44.75061614 </i>
    <i name="e_0_energy">    -44.75318744 </i>
   </energy>
  </scstep>
  <scstep>
   <time name="dav">    2.32    2.32</time>
   <time name="total">    2.36    2.36</time>
   <energy>
    <i name="e_fr_energy">    -44.75448481 </i>
    <i name="e_wo_entrp">    -44.75062926 </i>
    <i name="e_0_energy">    -44.75319963 </i>
   </energy>
  </scstep>
  <scstep>
   <time name="dav">    2.64    2.64</time>
   <time name="total">    2.66    2.66</time>
   <energy>
    <i name="alphaZ">     50.92604651 </i>
    <i name="ewald">  10004.50904231 </i>
    <i name="hartreedc"> -15733.70649801 </i>
    <i name="XCdc">    136.90371820 </i>
    <i name="pawpsdc">   6293.27565142 </i>
    <i name="pawaedc">  -6073.62741693 </i>
    <i name="eentropy">     -0.00385543 </i>
    <i name="bandstr">  -1289.52495346 </i>
    <i name="atom">   6566.49377757 </i>
    <i name="e_fr_energy">    -44.75448782 </i>
    <i name="e_wo_entrp">    -44.75063239 </i>
    <i name="e_0_energy">    -44.75320268 </i>
   </energy>
  </scstep>
  <structure>
   <crystal>
    <varray name="basis" >
     <v>       3.99349999       0.00000000       0.00000000 </v>
     <v>      -1.99672563       4.53367517       0.00000000 </v>
     <v>       0.00000000       0.00000000      21.27429962 </v>
    </varray>
    <i name="volume">    385.17612566 </i>
    <varray name="rec_basis" >
     <v>       0.25040691       0.11028446       0.00000000 </v>
     <v>       0.00000000       0.22057160       0.00000000 </v>
     <v>       0.00000000       0.00000000       0.04700507 </v>
    </varray>
   </crystal>
   <varray name="positions" >
    <v>       0.20904000       0.41808999       0.37117001 </v>
    <v>       0.80602998       0.61206001       0.45543000 </v>
    <v>       0.40301001       0.80602998       0.53969997 </v>
    <v>       0.00000000       0.00000000       0.62396002 </v>
    <v>       0.91055000       0.82110000       0.32903999 </v>
    <v>       0.50753999       0.01507000       0.41330001 </v>
    <v>       0.10452000       0.20904000       0.49755999 </v>
    <v>       0.70151001       0.40301001       0.58183003 </v>
   </varray>
  </structure>
  <varray name="forces" >
   <v>       0.00364199       0.03814081      -0.14623137 </v>
   <v>      -0.00049297       0.01618120      -0.38880588 </v>
   <v>      -0.00185659       0.07615666       0.58780454 </v>
   <v>      -0.00665753       0.10041629      -0.99218480 </v>
   <v>       0.00209921      -0.03613154       0.53192123 </v>
   <v>      -0.00173898       0.08064430      -0.21729322 </v>
   <v>       0.00365245      -0.09860258       0.21052091 </v>
   <v>       0.00135242      -0.17680513       0.41426859 </v>
  </varray>
  <varray name="stress" >
   <v>     -25.49225526      -0.23626772      -0.13111555 </v>
   <v>      -0.23626776     -16.94341965      -0.46554223 </v>
   <v>      -0.13111566      -0.46554234      -9.20339468 </v>
  </varray>
  <energy>
   <i name="e_fr_energy">    -44.75448782 </i>
   <i name="e_wo_entrp">    -44.75063239 </i>
   <i name="e_0_energy">    -44.75320268 </i>
  </energy>
  <time name="totalsc">   87.02   87.03</time>
  <eigenvalues>
   <array>
    <dimension dim="1">band</dimension>
    <dimension dim="2">kpoint</dimension>
    <dimension dim="3">spin</dimension>
    <field>eigene</field>
    <field>occ</field>
    <set>
     <set comment="spin 1">
      <set comment="kpoint 1">
       <r>  -56.7734    1.0000 </r>
       <r>  -56.4600    1.0000 </r>
       <r>  -56.1377    1.0000 </r>
       <r>  -56.0537    1.0000 </r>
       <r>  -33.2002    1.0000 </r>
       <r>  -33.0160    1.0000 </r>
       <r>  -32.9197    1.0000 </r>
       <r>  -32.8216    1.0000 </r>
       <r>  -32.7090    1.0000 </r>
       <r>  -32.6903    1.0000 </r>
       <r>  -32.5315    1.0000 </r>
       <r>  -32.4329    1.0000 </r>
       <r>  -32.4054    1.0000 </r>
       <r>  -32.3843    1.0000 </r>
       <r>  -32.2049    1.0000 </r>
       <r>  -32.1847    1.0000 </r>
       <r>   -7.9478    1.0000 </r>
       <r>   -6.3717    1.0000 </r>
       <r>   -4.3537    1.0000 </r>
       <r>   -2.2339    1.0000 </r>
       <r>   -1.7877    1.0000 </r>
       <r>   -1.5191    1.0000 </r>
       <r>   -1.3436    1.0000 </r>
       <r>   -1.1382    1.0000 </r>
       <r>   -0.8284    1.0000 </r>
       <r>   -0.5762    1.0000 </r>
       <r>   -0.3299    1.0000 </r>
       <r>   -0.0950    1.0000 </r>
       <r>    0.3842    1.0351 </r>
       <r>    0.5047    0.4766 </r>
       <r>    0.5187    0.3604 </r>
       <r>    0.7683   -0.0005 </r>
       <r>    1.2558   -0.0000 </r>
       <r>    1.2797   -0.0000 </r>
       <r>    1.6946   -0.0000 </r>
       <r>    1.8872   -0.0000 </r>
       <r>    2.1703   -0.0000 </r>
       <r>    2.2624   -0.0000 </r>
       <r>    2.4227   -0.0000 </r>
       <r>    2.6415    0.0000 </r>
       <r>    3.2326    0.0000 </r>
       <r>    3.4331    0.0000 </r>
       <r>    3.5100    0.0000 </r>
       <r>    3.5254    0.0000 </r>
       <r>    3.7146    0.0000 </r>
       <r>    3.8638    0.0000 </r>
       <r>    4.0502    0.0000 </r>
       <r>    4.3002    0.0000 </r>
       <r>    4.8163    0.0000 </r>
       <r>    4.8924    0.0000 </r>
       <r>    5.1118    0.0000 </r>
       <r>    5.1610    0.0000 </r>
       <r>    5.3513    0.0000 </r>
       <r>    5.6592    0.0000 </r>
       <r>    5.8469    0.0000 </r>
       <r>    5.8698    0.0000 </r>
       <r>    6.4965    0.0000 </r>
       <r>    6.7860    0.0000 </r>
       <r>    7.3663    0.0000 </r>
       <r>    7.3943    0.0000 </r>
       <r>    7.5999    0.0000 </r>
       <r>    7.7591    0.0000 </r>
       <r>    8.2384    0.0000 </r>
       <r>    8.4752    0.0000 </r>
      </set>
      <set comment="kpoint 2">
       <r>  -56.7731    1.0000 </r>
       <r>  -56.4595    1.0000 </r>
       <r>  -56.1361    1.0000 </r>
       <r>  -56.0556    1.0000 </r>
       <r>  -33.2005    1.0000 </r>
       <r>  -33.0170    1.0000 </r>
       <r>  -32.9235    1.0000 </r>
       <r>  -32.8237    1.0000 </r>
       <r>  -32.7094    1.0000 </r>
       <r>  -32.6952    1.0000 </r>
       <r>  -32.5307    1.0000 </r>
       <r>  -32.4346    1.0000 </r>
       <r>  -32.4117    1.0000 </r>
       <r>  -32.3848    1.0000 </r>
       <r>  -32.2007    1.0000 </r>
       <r>  -32.1775    1.0000 </r>
       <r>   -7.7164    1.0000 </r>
       <r>   -6.1630    1.0000 </r>
       <r>   -4.2026    1.0000 </r>
       <r>   -2.3952    1.0000 </r>
       <r>   -1.8225    1.0000 </r>
       <r>   -1.6429    1.0000 </r>
       <r>   -1.5062    1.0000 </r>
       <r>   -1.0097    1.0000 </r>
       <r>   -0.8956    1.0000 </r>
       <r>   -0.5463    1.0000 </r>
       <r>   -0.4660    1.0000 </r>
       <r>   -0.2103    1.0000 </r>
       <r>    0.1446    1.0000 </r>
       <r>    0.4287    0.9704 </r>
       <r>    0.6734   -0.0179 </r>
       <r>    0.9054   -0.0000 </r>
       <r>    1.0477   -0.0000 </r>
       <r>    1.4065   -0.0000 </r>
       <r>    1.5633   -0.0000 </r>
       <r>    1.9501   -0.0000 </r>
       <r>    2.0929   -0.0000 </r>
       <r>    2.2812   -0.0000 </r>
       <r>    2.5037    0.0000 </r>
       <r>    2.6880    0.0000 </r>
       <r>    2.9651    0.0000 </r>
       <r>    3.0754    0.0000 </r>
       <r>    3.1964    0.0000 </r>
       <r>    3.4630    0.0000 </r>
       <r>    3.7827    0.0000 </r>
       <r>    3.9419    0.0000 </r>
       <r>    4.0669    0.0000 </r>
       <r>    4.2254    0.0000 </r>
       <r>    4.6064    0.0000 </r>
       <r>    4.7132    0.0000 </r>
       <r>    4.8825    0.0000 </r>
       <r>    5.2752    0.0000 </r>
       <r>    5.4311    0.0000 </r>
       <r>    5.7699    0.0000 </r>
       <r>    6.2516    0.0000 </r>
       <r>    6.3553    0.0000 </r>
       <r>    6.7033    0.0000 </r>
       <r>    7.0178    0.0000 </r>
       <r>    7.3189    0.0000 </r>
       <r>    7.4402    0.0000 </r>
       <r>    7.5525    0.0000 </r>
       <r>    8.0269    0.0000 </r>
       <r>    8.1371    0.0000 </r>
       <r>    8.5117    0.0000 </r>
      </set>
      <set comment="kpoint 3">
       <r>  -56.7725    1.0000 </r>
       <r>  -56.4582    1.0000 </r>
       <r>  -56.1324    1.0000 </r>
       <r>  -56.0604    1.0000 </r>
       <r>  -33.2011    1.0000 </r>
       <r>  -33.0191    1.0000 </r>
       <r>  -32.9319    1.0000 </r>
       <r>  -32.8289    1.0000 </r>
       <r>  -32.7103    1.0000 </r>
       <r>  -32.7053    1.0000 </r>
       <r>  -32.5289    1.0000 </r>
       <r>  -32.4394    1.0000 </r>
       <r>  -32.4198    1.0000 </r>
       <r>  -32.3903    1.0000 </r>
       <r>  -32.1881    1.0000 </r>
       <r>  -32.1654    1.0000 </r>
       <r>   -7.0440    1.0000 </r>
       <r>   -5.5664    1.0000 </r>
       <r>   -3.8549    1.0000 </r>
       <r>   -3.3617    1.0000 </r>
       <r>   -2.0811    1.0000 </r>
       <r>   -1.7521    1.0000 </r>
       <r>   -1.4106    1.0000 </r>
       <r>   -1.1948    1.0000 </r>
       <r>   -0.8734    1.0000 </r>
       <r>   -0.6965    1.0000 </r>
       <r>   -0.2492    1.0000 </r>
       <r>   -0.2087    1.0000 </r>
       <r>    0.0890    1.0000 </r>
       <r>    0.2736    1.0029 </r>
       <r>    0.5827    0.0080 </r>
       <r>    0.8165   -0.0000 </r>
       <r>    0.9532   -0.0000 </r>
       <r>    1.2717   -0.0000 </r>
       <r>    1.4745   -0.0000 </r>
       <r>    1.7006   -0.0000 </r>
       <r>    1.8618   -0.0000 </r>
       <r>    2.1986   -0.0000 </r>
       <r>    2.3691   -0.0000 </r>
       <r>    2.4576   -0.0000 </r>
       <r>    2.6408    0.0000 </r>
       <r>    2.8114    0.0000 </r>
       <r>    2.9921    0.0000 </r>
       <r>    3.2126    0.0000 </r>
       <r>    3.4576    0.0000 </r>
       <r>    3.8457    0.0000 </r>
       <r>    4.2318    0.0000 </r>
       <r>    4.5014    0.0000 </r>
       <r>    4.6971    0.0000 </r>
       <r>    4.8299    0.0000 </r>
       <r>    4.9889    0.0000 </r>
       <r>    5.3982    0.0000 </r>
       <r>    5.7317    0.0000 </r>
       <r>    5.8907    0.0000 </r>
       <r>    6.2153    0.0000 </r>
       <r>    6.2497    0.0000 </r>
       <r>    6.9272    0.0000 </r>
       <r>    7.1795    0.0000 </r>
       <r>    7.3042    0.0000 </r>
       <r>    7.7103    0.0000 </r>
       <r>    8.0990    0.0000 </r>
       <r>    8.1767    0.0000 </r>
       <r>    8.5484    0.0000 </r>
       <r>    8.8137    0.0000 </r>
      </set>
      <set comment="kpoint 4">
       <r>  -56.7719    1.0000 </r>
       <r>  -56.4572    1.0000 </r>
       <r>  -56.1289    1.0000 </r>
       <r>  -56.0647    1.0000 </r>
       <r>  -33.2016    1.0000 </r>
       <r>  -33.0209    1.0000 </r>
       <r>  -32.9388    1.0000 </r>
       <r>  -32.8330    1.0000 </r>
       <r>  -32.7138    1.0000 </r>
       <r>  -32.7104    1.0000 </r>
       <r>  -32.5274    1.0000 </r>
       <r>  -32.4433    1.0000 </r>
       <r>  -32.4209    1.0000 </r>
       <r>  -32.3994    1.0000 </r>
       <r>  -32.1739    1.0000 </r>
       <r>  -32.1605    1.0000 </r>
       <r>   -6.0001    1.0000 </r>
       <r>   -4.7252    1.0000 </r>
       <r>   -4.6888    1.0000 </r>
       <r>   -3.7925    1.0000 </r>
       <r>   -2.6054    1.0000 </r>
       <r>   -1.5804    1.0000 </r>
       <r>   -1.4690    1.0000 </r>
       <r>   -1.2029    1.0000 </r>
       <r>   -0.9315    1.0000 </r>
       <r>   -0.7558    1.0000 </r>
       <r>   -0.3556    1.0000 </r>
       <r>   -0.0782    1.0000 </r>
       <r>    0.2157    1.0002 </r>
       <r>    0.4039    1.0229 </r>
       <r>    0.5194    0.3548 </r>
       <r>    0.7344   -0.0024 </r>
       <r>    0.8337   -0.0000 </r>
       <r>    1.1043   -0.0000 </r>
       <r>    1.3277   -0.0000 </r>
       <r>    1.5000   -0.0000 </r>
       <r>    1.7794   -0.0000 </r>
       <r>    2.0212   -0.0000 </r>
       <r>    2.0965   -0.0000 </r>
       <r>    2.2709   -0.0000 </r>
       <r>    2.3938   -0.0000 </r>
       <r>    2.4730   -0.0000 </r>
       <r>    2.9342    0.0000 </r>
       <r>    2.9791    0.0000 </r>
       <r>    3.1883    0.0000 </r>
       <r>    3.8829    0.0000 </r>
       <r>    4.4297    0.0000 </r>
       <r>    4.5266    0.0000 </r>
       <r>    4.6641    0.0000 </r>
       <r>    5.0947    0.0000 </r>
       <r>    5.3552    0.0000 </r>
       <r>    5.6186    0.0000 </r>
       <r>    6.0500    0.0000 </r>
       <r>    6.1571    0.0000 </r>
       <r>    6.4045    0.0000 </r>
       <r>    6.5291    0.0000 </r>
       <r>    6.8050    0.0000 </r>
       <r>    7.3025    0.0000 </r>
       <r>    7.3788    0.0000 </r>
       <r>    7.6446    0.0000 </r>
       <r>    7.8488    0.0000 </r>
       <r>    8.1421    0.0000 </r>
       <r>    8.4370    0.0000 </r>
       <r>    8.6605    0.0000 </r>
      </set>
      <set comment="kpoint 5">
       <r>  -56.7734    1.0000 </r>
       <r>  -56.4600    1.0000 </r>
       <r>  -56.1376    1.0000 </r>
       <r>  -56.0537    1.0000 </r>
       <r>  -33.2004    1.0000 </r>
       <r>  -33.0163    1.0000 </r>
       <r>  -32.9197    1.0000 </r>
       <r>  -32.8217    1.0000 </r>
       <r>  -32.7099    1.0000 </r>
       <r>  -32.6905    1.0000 </r>
       <r>  -32.5323    1.0000 </r>
       <r>  -32.4323    1.0000 </r>
       <r>  -32.4055    1.0000 </r>
       <r>  -32.3844    1.0000 </r>
       <r>  -32.2048    1.0000 </r>
       <r>  -32.1846    1.0000 </r>
       <r>   -7.7533    1.0000 </r>
       <r>   -6.2179    1.0000 </r>
       <r>   -4.2932    1.0000 </r>
       <r>   -2.6592    1.0000 </r>
       <r>   -2.2007    1.0000 </r>
       <r>   -1.7222    1.0000 </r>
       <r>   -1.1783    1.0000 </r>
       <r>   -1.0836    1.0000 </r>
       <r>   -0.6756    1.0000 </r>
       <r>   -0.4488    1.0000 </r>
       <r>   -0.2321    1.0000 </r>
       <r>   -0.0265    1.0000 </r>
       <r>    0.1575    1.0000 </r>
       <r>    0.5296    0.2750 </r>
       <r>    0.6683   -0.0201 </r>
       <r>    0.8483   -0.0000 </r>
       <r>    1.2030   -0.0000 </r>
       <r>    1.2843   -0.0000 </r>
       <r>    1.5661   -0.0000 </r>
       <r>    1.8555   -0.0000 </r>
       <r>    1.9380   -0.0000 </r>
       <r>    2.1959   -0.0000 </r>
       <r>    2.2099   -0.0000 </r>
       <r>    2.5601    0.0000 </r>
       <r>    2.6671    0.0000 </r>
       <r>    3.0846    0.0000 </r>
       <r>    3.1853    0.0000 </r>
       <r>    3.3117    0.0000 </r>
       <r>    3.8126    0.0000 </r>
       <r>    3.9159    0.0000 </r>
       <r>    3.9632    0.0000 </r>
       <r>    4.2945    0.0000 </r>
       <r>    4.7325    0.0000 </r>
       <r>    4.7574    0.0000 </r>
       <r>    5.1685    0.0000 </r>
       <r>    5.4548    0.0000 </r>
       <r>    5.8651    0.0000 </r>
       <r>    5.9781    0.0000 </r>
       <r>    6.2558    0.0000 </r>
       <r>    6.7245    0.0000 </r>
       <r>    6.9950    0.0000 </r>
       <r>    7.0576    0.0000 </r>
       <r>    7.4192    0.0000 </r>
       <r>    7.4603    0.0000 </r>
       <r>    7.7225    0.0000 </r>
       <r>    7.9554    0.0000 </r>
       <r>    8.1982    0.0000 </r>
       <r>    8.7054    0.0000 </r>
      </set>
      <set comment="kpoint 6">
       <r>  -56.7731    1.0000 </r>
       <r>  -56.4594    1.0000 </r>
       <r>  -56.1361    1.0000 </r>
       <r>  -56.0557    1.0000 </r>
       <r>  -33.2007    1.0000 </r>
       <r>  -33.0174    1.0000 </r>
       <r>  -32.9236    1.0000 </r>
       <r>  -32.8238    1.0000 </r>
       <r>  -32.7107    1.0000 </r>
       <r>  -32.6954    1.0000 </r>
       <r>  -32.5320    1.0000 </r>
       <r>  -32.4337    1.0000 </r>
       <r>  -32.4117    1.0000 </r>
       <r>  -32.3850    1.0000 </r>
       <r>  -32.2006    1.0000 </r>
       <r>  -32.1773    1.0000 </r>
       <r>   -7.3732    1.0000 </r>
       <r>   -5.9102    1.0000 </r>
       <r>   -4.1475    1.0000 </r>
       <r>   -2.8546    1.0000 </r>
       <r>   -2.5466    1.0000 </r>
       <r>   -1.7299    1.0000 </r>
       <r>   -1.4208    1.0000 </r>
       <r>   -1.0656    1.0000 </r>
       <r>   -0.7733    1.0000 </r>
       <r>   -0.4806    1.0000 </r>
       <r>   -0.2647    1.0000 </r>
       <r>   -0.0486    1.0000 </r>
       <r>    0.1711    1.0000 </r>
       <r>    0.4060    1.0203 </r>
       <r>    0.8003   -0.0001 </r>
       <r>    0.8403   -0.0000 </r>
       <r>    1.0783   -0.0000 </r>
       <r>    1.2375   -0.0000 </r>
       <r>    1.3790   -0.0000 </r>
       <r>    1.5817   -0.0000 </r>
       <r>    1.8593   -0.0000 </r>
       <r>    2.0127   -0.0000 </r>
       <r>    2.2261   -0.0000 </r>
       <r>    2.2834   -0.0000 </r>
       <r>    2.5000   -0.0000 </r>
       <r>    2.8261    0.0000 </r>
       <r>    3.0785    0.0000 </r>
       <r>    3.1871    0.0000 </r>
       <r>    3.4402    0.0000 </r>
       <r>    3.8296    0.0000 </r>
       <r>    4.2357    0.0000 </r>
       <r>    4.5183    0.0000 </r>
       <r>    4.7285    0.0000 </r>
       <r>    4.9177    0.0000 </r>
       <r>    5.3546    0.0000 </r>
       <r>    5.9447    0.0000 </r>
       <r>    6.0039    0.0000 </r>
       <r>    6.3395    0.0000 </r>
       <r>    6.5701    0.0000 </r>
       <r>    6.8616    0.0000 </r>
       <r>    7.1474    0.0000 </r>
       <r>    7.2746    0.0000 </r>
       <r>    7.3977    0.0000 </r>
       <r>    7.6156    0.0000 </r>
       <r>    7.7414    0.0000 </r>
       <r>    8.1987    0.0000 </r>
       <r>    8.3730    0.0000 </r>
       <r>    8.5904    0.0000 </r>
      </set>
      <set comment="kpoint 7">
       <r>  -56.7725    1.0000 </r>
       <r>  -56.4582    1.0000 </r>
       <r>  -56.1323    1.0000 </r>
       <r>  -56.0605    1.0000 </r>
       <r>  -33.2012    1.0000 </r>
       <r>  -33.0195    1.0000 </r>
       <r>  -32.9320    1.0000 </r>
       <r>  -32.8289    1.0000 </r>
       <r>  -32.7114    1.0000 </r>
       <r>  -32.7055    1.0000 </r>
       <r>  -32.5301    1.0000 </r>
       <r>  -32.4388    1.0000 </r>
       <r>  -32.4197    1.0000 </r>
       <r>  -32.3904    1.0000 </r>
       <r>  -32.1880    1.0000 </r>
       <r>  -32.1653    1.0000 </r>
       <r>   -6.6102    1.0000 </r>
       <r>   -5.3104    1.0000 </r>
       <r>   -3.8473    1.0000 </r>
       <r>   -3.5141    1.0000 </r>
       <r>   -2.6668    1.0000 </r>
       <r>   -2.0835    1.0000 </r>
       <r>   -1.7035    1.0000 </r>
       <r>   -1.1804    1.0000 </r>
       <r>   -0.8485    1.0000 </r>
       <r>   -0.5725    1.0000 </r>
       <r>   -0.2807    1.0000 </r>
       <r>    0.0115    1.0000 </r>
       <r>    0.1670    1.0000 </r>
       <r>    0.3805    1.0354 </r>
       <r>    0.5995   -0.0224 </r>
       <r>    0.8668   -0.0000 </r>
       <r>    0.9568   -0.0000 </r>
       <r>    1.0282   -0.0000 </r>
       <r>    1.3104   -0.0000 </r>
       <r>    1.4437   -0.0000 </r>
       <r>    1.7535   -0.0000 </r>
       <r>    1.8793   -0.0000 </r>
       <r>    2.0358   -0.0000 </r>
       <r>    2.3066   -0.0000 </r>
       <r>    2.4055   -0.0000 </r>
       <r>    2.6229    0.0000 </r>
       <r>    2.8675    0.0000 </r>
       <r>    3.0386    0.0000 </r>
       <r>    3.2322    0.0000 </r>
       <r>    3.6002    0.0000 </r>
       <r>    4.3220    0.0000 </r>
       <r>    4.6267    0.0000 </r>
       <r>    5.0939    0.0000 </r>
       <r>    5.3178    0.0000 </r>
       <r>    5.5435    0.0000 </r>
       <r>    5.7651    0.0000 </r>
       <r>    6.0679    0.0000 </r>
       <r>    6.3829    0.0000 </r>
       <r>    6.7281    0.0000 </r>
       <r>    6.8196    0.0000 </r>
       <r>    7.2805    0.0000 </r>
       <r>    7.3838    0.0000 </r>
       <r>    7.5175    0.0000 </r>
       <r>    7.7734    0.0000 </r>
       <r>    8.2658    0.0000 </r>
       <r>    8.3404    0.0000 </r>
       <r>    8.4639    0.0000 </r>
       <r>    8.8157    0.0000 </r>
      </set>
      <set comment="kpoint 8">
       <r>  -56.7719    1.0000 </r>
       <r>  -56.4572    1.0000 </r>
       <r>  -56.1289    1.0000 </r>
       <r>  -56.0647    1.0000 </r>
       <r>  -33.2016    1.0000 </r>
       <r>  -33.0210    1.0000 </r>
       <r>  -32.9388    1.0000 </r>
       <r>  -32.8330    1.0000 </r>
       <r>  -32.7138    1.0000 </r>
       <r>  -32.7109    1.0000 </r>
       <r>  -32.5278    1.0000 </r>
       <r>  -32.4432    1.0000 </r>
       <r>  -32.4209    1.0000 </r>
       <r>  -32.3994    1.0000 </r>
       <r>  -32.1739    1.0000 </r>
       <r>  -32.1604    1.0000 </r>
       <r>   -5.5924    1.0000 </r>
       <r>   -4.9649    1.0000 </r>
       <r>   -4.5515    1.0000 </r>
       <r>   -3.8066    1.0000 </r>
       <r>   -2.6669    1.0000 </r>
       <r>   -2.1778    1.0000 </r>
       <r>   -1.7564    1.0000 </r>
       <r>   -1.0797    1.0000 </r>
       <r>   -0.8077    1.0000 </r>
       <r>   -0.6927    1.0000 </r>
       <r>   -0.2305    1.0000 </r>
       <r>   -0.0759    1.0000 </r>
       <r>    0.2701    1.0025 </r>
       <r>    0.4973    0.5390 </r>
       <r>    0.5376    0.2180 </r>
       <r>    0.5472    0.1569 </r>
       <r>    0.9379   -0.0000 </r>
       <r>    1.1900   -0.0000 </r>
       <r>    1.2361   -0.0000 </r>
       <r>    1.5887   -0.0000 </r>
       <r>    1.7710   -0.0000 </r>
       <r>    1.9184   -0.0000 </r>
       <r>    2.0813   -0.0000 </r>
       <r>    2.2472   -0.0000 </r>
       <r>    2.2953   -0.0000 </r>
       <r>    2.4370   -0.0000 </r>
       <r>    2.7102    0.0000 </r>
       <r>    2.8181    0.0000 </r>
       <r>    3.1710    0.0000 </r>
       <r>    3.5208    0.0000 </r>
       <r>    4.2002    0.0000 </r>
       <r>    4.6584    0.0000 </r>
       <r>    5.1225    0.0000 </r>
       <r>    5.2243    0.0000 </r>
       <r>    5.5579    0.0000 </r>
       <r>    5.9859    0.0000 </r>
       <r>    6.2818    0.0000 </r>
       <r>    6.4922    0.0000 </r>
       <r>    6.5125    0.0000 </r>
       <r>    6.8236    0.0000 </r>
       <r>    6.9586    0.0000 </r>
       <r>    7.1360    0.0000 </r>
       <r>    7.4299    0.0000 </r>
       <r>    7.7252    0.0000 </r>
       <r>    7.9575    0.0000 </r>
       <r>    8.1797    0.0000 </r>
       <r>    8.2460    0.0000 </r>
       <r>    8.4444    0.0000 </r>
      </set>
      <set comment="kpoint 9">
       <r>  -56.7719    1.0000 </r>
       <r>  -56.4572    1.0000 </r>
       <r>  -56.1289    1.0000 </r>
       <r>  -56.0647    1.0000 </r>
       <r>  -33.2015    1.0000 </r>
       <r>  -33.0207    1.0000 </r>
       <r>  -32.9388    1.0000 </r>
       <r>  -32.8330    1.0000 </r>
       <r>  -32.7137    1.0000 </r>
       <r>  -32.7102    1.0000 </r>
       <r>  -32.5271    1.0000 </r>
       <r>  -32.4434    1.0000 </r>
       <r>  -32.4210    1.0000 </r>
       <r>  -32.3994    1.0000 </r>
       <r>  -32.1739    1.0000 </r>
       <r>  -32.1605    1.0000 </r>
       <r>   -6.2333    1.0000 </r>
       <r>   -4.8205    1.0000 </r>
       <r>   -4.4779    1.0000 </r>
       <r>   -3.7792    1.0000 </r>
       <r>   -2.4699    1.0000 </r>
       <r>   -1.8127    1.0000 </r>
       <r>   -1.5921    1.0000 </r>
       <r>   -1.0065    1.0000 </r>
       <r>   -0.8045    1.0000 </r>
       <r>   -0.6168    1.0000 </r>
       <r>   -0.3353    1.0000 </r>
       <r>   -0.0097    1.0000 </r>
       <r>    0.1653    1.0000 </r>
       <r>    0.2818    1.0040 </r>
       <r>    0.4190    0.9972 </r>
       <r>    0.7961   -0.0001 </r>
       <r>    0.9699   -0.0000 </r>
       <r>    1.1013   -0.0000 </r>
       <r>    1.3967   -0.0000 </r>
       <r>    1.7058   -0.0000 </r>
       <r>    1.8974   -0.0000 </r>
       <r>    2.1140   -0.0000 </r>
       <r>    2.2919   -0.0000 </r>
       <r>    2.3490   -0.0000 </r>
       <r>    2.3921   -0.0000 </r>
       <r>    2.6154    0.0000 </r>
       <r>    2.7268    0.0000 </r>
       <r>    3.0937    0.0000 </r>
       <r>    3.2384    0.0000 </r>
       <r>    3.5347    0.0000 </r>
       <r>    4.1471    0.0000 </r>
       <r>    4.5013    0.0000 </r>
       <r>    4.8431    0.0000 </r>
       <r>    4.9684    0.0000 </r>
       <r>    5.2850    0.0000 </r>
       <r>    5.4296    0.0000 </r>
       <r>    5.7578    0.0000 </r>
       <r>    5.9029    0.0000 </r>
       <r>    6.5439    0.0000 </r>
       <r>    6.6698    0.0000 </r>
       <r>    6.7946    0.0000 </r>
       <r>    6.9652    0.0000 </r>
       <r>    7.3454    0.0000 </r>
       <r>    7.5382    0.0000 </r>
       <r>    7.9772    0.0000 </r>
       <r>    8.0741    0.0000 </r>
       <r>    8.4381    0.0000 </r>
       <r>    8.6150    0.0000 </r>
      </set>
      <set comment="kpoint 10">
       <r>  -56.7725    1.0000 </r>
       <r>  -56.4582    1.0000 </r>
       <r>  -56.1324    1.0000 </r>
       <r>  -56.0604    1.0000 </r>
       <r>  -33.2010    1.0000 </r>
       <r>  -33.0190    1.0000 </r>
       <r>  -32.9319    1.0000 </r>
       <r>  -32.8288    1.0000 </r>
       <r>  -32.7099    1.0000 </r>
       <r>  -32.7052    1.0000 </r>
       <r>  -32.5285    1.0000 </r>
       <r>  -32.4396    1.0000 </r>
       <r>  -32.4199    1.0000 </r>
       <r>  -32.3903    1.0000 </r>
       <r>  -32.1881    1.0000 </r>
       <r>  -32.1655    1.0000 </r>
       <r>   -7.1707    1.0000 </r>
       <r>   -5.6594    1.0000 </r>
       <r>   -3.8729    1.0000 </r>
       <r>   -3.2965    1.0000 </r>
       <r>   -1.9831    1.0000 </r>
       <r>   -1.5313    1.0000 </r>
       <r>   -1.3785    1.0000 </r>
       <r>   -1.1416    1.0000 </r>
       <r>   -0.9153    1.0000 </r>
       <r>   -0.6942    1.0000 </r>
       <r>   -0.4323    1.0000 </r>
       <r>   -0.1681    1.0000 </r>
       <r>    0.0935    1.0000 </r>
       <r>    0.2642    1.0020 </r>
       <r>    0.5716    0.0412 </r>
       <r>    0.8326   -0.0000 </r>
       <r>    1.0019   -0.0000 </r>
       <r>    1.3478   -0.0000 </r>
       <r>    1.6094   -0.0000 </r>
       <r>    1.7344   -0.0000 </r>
       <r>    2.0841   -0.0000 </r>
       <r>    2.3115   -0.0000 </r>
       <r>    2.4491   -0.0000 </r>
       <r>    2.6320    0.0000 </r>
       <r>    2.8167    0.0000 </r>
       <r>    2.9323    0.0000 </r>
       <r>    3.0676    0.0000 </r>
       <r>    3.2399    0.0000 </r>
       <r>    3.4697    0.0000 </r>
       <r>    3.7671    0.0000 </r>
       <r>    3.8590    0.0000 </r>
       <r>    4.3576    0.0000 </r>
       <r>    4.5422    0.0000 </r>
       <r>    4.6768    0.0000 </r>
       <r>    4.8710    0.0000 </r>
       <r>    5.2412    0.0000 </r>
       <r>    5.5125    0.0000 </r>
       <r>    5.7324    0.0000 </r>
       <r>    6.1687    0.0000 </r>
       <r>    6.3086    0.0000 </r>
       <r>    6.7985    0.0000 </r>
       <r>    7.0537    0.0000 </r>
       <r>    7.2144    0.0000 </r>
       <r>    7.6959    0.0000 </r>
       <r>    7.9260    0.0000 </r>
       <r>    8.2006    0.0000 </r>
       <r>    8.4488    0.0000 </r>
       <r>    8.6126    0.0000 </r>
      </set>
      <set comment="kpoint 11">
       <r>  -56.7731    1.0000 </r>
       <r>  -56.4595    1.0000 </r>
       <r>  -56.1361    1.0000 </r>
       <r>  -56.0557    1.0000 </r>
       <r>  -33.2005    1.0000 </r>
       <r>  -33.0170    1.0000 </r>
       <r>  -32.9235    1.0000 </r>
       <r>  -32.8237    1.0000 </r>
       <r>  -32.7095    1.0000 </r>
       <r>  -32.6952    1.0000 </r>
       <r>  -32.5308    1.0000 </r>
       <r>  -32.4345    1.0000 </r>
       <r>  -32.4117    1.0000 </r>
       <r>  -32.3848    1.0000 </r>
       <r>  -32.2007    1.0000 </r>
       <r>  -32.1775    1.0000 </r>
       <r>   -7.6890    1.0000 </r>
       <r>   -6.1413    1.0000 </r>
       <r>   -4.1937    1.0000 </r>
       <r>   -2.4313    1.0000 </r>
       <r>   -1.9050    1.0000 </r>
       <r>   -1.6380    1.0000 </r>
       <r>   -1.5249    1.0000 </r>
       <r>   -1.0197    1.0000 </r>
       <r>   -0.8610    1.0000 </r>
       <r>   -0.5146    1.0000 </r>
       <r>   -0.4688    1.0000 </r>
       <r>   -0.1954    1.0000 </r>
       <r>    0.1541    1.0000 </r>
       <r>    0.4118    1.0116 </r>
       <r>    0.6888   -0.0119 </r>
       <r>    0.8910   -0.0000 </r>
       <r>    1.0579   -0.0000 </r>
       <r>    1.3995   -0.0000 </r>
       <r>    1.5298   -0.0000 </r>
       <r>    1.9313   -0.0000 </r>
       <r>    2.0922   -0.0000 </r>
       <r>    2.2540   -0.0000 </r>
       <r>    2.4713   -0.0000 </r>
       <r>    2.6473    0.0000 </r>
       <r>    2.8626    0.0000 </r>
       <r>    3.0372    0.0000 </r>
       <r>    3.1917    0.0000 </r>
       <r>    3.4295    0.0000 </r>
       <r>    3.7487    0.0000 </r>
       <r>    3.9616    0.0000 </r>
       <r>    4.0868    0.0000 </r>
       <r>    4.2513    0.0000 </r>
       <r>    4.6333    0.0000 </r>
       <r>    4.7540    0.0000 </r>
       <r>    4.9275    0.0000 </r>
       <r>    5.3271    0.0000 </r>
       <r>    5.4787    0.0000 </r>
       <r>    5.8297    0.0000 </r>
       <r>    6.3053    0.0000 </r>
       <r>    6.4076    0.0000 </r>
       <r>    6.7100    0.0000 </r>
       <r>    7.0420    0.0000 </r>
       <r>    7.3162    0.0000 </r>
       <r>    7.4729    0.0000 </r>
       <r>    7.6022    0.0000 </r>
       <r>    8.0440    0.0000 </r>
       <r>    8.1452    0.0000 </r>
       <r>    8.4881    0.0000 </r>
      </set>
      <set comment="kpoint 12">
       <r>  -56.7734    1.0000 </r>
       <r>  -56.4600    1.0000 </r>
       <r>  -56.1375    1.0000 </r>
       <r>  -56.0538    1.0000 </r>
       <r>  -33.2006    1.0000 </r>
       <r>  -33.0169    1.0000 </r>
       <r>  -32.9199    1.0000 </r>
       <r>  -32.8219    1.0000 </r>
       <r>  -32.7117    1.0000 </r>
       <r>  -32.6907    1.0000 </r>
       <r>  -32.5340    1.0000 </r>
       <r>  -32.4312    1.0000 </r>
       <r>  -32.4056    1.0000 </r>
       <r>  -32.3846    1.0000 </r>
       <r>  -32.2047    1.0000 </r>
       <r>  -32.1843    1.0000 </r>
       <r>   -7.2268    1.0000 </r>
       <r>   -5.8961    1.0000 </r>
       <r>   -4.3543    1.0000 </r>
       <r>   -3.4308    1.0000 </r>
       <r>   -2.7896    1.0000 </r>
       <r>   -1.9175    1.0000 </r>
       <r>   -1.0865    1.0000 </r>
       <r>   -0.7045    1.0000 </r>
       <r>   -0.6012    1.0000 </r>
       <r>   -0.3112    1.0000 </r>
       <r>   -0.0764    1.0000 </r>
       <r>    0.1870    1.0000 </r>
       <r>    0.1996    1.0001 </r>
       <r>    0.5922   -0.0119 </r>
       <r>    0.6253   -0.0354 </r>
       <r>    0.9234   -0.0000 </r>
       <r>    1.0903   -0.0000 </r>
       <r>    1.1025   -0.0000 </r>
       <r>    1.2087   -0.0000 </r>
       <r>    1.3419   -0.0000 </r>
       <r>    1.6260   -0.0000 </r>
       <r>    1.8657   -0.0000 </r>
       <r>    1.9878   -0.0000 </r>
       <r>    2.2265   -0.0000 </r>
       <r>    2.3617   -0.0000 </r>
       <r>    2.4536   -0.0000 </r>
       <r>    2.9151    0.0000 </r>
       <r>    3.2283    0.0000 </r>
       <r>    3.2996    0.0000 </r>
       <r>    3.8117    0.0000 </r>
       <r>    4.4566    0.0000 </r>
       <r>    4.6718    0.0000 </r>
       <r>    4.7173    0.0000 </r>
       <r>    5.1691    0.0000 </r>
       <r>    5.5673    0.0000 </r>
       <r>    5.8829    0.0000 </r>
       <r>    6.1038    0.0000 </r>
       <r>    6.2316    0.0000 </r>
       <r>    6.5596    0.0000 </r>
       <r>    6.8024    0.0000 </r>
       <r>    7.2202    0.0000 </r>
       <r>    7.4824    0.0000 </r>
       <r>    7.6976    0.0000 </r>
       <r>    7.7388    0.0000 </r>
       <r>    7.9628    0.0000 </r>
       <r>    8.4315    0.0000 </r>
       <r>    8.6460    0.0000 </r>
       <r>    8.9073    0.0000 </r>
      </set>
      <set comment="kpoint 13">
       <r>  -56.7731    1.0000 </r>
       <r>  -56.4594    1.0000 </r>
       <r>  -56.1360    1.0000 </r>
       <r>  -56.0558    1.0000 </r>
       <r>  -33.2009    1.0000 </r>
       <r>  -33.0179    1.0000 </r>
       <r>  -32.9237    1.0000 </r>
       <r>  -32.8239    1.0000 </r>
       <r>  -32.7122    1.0000 </r>
       <r>  -32.6956    1.0000 </r>
       <r>  -32.5334    1.0000 </r>
       <r>  -32.4329    1.0000 </r>
       <r>  -32.4118    1.0000 </r>
       <r>  -32.3851    1.0000 </r>
       <r>  -32.2004    1.0000 </r>
       <r>  -32.1771    1.0000 </r>
       <r>   -6.7985    1.0000 </r>
       <r>   -5.6948    1.0000 </r>
       <r>   -4.2386    1.0000 </r>
       <r>   -3.5414    1.0000 </r>
       <r>   -2.8198    1.0000 </r>
       <r>   -2.0300    1.0000 </r>
       <r>   -1.3996    1.0000 </r>
       <r>   -0.9249    1.0000 </r>
       <r>   -0.8213    1.0000 </r>
       <r>   -0.2984    1.0000 </r>
       <r>   -0.0199    1.0000 </r>
       <r>    0.1003    1.0000 </r>
       <r>    0.1848    1.0000 </r>
       <r>    0.5341    0.2423 </r>
       <r>    0.6481   -0.0293 </r>
       <r>    0.8720   -0.0000 </r>
       <r>    1.0244   -0.0000 </r>
       <r>    1.1244   -0.0000 </r>
       <r>    1.2434   -0.0000 </r>
       <r>    1.3194   -0.0000 </r>
       <r>    1.6002   -0.0000 </r>
       <r>    1.6784   -0.0000 </r>
       <r>    1.8759   -0.0000 </r>
       <r>    2.0203   -0.0000 </r>
       <r>    2.2289   -0.0000 </r>
       <r>    2.4238   -0.0000 </r>
       <r>    2.8222    0.0000 </r>
       <r>    3.0420    0.0000 </r>
       <r>    3.2525    0.0000 </r>
       <r>    3.8575    0.0000 </r>
       <r>    4.2779    0.0000 </r>
       <r>    4.8590    0.0000 </r>
       <r>    5.0464    0.0000 </r>
       <r>    5.3820    0.0000 </r>
       <r>    5.6784    0.0000 </r>
       <r>    6.1279    0.0000 </r>
       <r>    6.4195    0.0000 </r>
       <r>    6.5674    0.0000 </r>
       <r>    6.7950    0.0000 </r>
       <r>    6.9707    0.0000 </r>
       <r>    7.1178    0.0000 </r>
       <r>    7.3061    0.0000 </r>
       <r>    7.5778    0.0000 </r>
       <r>    7.8646    0.0000 </r>
       <r>    8.1052    0.0000 </r>
       <r>    8.2326    0.0000 </r>
       <r>    8.5976    0.0000 </r>
       <r>    8.7939    0.0000 </r>
      </set>
      <set comment="kpoint 14">
       <r>  -56.7724    1.0000 </r>
       <r>  -56.4582    1.0000 </r>
       <r>  -56.1323    1.0000 </r>
       <r>  -56.0605    1.0000 </r>
       <r>  -33.2013    1.0000 </r>
       <r>  -33.0198    1.0000 </r>
       <r>  -32.9321    1.0000 </r>
       <r>  -32.8290    1.0000 </r>
       <r>  -32.7121    1.0000 </r>
       <r>  -32.7057    1.0000 </r>
       <r>  -32.5308    1.0000 </r>
       <r>  -32.4385    1.0000 </r>
       <r>  -32.4196    1.0000 </r>
       <r>  -32.3904    1.0000 </r>
       <r>  -32.1879    1.0000 </r>
       <r>  -32.1652    1.0000 </r>
       <r>   -6.1751    1.0000 </r>
       <r>   -5.2550    1.0000 </r>
       <r>   -3.8209    1.0000 </r>
       <r>   -3.5863    1.0000 </r>
       <r>   -3.1813    1.0000 </r>
       <r>   -2.1687    1.0000 </r>
       <r>   -1.8618    1.0000 </r>
       <r>   -1.5356    1.0000 </r>
       <r>   -0.6623    1.0000 </r>
       <r>   -0.4484    1.0000 </r>
       <r>   -0.2098    1.0000 </r>
       <r>    0.1441    1.0000 </r>
       <r>    0.2455    1.0009 </r>
       <r>    0.3798    1.0355 </r>
       <r>    0.5672    0.0577 </r>
       <r>    0.8490   -0.0000 </r>
       <r>    0.9773   -0.0000 </r>
       <r>    1.0881   -0.0000 </r>
       <r>    1.3972   -0.0000 </r>
       <r>    1.4906   -0.0000 </r>
       <r>    1.6225   -0.0000 </r>
       <r>    1.8099   -0.0000 </r>
       <r>    1.9564   -0.0000 </r>
       <r>    2.1009   -0.0000 </r>
       <r>    2.1387   -0.0000 </r>
       <r>    2.2663   -0.0000 </r>
       <r>    2.6746    0.0000 </r>
       <r>    2.8436    0.0000 </r>
       <r>    3.1473    0.0000 </r>
       <r>    3.5901    0.0000 </r>
       <r>    4.1334    0.0000 </r>
       <r>    4.7775    0.0000 </r>
       <r>    5.3461    0.0000 </r>
       <r>    5.4755    0.0000 </r>
       <r>    6.1222    0.0000 </r>
       <r>    6.2517    0.0000 </r>
       <r>    6.4263    0.0000 </r>
       <r>    6.6816    0.0000 </r>
       <r>    6.8761    0.0000 </r>
       <r>    7.0093    0.0000 </r>
       <r>    7.3121    0.0000 </r>
       <r>    7.5574    0.0000 </r>
       <r>    7.6298    0.0000 </r>
       <r>    7.8688    0.0000 </r>
       <r>    8.0624    0.0000 </r>
       <r>    8.1615    0.0000 </r>
       <r>    8.3262    0.0000 </r>
       <r>    8.5748    0.0000 </r>
      </set>
      <set comment="kpoint 15">
       <r>  -56.7719    1.0000 </r>
       <r>  -56.4572    1.0000 </r>
       <r>  -56.1289    1.0000 </r>
       <r>  -56.0647    1.0000 </r>
       <r>  -33.2016    1.0000 </r>
       <r>  -33.0210    1.0000 </r>
       <r>  -32.9388    1.0000 </r>
       <r>  -32.8330    1.0000 </r>
       <r>  -32.7138    1.0000 </r>
       <r>  -32.7110    1.0000 </r>
       <r>  -32.5279    1.0000 </r>
       <r>  -32.4431    1.0000 </r>
       <r>  -32.4209    1.0000 </r>
       <r>  -32.3994    1.0000 </r>
       <r>  -32.1739    1.0000 </r>
       <r>  -32.1604    1.0000 </r>
       <r>   -5.4632    1.0000 </r>
       <r>   -5.0155    1.0000 </r>
       <r>   -4.5338    1.0000 </r>
       <r>   -3.8166    1.0000 </r>
       <r>   -2.6275    1.0000 </r>
       <r>   -2.3447    1.0000 </r>
       <r>   -1.9243    1.0000 </r>
       <r>   -1.0827    1.0000 </r>
       <r>   -0.7332    1.0000 </r>
       <r>   -0.6675    1.0000 </r>
       <r>   -0.2171    1.0000 </r>
       <r>    0.0203    1.0000 </r>
       <r>    0.2646    1.0020 </r>
       <r>    0.4124    1.0106 </r>
       <r>    0.5200    0.3499 </r>
       <r>    0.5935   -0.0141 </r>
       <r>    0.9664   -0.0000 </r>
       <r>    1.1905   -0.0000 </r>
       <r>    1.2928   -0.0000 </r>
       <r>    1.6920   -0.0000 </r>
       <r>    1.7832   -0.0000 </r>
       <r>    1.8939   -0.0000 </r>
       <r>    2.0668   -0.0000 </r>
       <r>    2.1701   -0.0000 </r>
       <r>    2.3667   -0.0000 </r>
       <r>    2.4308   -0.0000 </r>
       <r>    2.5913    0.0000 </r>
       <r>    2.7853    0.0000 </r>
       <r>    3.0685    0.0000 </r>
       <r>    3.4583    0.0000 </r>
       <r>    4.0322    0.0000 </r>
       <r>    4.7222    0.0000 </r>
       <r>    5.2323    0.0000 </r>
       <r>    5.3927    0.0000 </r>
       <r>    5.7633    0.0000 </r>
       <r>    6.1056    0.0000 </r>
       <r>    6.2066    0.0000 </r>
       <r>    6.3387    0.0000 </r>
       <r>    6.5913    0.0000 </r>
       <r>    6.9404    0.0000 </r>
       <r>    7.0732    0.0000 </r>
       <r>    7.3057    0.0000 </r>
       <r>    7.4190    0.0000 </r>
       <r>    7.5765    0.0000 </r>
       <r>    7.8046    0.0000 </r>
       <r>    8.0004    0.0000 </r>
       <r>    8.1791    0.0000 </r>
       <r>    8.3965    0.0000 </r>
      </set>
      <set comment="kpoint 16">
       <r>  -56.7719    1.0000 </r>
       <r>  -56.4572    1.0000 </r>
       <r>  -56.1289    1.0000 </r>
       <r>  -56.0647    1.0000 </r>
       <r>  -33.2015    1.0000 </r>
       <r>  -33.0208    1.0000 </r>
       <r>  -32.9388    1.0000 </r>
       <r>  -32.8330    1.0000 </r>
       <r>  -32.7138    1.0000 </r>
       <r>  -32.7103    1.0000 </r>
       <r>  -32.5272    1.0000 </r>
       <r>  -32.4434    1.0000 </r>
       <r>  -32.4211    1.0000 </r>
       <r>  -32.3994    1.0000 </r>
       <r>  -32.1739    1.0000 </r>
       <r>  -32.1605    1.0000 </r>
       <r>   -6.1671    1.0000 </r>
       <r>   -4.7838    1.0000 </r>
       <r>   -4.5565    1.0000 </r>
       <r>   -3.7845    1.0000 </r>
       <r>   -2.5183    1.0000 </r>
       <r>   -1.7163    1.0000 </r>
       <r>   -1.4809    1.0000 </r>
       <r>   -1.1082    1.0000 </r>
       <r>   -0.8640    1.0000 </r>
       <r>   -0.6744    1.0000 </r>
       <r>   -0.3021    1.0000 </r>
       <r>   -0.0901    1.0000 </r>
       <r>    0.1806    1.0000 </r>
       <r>    0.3290    1.0173 </r>
       <r>    0.4662    0.7821 </r>
       <r>    0.7783   -0.0003 </r>
       <r>    0.9117   -0.0000 </r>
       <r>    1.1005   -0.0000 </r>
       <r>    1.3826   -0.0000 </r>
       <r>    1.6285   -0.0000 </r>
       <r>    1.7916   -0.0000 </r>
       <r>    2.0925   -0.0000 </r>
       <r>    2.2859   -0.0000 </r>
       <r>    2.3502   -0.0000 </r>
       <r>    2.3786   -0.0000 </r>
       <r>    2.5093    0.0000 </r>
       <r>    2.7790    0.0000 </r>
       <r>    3.0543    0.0000 </r>
       <r>    3.2263    0.0000 </r>
       <r>    3.7726    0.0000 </r>
       <r>    4.1746    0.0000 </r>
       <r>    4.4795    0.0000 </r>
       <r>    4.8067    0.0000 </r>
       <r>    5.1069    0.0000 </r>
       <r>    5.3143    0.0000 </r>
       <r>    5.5607    0.0000 </r>
       <r>    5.7824    0.0000 </r>
       <r>    5.9024    0.0000 </r>
       <r>    6.4185    0.0000 </r>
       <r>    6.5718    0.0000 </r>
       <r>    6.8927    0.0000 </r>
       <r>    7.0026    0.0000 </r>
       <r>    7.4119    0.0000 </r>
       <r>    7.6575    0.0000 </r>
       <r>    7.8513    0.0000 </r>
       <r>    8.1102    0.0000 </r>
       <r>    8.2962    0.0000 </r>
       <r>    8.6942    0.0000 </r>
      </set>
      <set comment="kpoint 17">
       <r>  -56.7725    1.0000 </r>
       <r>  -56.4582    1.0000 </r>
       <r>  -56.1323    1.0000 </r>
       <r>  -56.0605    1.0000 </r>
       <r>  -33.2011    1.0000 </r>
       <r>  -33.0192    1.0000 </r>
       <r>  -32.9319    1.0000 </r>
       <r>  -32.8289    1.0000 </r>
       <r>  -32.7107    1.0000 </r>
       <r>  -32.7053    1.0000 </r>
       <r>  -32.5292    1.0000 </r>
       <r>  -32.4392    1.0000 </r>
       <r>  -32.4198    1.0000 </r>
       <r>  -32.3903    1.0000 </r>
       <r>  -32.1881    1.0000 </r>
       <r>  -32.1654    1.0000 </r>
       <r>   -6.9459    1.0000 </r>
       <r>   -5.4987    1.0000 </r>
       <r>   -3.8464    1.0000 </r>
       <r>   -3.4041    1.0000 </r>
       <r>   -2.1617    1.0000 </r>
       <r>   -1.9522    1.0000 </r>
       <r>   -1.4305    1.0000 </r>
       <r>   -1.1172    1.0000 </r>
       <r>   -0.9187    1.0000 </r>
       <r>   -0.6918    1.0000 </r>
       <r>   -0.2389    1.0000 </r>
       <r>   -0.1444    1.0000 </r>
       <r>    0.0866    1.0000 </r>
       <r>    0.2803    1.0037 </r>
       <r>    0.6165   -0.0344 </r>
       <r>    0.8051   -0.0001 </r>
       <r>    0.9407   -0.0000 </r>
       <r>    1.2037   -0.0000 </r>
       <r>    1.4388   -0.0000 </r>
       <r>    1.5850   -0.0000 </r>
       <r>    1.8256   -0.0000 </r>
       <r>    2.1172   -0.0000 </r>
       <r>    2.2422   -0.0000 </r>
       <r>    2.3969   -0.0000 </r>
       <r>    2.6348    0.0000 </r>
       <r>    2.7645    0.0000 </r>
       <r>    2.9361    0.0000 </r>
       <r>    3.1559    0.0000 </r>
       <r>    3.4275    0.0000 </r>
       <r>    3.8337    0.0000 </r>
       <r>    4.3239    0.0000 </r>
       <r>    4.5631    0.0000 </r>
       <r>    4.7775    0.0000 </r>
       <r>    4.9284    0.0000 </r>
       <r>    5.0764    0.0000 </r>
       <r>    5.5160    0.0000 </r>
       <r>    5.9101    0.0000 </r>
       <r>    6.0787    0.0000 </r>
       <r>    6.2058    0.0000 </r>
       <r>    6.3837    0.0000 </r>
       <r>    6.9148    0.0000 </r>
       <r>    7.2615    0.0000 </r>
       <r>    7.4381    0.0000 </r>
       <r>    7.8002    0.0000 </r>
       <r>    8.1021    0.0000 </r>
       <r>    8.2563    0.0000 </r>
       <r>    8.4951    0.0000 </r>
       <r>    8.7580    0.0000 </r>
      </set>
      <set comment="kpoint 18">
       <r>  -56.7731    1.0000 </r>
       <r>  -56.4594    1.0000 </r>
       <r>  -56.1361    1.0000 </r>
       <r>  -56.0557    1.0000 </r>
       <r>  -33.2007    1.0000 </r>
       <r>  -33.0175    1.0000 </r>
       <r>  -32.9236    1.0000 </r>
       <r>  -32.8238    1.0000 </r>
       <r>  -32.7110    1.0000 </r>
       <r>  -32.6954    1.0000 </r>
       <r>  -32.5322    1.0000 </r>
       <r>  -32.4336    1.0000 </r>
       <r>  -32.4117    1.0000 </r>
       <r>  -32.3850    1.0000 </r>
       <r>  -32.2006    1.0000 </r>
       <r>  -32.1773    1.0000 </r>
       <r>   -7.2987    1.0000 </r>
       <r>   -5.8629    1.0000 </r>
       <r>   -4.1532    1.0000 </r>
       <r>   -2.9546    1.0000 </r>
       <r>   -2.6227    1.0000 </r>
       <r>   -1.7774    1.0000 </r>
       <r>   -1.3881    1.0000 </r>
       <r>   -1.0540    1.0000 </r>
       <r>   -0.8054    1.0000 </r>
       <r>   -0.4387    1.0000 </r>
       <r>   -0.2263    1.0000 </r>
       <r>   -0.0247    1.0000 </r>
       <r>    0.1507    1.0000 </r>
       <r>    0.4423    0.9183 </r>
       <r>    0.7872   -0.0002 </r>
       <r>    0.8566   -0.0000 </r>
       <r>    1.0743   -0.0000 </r>
       <r>    1.2103   -0.0000 </r>
       <r>    1.3610   -0.0000 </r>
       <r>    1.4953   -0.0000 </r>
       <r>    1.8202   -0.0000 </r>
       <r>    1.9582   -0.0000 </r>
       <r>    2.1701   -0.0000 </r>
       <r>    2.2463   -0.0000 </r>
       <r>    2.4422   -0.0000 </r>
       <r>    2.7961    0.0000 </r>
       <r>    3.0196    0.0000 </r>
       <r>    3.1856    0.0000 </r>
       <r>    3.3804    0.0000 </r>
       <r>    3.8102    0.0000 </r>
       <r>    4.2439    0.0000 </r>
       <r>    4.6134    0.0000 </r>
       <r>    4.7347    0.0000 </r>
       <r>    4.9549    0.0000 </r>
       <r>    5.4178    0.0000 </r>
       <r>    5.9835    0.0000 </r>
       <r>    6.1267    0.0000 </r>
       <r>    6.3897    0.0000 </r>
       <r>    6.6789    0.0000 </r>
       <r>    6.8862    0.0000 </r>
       <r>    7.2265    0.0000 </r>
       <r>    7.3018    0.0000 </r>
       <r>    7.3981    0.0000 </r>
       <r>    7.7019    0.0000 </r>
       <r>    7.7727    0.0000 </r>
       <r>    8.2195    0.0000 </r>
       <r>    8.3474    0.0000 </r>
       <r>    8.5208    0.0000 </r>
      </set>
      <set comment="kpoint 19">
       <r>  -56.7734    1.0000 </r>
       <r>  -56.4599    1.0000 </r>
       <r>  -56.1375    1.0000 </r>
       <r>  -56.0538    1.0000 </r>
       <r>  -33.2008    1.0000 </r>
       <r>  -33.0172    1.0000 </r>
       <r>  -32.9200    1.0000 </r>
       <r>  -32.8219    1.0000 </r>
       <r>  -32.7126    1.0000 </r>
       <r>  -32.6908    1.0000 </r>
       <r>  -32.5348    1.0000 </r>
       <r>  -32.4307    1.0000 </r>
       <r>  -32.4057    1.0000 </r>
       <r>  -32.3847    1.0000 </r>
       <r>  -32.2046    1.0000 </r>
       <r>  -32.1842    1.0000 </r>
       <r>   -6.7673    1.0000 </r>
       <r>   -5.8949    1.0000 </r>
       <r>   -4.3370    1.0000 </r>
       <r>   -3.9799    1.0000 </r>
       <r>   -2.7998    1.0000 </r>
       <r>   -2.2198    1.0000 </r>
       <r>   -0.8515    1.0000 </r>
       <r>   -0.7724    1.0000 </r>
       <r>   -0.1098    1.0000 </r>
       <r>   -0.0481    1.0000 </r>
       <r>    0.0224    1.0000 </r>
       <r>    0.0789    1.0000 </r>
       <r>    0.1243    1.0000 </r>
       <r>    0.4077    1.0181 </r>
       <r>    0.4559    0.8474 </r>
       <r>    0.8911   -0.0000 </r>
       <r>    1.0018   -0.0000 </r>
       <r>    1.1079   -0.0000 </r>
       <r>    1.1559   -0.0000 </r>
       <r>    1.1823   -0.0000 </r>
       <r>    1.4278   -0.0000 </r>
       <r>    1.6565   -0.0000 </r>
       <r>    1.7653   -0.0000 </r>
       <r>    2.1003   -0.0000 </r>
       <r>    2.1350   -0.0000 </r>
       <r>    2.3702   -0.0000 </r>
       <r>    2.7556    0.0000 </r>
       <r>    2.9705    0.0000 </r>
       <r>    3.3684    0.0000 </r>
       <r>    3.9735    0.0000 </r>
       <r>    4.4521    0.0000 </r>
       <r>    4.7706    0.0000 </r>
       <r>    5.5006    0.0000 </r>
       <r>    5.6452    0.0000 </r>
       <r>    5.7444    0.0000 </r>
       <r>    5.7962    0.0000 </r>
       <r>    5.9055    0.0000 </r>
       <r>    6.1625    0.0000 </r>
       <r>    6.3477    0.0000 </r>
       <r>    6.7158    0.0000 </r>
       <r>    7.1613    0.0000 </r>
       <r>    7.2652    0.0000 </r>
       <r>    7.4469    0.0000 </r>
       <r>    7.8467    0.0000 </r>
       <r>    7.9308    0.0000 </r>
       <r>    8.2561    0.0000 </r>
       <r>    8.8292    0.0000 </r>
       <r>    9.1437    0.0000 </r>
      </set>
      <set comment="kpoint 20">
       <r>  -56.7731    1.0000 </r>
       <r>  -56.4594    1.0000 </r>
       <r>  -56.1360    1.0000 </r>
       <r>  -56.0558    1.0000 </r>
       <r>  -33.2009    1.0000 </r>
       <r>  -33.0180    1.0000 </r>
       <r>  -32.9237    1.0000 </r>
       <r>  -32.8239    1.0000 </r>
       <r>  -32.7123    1.0000 </r>
       <r>  -32.6956    1.0000 </r>
       <r>  -32.5335    1.0000 </r>
       <r>  -32.4328    1.0000 </r>
       <r>  -32.4118    1.0000 </r>
       <r>  -32.3851    1.0000 </r>
       <r>  -32.2004    1.0000 </r>
       <r>  -32.1771    1.0000 </r>
       <r>   -6.7261    1.0000 </r>
       <r>   -5.7020    1.0000 </r>
       <r>   -4.2287    1.0000 </r>
       <r>   -3.6285    1.0000 </r>
       <r>   -2.8191    1.0000 </r>
       <r>   -2.0516    1.0000 </r>
       <r>   -1.4310    1.0000 </r>
       <r>   -0.9109    1.0000 </r>
       <r>   -0.7841    1.0000 </r>
       <r>   -0.3103    1.0000 </r>
       <r>    0.0015    1.0000 </r>
       <r>    0.1133    1.0000 </r>
       <r>    0.2227    1.0003 </r>
       <r>    0.4918    0.5853 </r>
       <r>    0.6662   -0.0211 </r>
       <r>    0.8623   -0.0000 </r>
       <r>    1.0044   -0.0000 </r>
       <r>    1.1231   -0.0000 </r>
       <r>    1.2350   -0.0000 </r>
       <r>    1.3308   -0.0000 </r>
       <r>    1.5749   -0.0000 </r>
       <r>    1.6583   -0.0000 </r>
       <r>    1.8455   -0.0000 </r>
       <r>    1.9845   -0.0000 </r>
       <r>    2.2113   -0.0000 </r>
       <r>    2.3775   -0.0000 </r>
       <r>    2.7901    0.0000 </r>
       <r>    3.0211    0.0000 </r>
       <r>    3.2617    0.0000 </r>
       <r>    3.8707    0.0000 </r>
       <r>    4.2907    0.0000 </r>
       <r>    4.8865    0.0000 </r>
       <r>    5.0299    0.0000 </r>
       <r>    5.5206    0.0000 </r>
       <r>    5.6981    0.0000 </r>
       <r>    6.1272    0.0000 </r>
       <r>    6.4259    0.0000 </r>
       <r>    6.5683    0.0000 </r>
       <r>    6.6822    0.0000 </r>
       <r>    7.0242    0.0000 </r>
       <r>    7.1397    0.0000 </r>
       <r>    7.3035    0.0000 </r>
       <r>    7.5457    0.0000 </r>
       <r>    7.8494    0.0000 </r>
       <r>    8.0975    0.0000 </r>
       <r>    8.2961    0.0000 </r>
       <r>    8.5790    0.0000 </r>
       <r>    8.8114    0.0000 </r>
      </set>
      <set comment="kpoint 21">
       <r>  -56.7724    1.0000 </r>
       <r>  -56.4582    1.0000 </r>
       <r>  -56.1323    1.0000 </r>
       <r>  -56.0605    1.0000 </r>
       <r>  -33.2012    1.0000 </r>
       <r>  -33.0196    1.0000 </r>
       <r>  -32.9321    1.0000 </r>
       <r>  -32.8289    1.0000 </r>
       <r>  -32.7118    1.0000 </r>
       <r>  -32.7055    1.0000 </r>
       <r>  -32.5303    1.0000 </r>
       <r>  -32.4387    1.0000 </r>
       <r>  -32.4197    1.0000 </r>
       <r>  -32.3904    1.0000 </r>
       <r>  -32.1879    1.0000 </r>
       <r>  -32.1653    1.0000 </r>
       <r>   -6.4577    1.0000 </r>
       <r>   -5.2599    1.0000 </r>
       <r>   -3.8508    1.0000 </r>
       <r>   -3.5508    1.0000 </r>
       <r>   -2.8628    1.0000 </r>
       <r>   -2.0806    1.0000 </r>
       <r>   -1.8407    1.0000 </r>
       <r>   -1.2801    1.0000 </r>
       <r>   -0.7864    1.0000 </r>
[...]
       <r>    0.8640   -0.0000 </r>
       <r>    0.9612   -0.0000 </r>
       <r>    1.0638   -0.0000 </r>
       <r>    1.2802   -0.0000 </r>
       <r>    1.4338   -0.0000 </r>
       <r>    1.7484   -0.0000 </r>
       <r>    1.8050   -0.0000 </r>
       <r>    1.9968   -0.0000 </r>
       <r>    2.2478   -0.0000 </r>
       <r>    2.2991   -0.0000 </r>
       <r>    2.5150    0.0000 </r>
       <r>    2.8448    0.0000 </r>
       <r>    2.9379    0.0000 </r>
       <r>    3.1778    0.0000 </r>
       <r>    3.5739    0.0000 </r>
       <r>    4.2408    0.0000 </r>
       <r>    4.6874    0.0000 </r>
       <r>    5.1647    0.0000 </r>
       <r>    5.5013    0.0000 </r>
       <r>    5.7033    0.0000 </r>
       <r>    5.9764    0.0000 </r>
       <r>    6.1225    0.0000 </r>
       <r>    6.4017    0.0000 </r>
       <r>    6.8945    0.0000 </r>
       <r>    7.0555    0.0000 </r>
       <r>    7.1560    0.0000 </r>
       <r>    7.5600    0.0000 </r>
       <r>    7.6589    0.0000 </r>
       <r>    7.8261    0.0000 </r>
       <r>    7.9269    0.0000 </r>
       <r>    8.3470    0.0000 </r>
       <r>    8.4096    0.0000 </r>
       <r>    8.8861    0.0000 </r>
      </set>
      <set comment="kpoint 22">
       <r>  -56.7719    1.0000 </r>
       <r>  -56.4572    1.0000 </r>
       <r>  -56.1289    1.0000 </r>
       <r>  -56.0647    1.0000 </r>
       <r>  -33.2016    1.0000 </r>
       <r>  -33.0209    1.0000 </r>
       <r>  -32.9388    1.0000 </r>
       <r>  -32.8330    1.0000 </r>
       <r>  -32.7139    1.0000 </r>
       <r>  -32.7106    1.0000 </r>
       <r>  -32.5276    1.0000 </r>
       <r>  -32.4432    1.0000 </r>
       <r>  -32.4210    1.0000 </r>
       <r>  -32.3994    1.0000 </r>
       <r>  -32.1739    1.0000 </r>
       <r>  -32.1605    1.0000 </r>
       <r>   -5.8307    1.0000 </r>
       <r>   -4.8403    1.0000 </r>
       <r>   -4.6221    1.0000 </r>
       <r>   -3.7971    1.0000 </r>
       <r>   -2.6555    1.0000 </r>
       <r>   -1.8321    1.0000 </r>
       <r>   -1.5061    1.0000 </r>
       <r>   -1.0756    1.0000 </r>
       <r>   -0.9838    1.0000 </r>
       <r>   -0.7543    1.0000 </r>
       <r>   -0.3121    1.0000 </r>
       <r>   -0.0936    1.0000 </r>
       <r>    0.2574    1.0015 </r>
       <r>    0.4494    0.8833 </r>
       <r>    0.5438    0.1776 </r>
       <r>    0.6442   -0.0309 </r>
       <r>    0.8644   -0.0000 </r>
       <r>    1.1296   -0.0000 </r>
       <r>    1.2712   -0.0000 </r>
       <r>    1.4996   -0.0000 </r>
       <r>    1.7610   -0.0000 </r>
       <r>    1.9626   -0.0000 </r>
       <r>    2.0526   -0.0000 </r>
       <r>    2.2557   -0.0000 </r>
       <r>    2.3723   -0.0000 </r>
       <r>    2.4588   -0.0000 </r>
       <r>    2.8487    0.0000 </r>
       <r>    2.9499    0.0000 </r>
       <r>    3.1744    0.0000 </r>
       <r>    3.7980    0.0000 </r>
       <r>    4.4046    0.0000 </r>
       <r>    4.5580    0.0000 </r>
       <r>    4.7669    0.0000 </r>
       <r>    5.2321    0.0000 </r>
       <r>    5.4194    0.0000 </r>
       <r>    5.6066    0.0000 </r>
       <r>    6.1413    0.0000 </r>
       <r>    6.2864    0.0000 </r>
       <r>    6.5407    0.0000 </r>
       <r>    6.7997    0.0000 </r>
       <r>    6.8410    0.0000 </r>
       <r>    7.2214    0.0000 </r>
       <r>    7.4800    0.0000 </r>
       <r>    7.6059    0.0000 </r>
       <r>    7.7794    0.0000 </r>
       <r>    8.1748    0.0000 </r>
       <r>    8.5515    0.0000 </r>
       <r>    8.6302    0.0000 </r>
      </set>
     </set>
    </set>
   </array>
  </eigenvalues>
  <separator name="orbital magnetization" >
   <v name="MAGDIPOLOUT">      0.00000000      0.00000000      0.00000000</v>
  </separator>
  <dos>
   <i name="efermi">      0.50190811 </i>
   <total>
    <array>
     <dimension dim="1">gridpoints</dimension>
     <dimension dim="2">spin</dimension>
     <field>energy</field>
     <field>total</field>
     <field>integrated</field>
     <set>
      <set comment="spin 1">
       <r>   -60.0693     0.0000     0.0000 </r>
       <r>   -59.8276     0.0000     0.0000 </r>
       <r>   -59.5859     0.0000     0.0000 </r>
       <r>   -59.3442     0.0000     0.0000 </r>
       <r>   -59.1025     0.0000     0.0000 </r>
       <r>   -58.8608     0.0000     0.0000 </r>
       <r>   -58.6191     0.0000     0.0000 </r>
       <r>   -58.3774     0.0000     0.0000 </r>
       <r>   -58.1357     0.0000     0.0000 </r>
       <r>   -57.8940     0.0000     0.0000 </r>
       <r>   -57.6523    -0.0000    -0.0000 </r>
       <r>   -57.4106    -0.0000    -0.0000 </r>
       <r>   -57.1689    -0.0000    -0.0000 </r>
       <r>   -56.9272    -0.2115    -0.0511 </r>
       <r>   -56.6855     8.5110     2.0060 </r>
       <r>   -56.4438     5.1292     3.2457 </r>
       <r>   -56.2021     3.2410     4.0290 </r>
       <r>   -55.9604    16.7676     8.0817 </r>
       <r>   -55.7187    -0.3378     8.0000 </r>
       <r>   -55.4771    -0.0001     8.0000 </r>
       <r>   -55.2354     0.0000     8.0000 </r>
       <r>   -54.9937     0.0000     8.0000 </r>
       <r>   -54.7520     0.0000     8.0000 </r>
       <r>   -54.5103     0.0000     8.0000 </r>
       <r>   -54.2686     0.0000     8.0000 </r>
       <r>   -54.0269     0.0000     8.0000 </r>
       <r>   -53.7852     0.0000     8.0000 </r>
       <r>   -53.5435     0.0000     8.0000 </r>
       <r>   -53.3018     0.0000     8.0000 </r>
       <r>   -53.0601     0.0000     8.0000 </r>
       <r>   -52.8184     0.0000     8.0000 </r>
       <r>   -52.5767     0.0000     8.0000 </r>
       <r>   -52.3350     0.0000     8.0000 </r>
       <r>   -52.0933     0.0000     8.0000 </r>
       <r>   -51.8516     0.0000     8.0000 </r>
       <r>   -51.6099     0.0000     8.0000 </r>
       <r>   -51.3682     0.0000     8.0000 </r>
       <r>   -51.1265     0.0000     8.0000 </r>
       <r>   -50.8848     0.0000     8.0000 </r>
       <r>   -50.6431     0.0000     8.0000 </r>
       <r>   -50.4014     0.0000     8.0000 </r>
       <r>   -50.1597     0.0000     8.0000 </r>
       <r>   -49.9180     0.0000     8.0000 </r>
       <r>   -49.6763     0.0000     8.0000 </r>
       <r>   -49.4346     0.0000     8.0000 </r>
       <r>   -49.1929     0.0000     8.0000 </r>
       <r>   -48.9513     0.0000     8.0000 </r>
       <r>   -48.7096     0.0000     8.0000 </r>
       <r>   -48.4679     0.0000     8.0000 </r>
       <r>   -48.2262     0.0000     8.0000 </r>
       <r>   -47.9845     0.0000     8.0000 </r>
       <r>   -47.7428     0.0000     8.0000 </r>
       <r>   -47.5011     0.0000     8.0000 </r>
       <r>   -47.2594     0.0000     8.0000 </r>
       <r>   -47.0177     0.0000     8.0000 </r>
       <r>   -46.7760     0.0000     8.0000 </r>
       <r>   -46.5343     0.0000     8.0000 </r>
       <r>   -46.2926     0.0000     8.0000 </r>
       <r>   -46.0509     0.0000     8.0000 </r>
       <r>   -45.8092     0.0000     8.0000 </r>
       <r>   -45.5675     0.0000     8.0000 </r>
       <r>   -45.3258     0.0000     8.0000 </r>
       <r>   -45.0841     0.0000     8.0000 </r>
       <r>   -44.8424     0.0000     8.0000 </r>
       <r>   -44.6007     0.0000     8.0000 </r>
       <r>   -44.3590     0.0000     8.0000 </r>
       <r>   -44.1173     0.0000     8.0000 </r>
       <r>   -43.8756     0.0000     8.0000 </r>
       <r>   -43.6339     0.0000     8.0000 </r>
       <r>   -43.3922     0.0000     8.0000 </r>
       <r>   -43.1505     0.0000     8.0000 </r>
       <r>   -42.9088     0.0000     8.0000 </r>
       <r>   -42.6671     0.0000     8.0000 </r>
       <r>   -42.4255     0.0000     8.0000 </r>
       <r>   -42.1838     0.0000     8.0000 </r>
       <r>   -41.9421     0.0000     8.0000 </r>
       <r>   -41.7004     0.0000     8.0000 </r>
       <r>   -41.4587     0.0000     8.0000 </r>
       <r>   -41.2170     0.0000     8.0000 </r>
       <r>   -40.9753     0.0000     8.0000 </r>
       <r>   -40.7336     0.0000     8.0000 </r>
       <r>   -40.4919     0.0000     8.0000 </r>
       <r>   -40.2502     0.0000     8.0000 </r>
       <r>   -40.0085     0.0000     8.0000 </r>
       <r>   -39.7668     0.0000     8.0000 </r>
       <r>   -39.5251     0.0000     8.0000 </r>
       <r>   -39.2834     0.0000     8.0000 </r>
       <r>   -39.0417     0.0000     8.0000 </r>
       <r>   -38.8000     0.0000     8.0000 </r>
       <r>   -38.5583     0.0000     8.0000 </r>
       <r>   -38.3166     0.0000     8.0000 </r>
       <r>   -38.0749     0.0000     8.0000 </r>
       <r>   -37.8332     0.0000     8.0000 </r>
       <r>   -37.5915     0.0000     8.0000 </r>
       <r>   -37.3498     0.0000     8.0000 </r>
       <r>   -37.1081     0.0000     8.0000 </r>
       <r>   -36.8664     0.0000     8.0000 </r>
       <r>   -36.6247     0.0000     8.0000 </r>
       <r>   -36.3830     0.0000     8.0000 </r>
       <r>   -36.1413     0.0000     8.0000 </r>
       <r>   -35.8997     0.0000     8.0000 </r>
       <r>   -35.6580     0.0000     8.0000 </r>
       <r>   -35.4163     0.0000     8.0000 </r>
       <r>   -35.1746     0.0000     8.0000 </r>
       <r>   -34.9329     0.0000     8.0000 </r>
       <r>   -34.6912     0.0000     8.0000 </r>
       <r>   -34.4495     0.0000     8.0000 </r>
       <r>   -34.2078    -0.0000     8.0000 </r>
       <r>   -33.9661    -0.0000     8.0000 </r>
       <r>   -33.7244    -0.0000     8.0000 </r>
       <r>   -33.4827    -0.0021     7.9995 </r>
       <r>   -33.2410     1.5431     8.3725 </r>
       <r>   -32.9993    12.4907    11.3914 </r>
       <r>   -32.7576    20.9799    16.4622 </r>
       <r>   -32.5159    19.5836    21.1955 </r>
       <r>   -32.2742    28.7030    28.1329 </r>
       <r>   -32.0325    16.4656    32.1125 </r>
       <r>   -31.7908    -0.4656    32.0000 </r>
       <r>   -31.5491    -0.0000    32.0000 </r>
       <r>   -31.3074     0.0000    32.0000 </r>
       <r>   -31.0657     0.0000    32.0000 </r>
       <r>   -30.8240     0.0000    32.0000 </r>
       <r>   -30.5823     0.0000    32.0000 </r>
       <r>   -30.3406     0.0000    32.0000 </r>
       <r>   -30.0989     0.0000    32.0000 </r>
       <r>   -29.8572     0.0000    32.0000 </r>
       <r>   -29.6155     0.0000    32.0000 </r>
       <r>   -29.3739     0.0000    32.0000 </r>
       <r>   -29.1322     0.0000    32.0000 </r>
       <r>   -28.8905     0.0000    32.0000 </r>
       <r>   -28.6488     0.0000    32.0000 </r>
       <r>   -28.4071     0.0000    32.0000 </r>
       <r>   -28.1654     0.0000    32.0000 </r>
       <r>   -27.9237     0.0000    32.0000 </r>
       <r>   -27.6820     0.0000    32.0000 </r>
       <r>   -27.4403     0.0000    32.0000 </r>
       <r>   -27.1986     0.0000    32.0000 </r>
       <r>   -26.9569     0.0000    32.0000 </r>
       <r>   -26.7152     0.0000    32.0000 </r>
       <r>   -26.4735     0.0000    32.0000 </r>
       <r>   -26.2318     0.0000    32.0000 </r>
       <r>   -25.9901     0.0000    32.0000 </r>
       <r>   -25.7484     0.0000    32.0000 </r>
       <r>   -25.5067     0.0000    32.0000 </r>
       <r>   -25.2650     0.0000    32.0000 </r>
       <r>   -25.0233     0.0000    32.0000 </r>
       <r>   -24.7816     0.0000    32.0000 </r>
       <r>   -24.5399     0.0000    32.0000 </r>
       <r>   -24.2982     0.0000    32.0000 </r>
       <r>   -24.0565     0.0000    32.0000 </r>
       <r>   -23.8148     0.0000    32.0000 </r>
       <r>   -23.5731     0.0000    32.0000 </r>
       <r>   -23.3314     0.0000    32.0000 </r>
       <r>   -23.0897     0.0000    32.0000 </r>
       <r>   -22.8481     0.0000    32.0000 </r>
       <r>   -22.6064     0.0000    32.0000 </r>
       <r>   -22.3647     0.0000    32.0000 </r>
       <r>   -22.1230     0.0000    32.0000 </r>
       <r>   -21.8813     0.0000    32.0000 </r>
       <r>   -21.6396     0.0000    32.0000 </r>
       <r>   -21.3979     0.0000    32.0000 </r>
       <r>   -21.1562     0.0000    32.0000 </r>
       <r>   -20.9145     0.0000    32.0000 </r>
       <r>   -20.6728     0.0000    32.0000 </r>
       <r>   -20.4311     0.0000    32.0000 </r>
       <r>   -20.1894     0.0000    32.0000 </r>
       <r>   -19.9477     0.0000    32.0000 </r>
       <r>   -19.7060     0.0000    32.0000 </r>
       <r>   -19.4643     0.0000    32.0000 </r>
       <r>   -19.2226     0.0000    32.0000 </r>
       <r>   -18.9809     0.0000    32.0000 </r>
       <r>   -18.7392     0.0000    32.0000 </r>
       <r>   -18.4975     0.0000    32.0000 </r>
       <r>   -18.2558     0.0000    32.0000 </r>
       <r>   -18.0141     0.0000    32.0000 </r>
       <r>   -17.7724     0.0000    32.0000 </r>
       <r>   -17.5307     0.0000    32.0000 </r>
       <r>   -17.2890     0.0000    32.0000 </r>
       <r>   -17.0473     0.0000    32.0000 </r>
       <r>   -16.8056     0.0000    32.0000 </r>
       <r>   -16.5639     0.0000    32.0000 </r>
       <r>   -16.3223     0.0000    32.0000 </r>
       <r>   -16.0806     0.0000    32.0000 </r>
       <r>   -15.8389     0.0000    32.0000 </r>
       <r>   -15.5972     0.0000    32.0000 </r>
       <r>   -15.3555     0.0000    32.0000 </r>
       <r>   -15.1138     0.0000    32.0000 </r>
       <r>   -14.8721     0.0000    32.0000 </r>
       <r>   -14.6304     0.0000    32.0000 </r>
       <r>   -14.3887     0.0000    32.0000 </r>
       <r>   -14.1470     0.0000    32.0000 </r>
       <r>   -13.9053     0.0000    32.0000 </r>
       <r>   -13.6636     0.0000    32.0000 </r>
       <r>   -13.4219     0.0000    32.0000 </r>
       <r>   -13.1802     0.0000    32.0000 </r>
       <r>   -12.9385     0.0000    32.0000 </r>
       <r>   -12.6968     0.0000    32.0000 </r>
       <r>   -12.4551     0.0000    32.0000 </r>
       <r>   -12.2134     0.0000    32.0000 </r>
       <r>   -11.9717     0.0000    32.0000 </r>
       <r>   -11.7300     0.0000    32.0000 </r>
       <r>   -11.4883     0.0000    32.0000 </r>
       <r>   -11.2466     0.0000    32.0000 </r>
       <r>   -11.0049     0.0000    32.0000 </r>
       <r>   -10.7632     0.0000    32.0000 </r>
       <r>   -10.5215     0.0000    32.0000 </r>
       <r>   -10.2798     0.0000    32.0000 </r>
       <r>   -10.0381     0.0000    32.0000 </r>
       <r>    -9.7965     0.0000    32.0000 </r>
       <r>    -9.5548     0.0000    32.0000 </r>
       <r>    -9.3131     0.0000    32.0000 </r>
       <r>    -9.0714     0.0000    32.0000 </r>
       <r>    -8.8297    -0.0000    32.0000 </r>
       <r>    -8.5880    -0.0000    32.0000 </r>
       <r>    -8.3463    -0.0000    32.0000 </r>
       <r>    -8.1046    -0.0048    31.9988 </r>
       <r>    -7.8629     0.1713    32.0402 </r>
       <r>    -7.6212     1.2144    32.3337 </r>
       <r>    -7.3795     0.1649    32.3736 </r>
       <r>    -7.1378     1.3185    32.6923 </r>
       <r>    -6.8961     0.8158    32.8895 </r>
       <r>    -6.6544     1.1143    33.1588 </r>
       <r>    -6.4127     0.6877    33.3250 </r>
       <r>    -6.1710     1.5958    33.7107 </r>
       <r>    -5.9293     1.6654    34.1132 </r>
       <r>    -5.6876     2.0703    34.6136 </r>
       <r>    -5.4459     2.0103    35.0995 </r>
       <r>    -5.2042     1.2796    35.4088 </r>
       <r>    -4.9625     0.6031    35.5545 </r>
       <r>    -4.7208     1.7241    35.9713 </r>
       <r>    -4.4791     2.2029    36.5037 </r>
       <r>    -4.2374     1.9676    36.9792 </r>
       <r>    -3.9957     1.8720    37.4317 </r>
       <r>    -3.7540     4.4755    38.5134 </r>
       <r>    -3.5123     2.0137    39.0001 </r>
       <r>    -3.2707     1.8802    39.4546 </r>
       <r>    -3.0290     0.4840    39.5716 </r>
       <r>    -2.7873     2.0032    40.0557 </r>
       <r>    -2.5456     3.6217    40.9311 </r>
       <r>    -2.3039     1.9682    41.4068 </r>
       <r>    -2.0622     3.1080    42.1580 </r>
       <r>    -1.8205     4.2399    43.1827 </r>
       <r>    -1.5788     4.9539    44.3801 </r>
       <r>    -1.3371     5.9168    45.8101 </r>
       <r>    -1.0954     4.0786    46.7959 </r>
       <r>    -0.8537     7.2876    48.5573 </r>
       <r>    -0.6120     8.8942    50.7070 </r>
       <r>    -0.3703     5.2347    51.9722 </r>
       <r>    -0.1286     8.7907    54.0968 </r>
       <r>     0.1131     8.1270    56.0611 </r>
       <r>     0.3548    10.1923    58.5246 </r>
       <r>     0.5965    10.8791    61.1540 </r>
       <r>     0.8382     8.0304    63.0949 </r>
       <r>     1.0799    12.0547    66.0085 </r>
       <r>     1.3216    11.0169    68.6712 </r>
       <r>     1.5633     9.0370    70.8554 </r>
       <r>     1.8050     9.2810    73.0986 </r>
       <r>     2.0467    10.8452    75.7199 </r>
       <r>     2.2884    12.5588    78.7553 </r>
       <r>     2.5301    12.8207    81.8540 </r>
       <r>     2.7718     6.9170    83.5258 </r>
       <r>     3.0135     9.1974    85.7488 </r>
       <r>     3.2551    10.6892    88.3324 </r>
       <r>     3.4968     5.4275    89.6442 </r>
       <r>     3.7385     3.0285    90.3762 </r>
       <r>     3.9802     7.1829    92.1122 </r>
       <r>     4.2219     4.0152    93.0827 </r>
       <r>     4.4636     5.5680    94.4285 </r>
       <r>     4.7053     7.3953    96.2159 </r>
       <r>     4.9470     8.4945    98.2690 </r>
       <r>     5.1887     5.3478    99.5615 </r>
       <r>     5.4304     7.2233   101.3074 </r>
       <r>     5.6721     6.7074   102.9285 </r>
       <r>     5.9138     6.6868   104.5447 </r>
       <r>     6.1555     7.1614   106.2756 </r>
       <r>     6.3972     8.8574   108.4164 </r>
       <r>     6.6389     7.1592   110.1467 </r>
       <r>     6.8806     7.8124   112.0350 </r>
       <r>     7.1223     7.9944   113.9672 </r>
       <r>     7.3640     9.0906   116.1643 </r>
       <r>     7.6057     9.4994   118.4603 </r>
       <r>     7.8474     8.8348   120.5957 </r>
       <r>     8.0891     6.5366   122.1755 </r>
       <r>     8.3308     9.4926   124.4699 </r>
       <r>     8.5725     7.6619   126.3217 </r>
       <r>     8.8142     5.1483   127.5660 </r>
       <r>     9.0559     1.6183   127.9572 </r>
       <r>     9.2976     0.1823   128.0012 </r>
       <r>     9.5393    -0.0051   128.0000 </r>
       <r>     9.7809    -0.0000   128.0000 </r>
       <r>    10.0226     0.0000   128.0000 </r>
       <r>    10.2643     0.0000   128.0000 </r>
       <r>    10.5060     0.0000   128.0000 </r>
       <r>    10.7477     0.0000   128.0000 </r>
       <r>    10.9894     0.0000   128.0000 </r>
       <r>    11.2311     0.0000   128.0000 </r>
       <r>    11.4728     0.0000   128.0000 </r>
       <r>    11.7145     0.0000   128.0000 </r>
       <r>    11.9562     0.0000   128.0000 </r>
       <r>    12.1979     0.0000   128.0000 </r>
       <r>    12.4396     0.0000   128.0000 </r>
      </set>
     </set>
    </array>
   </total>
  </dos>
 </calculation>
 <structure name="finalpos" >
  <crystal>
   <varray name="basis" >
    <v>       3.99349999       0.00000000       0.00000000 </v>
    <v>      -1.99672563       4.53367517       0.00000000 </v>
    <v>       0.00000000       0.00000000      21.27429962 </v>
   </varray>
   <i name="volume">    385.17612566 </i>
   <varray name="rec_basis" >
    <v>       0.25040691       0.11028446       0.00000000 </v>
    <v>       0.00000000       0.22057160       0.00000000 </v>
    <v>       0.00000000       0.00000000       0.04700507 </v>
   </varray>
  </crystal>
  <varray name="positions" >
   <v>       0.20904000       0.41808999       0.37117001 </v>
   <v>       0.80602998       0.61206001       0.45543000 </v>
   <v>       0.40301001       0.80602998       0.53969997 </v>
   <v>       0.00000000       0.00000000       0.62396002 </v>
   <v>       0.91055000       0.82110000       0.32903999 </v>
   <v>       0.50753999       0.01507000       0.41330001 </v>
   <v>       0.10452000       0.20904000       0.49755999 </v>
   <v>       0.70151001       0.40301001       0.58183003 </v>
  </varray>
 </structure>
</modeling>
