unknown system                          
           1
     3.993500    0.000000    0.000000
    -1.996726    4.533675    0.000000
     0.000000    0.000000   21.274300
   Ti   Al
     4     4
Direct configuration=     1
   0.20904000  0.41808999  0.37117001
   0.80602998  0.61206001  0.45543000
   0.40301001  0.80602998  0.53969997
   0.00000000  0.00000000  0.62396002
   0.91055000  0.82110000  0.32903999
   0.50753999  0.01507000  0.41330001
   0.10452000  0.20904000  0.49755999
   0.70151001  0.40301001  0.58183003
