   32   32    1    1
  0.4555185E+02  0.5606952E-09  0.9968131E-09  0.2633609E-08  0.5000000E-15
  1.000000000000000E-004
  CAR 
 unknown system                          
    242      8    192
 
  0.1276756E-14  0.1276756E-14  0.1276756E-14  0.5555556E-01
      1        -56.794387   1.000000
      2        -56.629610   1.000000
      3        -56.567976   1.000000
      4        -56.463151   1.000000
      5        -56.407674   1.000000
      6        -56.364912   1.000000
      7        -56.310418   1.000000
      8        -56.281293   1.000000
      9        -56.214008   1.000000
     10        -56.206764   1.000000
     11        -56.183581   1.000000
     12        -56.109924   1.000000
     13        -56.100382   1.000000
     14        -56.043015   1.000000
     15        -33.299371   1.000000
     16        -33.057071   1.000000
     17        -32.988717   1.000000
     18        -32.975921   1.000000
     19        -32.932556   1.000000
     20        -32.925360   1.000000
     21        -32.909673   1.000000
     22        -32.871412   1.000000
     23        -32.863694   1.000000
     24        -32.861108   1.000000
     25        -32.764632   1.000000
     26        -32.762464   1.000000
     27        -32.762216   1.000000
     28        -32.711959   1.000000
     29        -32.674796   1.000000
     30        -32.663324   1.000000
     31        -32.648088   1.000000
     32        -32.644973   1.000000
     33        -32.628261   1.000000
     34        -32.618306   1.000000
     35        -32.615676   1.000000
     36        -32.592358   1.000000
     37        -32.580631   1.000000
     38        -32.565161   1.000000
     39        -32.556126   1.000000
     40        -32.543614   1.000000
     41        -32.539963   1.000000
     42        -32.514093   1.000000
     43        -32.495519   1.000000
     44        -32.480970   1.000000
     45        -32.454303   1.000000
     46        -32.448246   1.000000
     47        -32.440599   1.000000
     48        -32.428047   1.000000
     49        -32.392154   1.000000
     50        -32.362270   1.000000
     51        -32.335940   1.000000
     52        -32.267924   1.000000
     53        -32.229901   1.000000
     54        -32.094955   1.000000
     55        -32.082670   1.000000
     56        -32.049603   1.000000
     57        -14.354271   1.000000
     58        -14.319901   1.000000
     59        -14.307224   1.000000
     60        -14.282794   1.000000
     61        -14.275493   1.000000
     62        -13.990909   1.000000
     63        -13.972784   1.000000
     64        -13.946005   1.000000
     65        -13.915596   1.000000
     66        -13.894551   1.000000
     67         -8.767687   1.000000
     68         -7.785432   1.000000
     69         -7.100199   1.000000
     70         -6.821869   1.000000
     71         -6.328038   1.000000
     72         -6.047502   1.000000
     73         -5.357060   1.000000
     74         -5.066611   1.000000
     75         -4.899036   1.000000
     76         -4.344073   1.000000
     77         -4.098705   1.000000
     78         -3.743152   1.000000
     79         -3.686165   1.000000
     80         -3.527604   1.000000
     81         -3.412138   1.000000
     82         -3.190676   1.000000
     83         -2.990837   1.000000
     84         -2.818920   1.000000
     85         -2.671113   1.000000
     86         -2.636549   1.000000
     87         -2.498688   1.000000
     88         -2.384867   1.000000
     89         -2.230534   1.000000
     90         -2.168375   1.000000
     91         -2.130173   1.000000
     92         -2.077218   1.000000
     93         -1.862559   1.000000
     94         -1.765030   1.000000
     95         -1.694191   1.000000
     96         -1.688378   1.000000
     97         -1.476092   1.000000
     98         -1.407264   1.000000
     99         -1.353357   1.000000
    100         -1.219494   1.000000
    101         -1.168512   1.000000
    102         -0.972514   1.000000
    103         -0.916467   1.000000
    104         -0.839766   1.000000
    105         -0.829600   1.000000
    106         -0.790163   1.000000
    107         -0.592268   1.000000
    108         -0.465073   1.000000
    109         -0.363339   1.000000
    110         -0.290873   1.000000
    111         -0.242086   1.000000
    112         -0.110854   1.000000
    113         -0.077618   1.000000
    114          0.029444   1.000000
    115          0.085452   1.000000
    116          0.217301   1.000115
    117          0.224740   1.000172
    118          0.230746   1.000236
    119          0.284959   1.002849
    120          0.297553   1.004600
    121          0.440712   0.969573
    122          0.454204   0.917314
    123          0.464644   0.864349
    124          0.634124  -0.035397
    125          0.700645  -0.011876
    126          0.723783  -0.005676
    127          0.743666  -0.002693
    128          0.809775  -0.000116
    129          0.861549  -0.000005
    130          0.869236  -0.000003
    131          0.975419  -0.000000
    132          1.101093  -0.000000
    133          1.191499  -0.000000
    134          1.230023  -0.000000
    135          1.313484  -0.000000
    136          1.364650  -0.000000
    137          1.399414  -0.000000
    138          1.441376  -0.000000
    139          1.526434  -0.000000
    140          1.557932  -0.000000
    141          1.617346  -0.000000
    142          1.647079  -0.000000
    143          1.822145  -0.000000
    144          1.944371  -0.000000
    145          2.011680  -0.000000
    146          2.034422  -0.000000
    147          2.090163  -0.000000
    148          2.291224  -0.000000
    149          2.339204  -0.000000
    150          2.367822  -0.000000
    151          2.374460  -0.000000
    152          2.403285  -0.000000
    153          2.457299  -0.000000
    154          2.526426   0.000000
    155          2.534467   0.000000
    156          2.581354   0.000000
    157          2.662426   0.000000
    158          2.691397   0.000000
    159          2.714912   0.000000
    160          2.738245   0.000000
    161          2.742647   0.000000
    162          2.766038   0.000000
    163          2.809061   0.000000
    164          2.880789   0.000000
    165          2.926181   0.000000
    166          2.933387   0.000000
    167          3.002458   0.000000
    168          3.071117   0.000000
    169          3.135119   0.000000
    170          3.158048   0.000000
    171          3.178413   0.000000
    172          3.214412   0.000000
    173          3.249676   0.000000
    174          3.529140   0.000000
    175          3.666382   0.000000
    176          3.767705   0.000000
    177          3.831547   0.000000
    178          3.946076   0.000000
    179          3.954847   0.000000
    180          4.019901   0.000000
    181          4.059603   0.000000
    182          4.236997   0.000000
    183          4.313985   0.000000
    184          4.447640   0.000000
    185          4.500799   0.000000
    186          4.567126   0.000000
    187          4.647232   0.000000
    188          4.694700   0.000000
    189          4.832338   0.000000
    190          4.917014   0.000000
    191          4.956969   0.000000
    192          4.986658   0.000000
 
  0.1666667E+00  0.1276756E-14  0.1276756E-14  0.1111111E+00
      1        -56.794386   1.000000
      2        -56.625715   1.000000
      3        -56.571928   1.000000
      4        -56.461906   1.000000
      5        -56.405307   1.000000
      6        -56.364937   1.000000
      7        -56.312821   1.000000
      8        -56.282590   1.000000
      9        -56.212125   1.000000
     10        -56.204820   1.000000
     11        -56.180636   1.000000
     12        -56.112487   1.000000
     13        -56.103292   1.000000
     14        -56.044495   1.000000
     15        -33.299370   1.000000
     16        -33.054307   1.000000
     17        -32.991051   1.000000
     18        -32.975888   1.000000
     19        -32.929981   1.000000
     20        -32.909878   1.000000
     21        -32.893960   1.000000
     22        -32.874483   1.000000
     23        -32.863059   1.000000
     24        -32.859314   1.000000
     25        -32.764021   1.000000
     26        -32.763147   1.000000
     27        -32.731511   1.000000
     28        -32.680809   1.000000
     29        -32.674795   1.000000
     30        -32.661646   1.000000
     31        -32.648104   1.000000
     32        -32.645775   1.000000
     33        -32.629714   1.000000
     34        -32.616866   1.000000
     35        -32.614333   1.000000
     36        -32.562706   1.000000
     37        -32.560047   1.000000
     38        -32.548668   1.000000
     39        -32.544497   1.000000
     40        -32.537176   1.000000
     41        -32.524525   1.000000
     42        -32.515101   1.000000
     43        -32.497071   1.000000
     44        -32.480181   1.000000
     45        -32.473642   1.000000
     46        -32.456530   1.000000
     47        -32.450073   1.000000
     48        -32.426350   1.000000
     49        -32.393309   1.000000
     50        -32.364643   1.000000
     51        -32.337668   1.000000
     52        -32.300384   1.000000
     53        -32.262950   1.000000
     54        -32.128884   1.000000
     55        -32.116615   1.000000
     56        -32.083066   1.000000
     57        -14.354212   1.000000
     58        -14.319743   1.000000
     59        -14.306878   1.000000
     60        -14.279974   1.000000
     61        -14.275168   1.000000
     62        -13.990797   1.000000
     63        -13.972624   1.000000
     64        -13.945719   1.000000
     65        -13.912868   1.000000
     66        -13.894253   1.000000
     67         -8.647357   1.000000
     68         -7.673480   1.000000
     69         -6.978220   1.000000
     70         -6.712042   1.000000
     71         -6.232418   1.000000
     72         -5.937866   1.000000
     73         -5.441517   1.000000
     74         -5.180560   1.000000
     75         -4.901925   1.000000
     76         -4.731804   1.000000
     77         -4.454584   1.000000
     78         -4.224739   1.000000
     79         -3.993792   1.000000
     80         -3.671912   1.000000
     81         -3.524717   1.000000
     82         -3.474161   1.000000
     83         -3.388901   1.000000
     84         -2.863870   1.000000
     85         -2.617504   1.000000
     86         -2.449724   1.000000
     87         -2.377544   1.000000
     88         -2.150030   1.000000
     89         -2.131782   1.000000
     90         -1.979975   1.000000
     91         -1.824496   1.000000
     92         -1.779505   1.000000
     93         -1.727665   1.000000
     94         -1.629222   1.000000
     95         -1.576940   1.000000
     96         -1.486391   1.000000
     97         -1.376981   1.000000
     98         -1.298963   1.000000
     99         -1.241468   1.000000
    100         -1.152022   1.000000
    101         -1.049658   1.000000
    102         -1.012099   1.000000
    103         -0.909601   1.000000
    104         -0.767138   1.000000
    105         -0.695799   1.000000
    106         -0.661976   1.000000
    107         -0.521955   1.000000
    108         -0.385235   1.000000
    109         -0.331156   1.000000
    110         -0.229349   1.000000
    111         -0.201425   1.000000
    112         -0.132236   1.000000
    113         -0.043221   1.000000
    114         -0.000401   1.000000
    115          0.094312   1.000000
    116          0.162551   1.000004
    117          0.182795   1.000015
    118          0.246381   1.000518
    119          0.283026   1.002638
    120          0.381506   1.034209
    121          0.453292   0.921422
    122          0.508906   0.539733
    123          0.626683  -0.033916
    124          0.653623  -0.031766
    125          0.693123  -0.014618
    126          0.757699  -0.001502
    127          0.762624  -0.001210
    128          0.832624  -0.000031
    129          0.871281  -0.000003
    130          0.889056  -0.000001
    131          0.967053  -0.000000
    132          1.099606  -0.000000
    133          1.164287  -0.000000
    134          1.213298  -0.000000
    135          1.232093  -0.000000
    136          1.278484  -0.000000
    137          1.440369  -0.000000
    138          1.458974  -0.000000
    139          1.493584  -0.000000
    140          1.513984  -0.000000
    141          1.583028  -0.000000
    142          1.677551  -0.000000
    143          1.808749  -0.000000
    144          1.813962  -0.000000
    145          1.943807  -0.000000
    146          1.957234  -0.000000
    147          2.004007  -0.000000
    148          2.167370  -0.000000
    149          2.213188  -0.000000
    150          2.231001  -0.000000
    151          2.284470  -0.000000
    152          2.308828  -0.000000
    153          2.362785  -0.000000
    154          2.386793  -0.000000
    155          2.411609  -0.000000
    156          2.450231  -0.000000
    157          2.475213  -0.000000
    158          2.513436  -0.000000
    159          2.578341   0.000000
    160          2.613783   0.000000
    161          2.681724   0.000000
    162          2.712812   0.000000
    163          2.799453   0.000000
    164          2.889218   0.000000
    165          2.924570   0.000000
    166          2.960618   0.000000
    167          3.043588   0.000000
    168          3.069701   0.000000
    169          3.178533   0.000000
    170          3.238905   0.000000
    171          3.284353   0.000000
    172          3.390043   0.000000
    173          3.441573   0.000000
    174          3.531562   0.000000
    175          3.667868   0.000000
    176          3.698950   0.000000
    177          3.809201   0.000000
    178          3.897141   0.000000
    179          4.043800   0.000000
    180          4.129523   0.000000
    181          4.229493   0.000000
    182          4.329699   0.000000
    183          4.356691   0.000000
    184          4.361843   0.000000
    185          4.487326   0.000000
    186          4.593067   0.000000
    187          4.644386   0.000000
    188          4.668561   0.000000
    189          4.773759   0.000000
    190          4.882444   0.000000
    191          4.942413   0.000000
    192          5.045017   0.000000
 
  0.3333333E+00  0.1276756E-14  0.1276756E-14  0.1111111E+00
      1        -56.794384   1.000000
      2        -56.615324   1.000000
      3        -56.582434   1.000000
      4        -56.459363   1.000000
      5        -56.400152   1.000000
      6        -56.365005   1.000000
      7        -56.318032   1.000000
      8        -56.285240   1.000000
      9        -56.208379   1.000000
     10        -56.200423   1.000000
     11        -56.173904   1.000000
     12        -56.118171   1.000000
     13        -56.109809   1.000000
     14        -56.047534   1.000000
     15        -33.299371   1.000000
     16        -33.047923   1.000000
     17        -32.996716   1.000000
     18        -32.975822   1.000000
     19        -32.923411   1.000000
     20        -32.910296   1.000000
     21        -32.881923   1.000000
     22        -32.861769   1.000000
     23        -32.855495   1.000000
     24        -32.807970   1.000000
     25        -32.767348   1.000000
     26        -32.760077   1.000000
     27        -32.674826   1.000000
     28        -32.657779   1.000000
     29        -32.651881   1.000000
     30        -32.649153   1.000000
     31        -32.645157   1.000000
     32        -32.632704   1.000000
     33        -32.614210   1.000000
     34        -32.611254   1.000000
     35        -32.593884   1.000000
     36        -32.563096   1.000000
     37        -32.557212   1.000000
     38        -32.546360   1.000000
     39        -32.530790   1.000000
     40        -32.517134   1.000000
     41        -32.502010   1.000000
     42        -32.477107   1.000000
     43        -32.471356   1.000000
     44        -32.462417   1.000000
     45        -32.461178   1.000000
     46        -32.454040   1.000000
     47        -32.439283   1.000000
     48        -32.421837   1.000000
     49        -32.395694   1.000000
     50        -32.386395   1.000000
     51        -32.369959   1.000000
     52        -32.352460   1.000000
     53        -32.341261   1.000000
     54        -32.220718   1.000000
     55        -32.207930   1.000000
     56        -32.171869   1.000000
     57        -14.354098   1.000000
     58        -14.319479   1.000000
     59        -14.306188   1.000000
     60        -14.274517   1.000000
     61        -14.274291   1.000000
     62        -13.990594   1.000000
     63        -13.972338   1.000000
     64        -13.945140   1.000000
     65        -13.907371   1.000000
     66        -13.893657   1.000000
     67         -8.320827   1.000000
     68         -7.372403   1.000000
     69         -6.686586   1.000000
     70         -6.508255   1.000000
     71         -6.218178   1.000000
     72         -5.820454   1.000000
     73         -5.591421   1.000000
     74         -5.478224   1.000000
     75         -5.163391   1.000000
     76         -4.971188   1.000000
     77         -4.858302   1.000000
     78         -4.511577   1.000000
     79         -4.393481   1.000000
     80         -4.260269   1.000000
     81         -4.160404   1.000000
     82         -3.617959   1.000000
     83         -3.327847   1.000000
     84         -3.144800   1.000000
     85         -3.094611   1.000000
     86         -2.450976   1.000000
     87         -2.362671   1.000000
     88         -1.937577   1.000000
     89         -1.814837   1.000000
     90         -1.804307   1.000000
     91         -1.756949   1.000000
     92         -1.713092   1.000000
     93         -1.533778   1.000000
     94         -1.403008   1.000000
     95         -1.292844   1.000000
     96         -1.190007   1.000000
     97         -1.136403   1.000000
     98         -1.050855   1.000000
     99         -0.915103   1.000000
    100         -0.859136   1.000000
    101         -0.777931   1.000000
    102         -0.682739   1.000000
    103         -0.651294   1.000000
    104         -0.504238   1.000000
    105         -0.466139   1.000000
    106         -0.381582   1.000000
    107         -0.343776   1.000000
    108         -0.228304   1.000000
    109         -0.209179   1.000000
    110         -0.162941   1.000000
    111         -0.074346   1.000000
    112         -0.000331   1.000000
    113          0.085047   1.000000
    114          0.162839   1.000004
    115          0.209617   1.000075
    116          0.262863   1.001120
    117          0.313469   1.007959
    118          0.357232   1.024744
    119          0.385160   1.034952
    120          0.397677   1.034737
    121          0.487447   0.713204
    122          0.586245   0.031253
    123          0.599531  -0.003689
    124          0.643875  -0.034618
    125          0.716033  -0.007386
    126          0.738077  -0.003354
    127          0.770116  -0.000861
    128          0.793928  -0.000269
    129          0.866821  -0.000004
    130          0.933442  -0.000000
    131          0.952985  -0.000000
    132          1.065914  -0.000000
    133          1.128013  -0.000000
    134          1.139596  -0.000000
    135          1.199349  -0.000000
    136          1.290833  -0.000000
    137          1.352099  -0.000000
    138          1.371662  -0.000000
    139          1.428811  -0.000000
    140          1.485382  -0.000000
    141          1.525365  -0.000000
    142          1.545888  -0.000000
    143          1.620361  -0.000000
    144          1.634067  -0.000000
    145          1.672977  -0.000000
    146          1.747213  -0.000000
    147          1.767144  -0.000000
    148          1.810367  -0.000000
    149          1.871635  -0.000000
    150          1.901265  -0.000000
    151          1.938405  -0.000000
    152          2.022711  -0.000000
    153          2.108400  -0.000000
    154          2.164499  -0.000000
    155          2.182952  -0.000000
    156          2.257052  -0.000000
    157          2.277993  -0.000000
    158          2.319748  -0.000000
    159          2.405933  -0.000000
    160          2.467372  -0.000000
    161          2.482426  -0.000000
    162          2.572867   0.000000
    163          2.674659   0.000000
    164          2.733790   0.000000
    165          2.911236   0.000000
    166          2.996959   0.000000
    167          3.070107   0.000000
    168          3.149747   0.000000
    169          3.306511   0.000000
    170          3.341559   0.000000
    171          3.525849   0.000000
    172          3.567005   0.000000
    173          3.677269   0.000000
    174          3.735285   0.000000
    175          3.793224   0.000000
    176          3.921395   0.000000
    177          3.953735   0.000000
    178          4.057287   0.000000
    179          4.185972   0.000000
    180          4.305883   0.000000
    181          4.357203   0.000000
    182          4.438292   0.000000
    183          4.487414   0.000000
    184          4.510856   0.000000
    185          4.624150   0.000000
    186          4.686138   0.000000
    187          4.744576   0.000000
    188          4.814261   0.000000
    189          4.850346   0.000000
    190          4.989761   0.000000
    191          5.042317   0.000000
    192          5.131883   0.000000
 
  0.5000000E+00  0.1276756E-14  0.1276756E-14  0.5555556E-01
      1        -56.794383   1.000000
      2        -56.605546   1.000000
      3        -56.592269   1.000000
      4        -56.458061   1.000000
      5        -56.397304   1.000000
      6        -56.365053   1.000000
      7        -56.320894   1.000000
      8        -56.286593   1.000000
      9        -56.206525   1.000000
     10        -56.197901   1.000000
     11        -56.169906   1.000000
     12        -56.121434   1.000000
     13        -56.113538   1.000000
     14        -56.049096   1.000000
     15        -33.299372   1.000000
     16        -33.044061   1.000000
     17        -33.000278   1.000000
     18        -32.975786   1.000000
     19        -32.918871   1.000000
     20        -32.910504   1.000000
     21        -32.886833   1.000000
     22        -32.861116   1.000000
     23        -32.853458   1.000000
     24        -32.769151   1.000000
     25        -32.758488   1.000000
     26        -32.706858   1.000000
     27        -32.674847   1.000000
     28        -32.665888   1.000000
     29        -32.653087   1.000000
     30        -32.652402   1.000000
     31        -32.648958   1.000000
     32        -32.634424   1.000000
     33        -32.612971   1.000000
     34        -32.609515   1.000000
     35        -32.569170   1.000000
     36        -32.554077   1.000000
     37        -32.547322   1.000000
     38        -32.526881   1.000000
     39        -32.518182   1.000000
     40        -32.505413   1.000000
     41        -32.485644   1.000000
     42        -32.473869   1.000000
     43        -32.467456   1.000000
     44        -32.466679   1.000000
     45        -32.462527   1.000000
     46        -32.456399   1.000000
     47        -32.418992   1.000000
     48        -32.396974   1.000000
     49        -32.374137   1.000000
     50        -32.369447   1.000000
     51        -32.357388   1.000000
     52        -32.354108   1.000000
     53        -32.343036   1.000000
     54        -32.331663   1.000000
     55        -32.307599   1.000000
     56        -32.256637   1.000000
     57        -14.354042   1.000000
     58        -14.319365   1.000000
     59        -14.305842   1.000000
     60        -14.274191   1.000000
     61        -14.271435   1.000000
     62        -13.990501   1.000000
     63        -13.972208   1.000000
     64        -13.944847   1.000000
     65        -13.904605   1.000000
     66        -13.893359   1.000000
     67         -8.047035   1.000000
     68         -7.093029   1.000000
     69         -7.003789   1.000000
     70         -6.125159   1.000000
     71         -6.010054   1.000000
     72         -5.858259   1.000000
     73         -5.794316   1.000000
     74         -5.584827   1.000000
     75         -5.479375   1.000000
     76         -5.018190   1.000000
     77         -5.015810   1.000000
     78         -4.844779   1.000000
     79         -4.394454   1.000000
     80         -4.300418   1.000000
     81         -4.075109   1.000000
     82         -3.895130   1.000000
     83         -3.777223   1.000000
     84         -3.018198   1.000000
     85         -2.943279   1.000000
     86         -2.548742   1.000000
     87         -2.477857   1.000000
     88         -2.317893   1.000000
     89         -1.993642   1.000000
     90         -1.742049   1.000000
     91         -1.658844   1.000000
     92         -1.332461   1.000000
     93         -1.328138   1.000000
     94         -1.297157   1.000000
     95         -1.220472   1.000000
     96         -1.172528   1.000000
     97         -1.121313   1.000000
     98         -0.950859   1.000000
     99         -0.834742   1.000000
    100         -0.821408   1.000000
    101         -0.656166   1.000000
    102         -0.578046   1.000000
    103         -0.398233   1.000000
    104         -0.319148   1.000000
    105         -0.215189   1.000000
    106         -0.167378   1.000000
    107         -0.110227   1.000000
    108         -0.083558   1.000000
    109         -0.052660   1.000000
    110          0.053399   1.000000
    111          0.069796   1.000000
    112          0.110568   1.000000
    113          0.179913   1.000013
    114          0.216545   1.000110
    115          0.253957   1.000744
    116          0.301581   1.005318
    117          0.349346   1.021109
    118          0.372582   1.031392
    119          0.412537   1.026202
    120          0.490774   0.687751
    121          0.579694   0.054535
    122          0.642805  -0.034823
    123          0.688787  -0.016351
    124          0.715866  -0.007427
    125          0.727959  -0.004893
    126          0.796605  -0.000234
    127          0.849050  -0.000011
    128          0.861033  -0.000005
    129          0.873621  -0.000002
    130          0.902289  -0.000000
    131          0.985642  -0.000000
    132          1.032686  -0.000000
    133          1.069389  -0.000000
    134          1.079347  -0.000000
    135          1.111120  -0.000000
    136          1.160097  -0.000000
    137          1.177839  -0.000000
    138          1.212788  -0.000000
    139          1.245174  -0.000000
    140          1.319008  -0.000000
    141          1.346417  -0.000000
    142          1.399964  -0.000000
    143          1.445458  -0.000000
    144          1.488087  -0.000000
    145          1.605181  -0.000000
    146          1.612187  -0.000000
    147          1.688702  -0.000000
    148          1.697182  -0.000000
    149          1.733363  -0.000000
    150          1.757943  -0.000000
    151          1.802573  -0.000000
    152          1.886872  -0.000000
    153          1.916109  -0.000000
    154          1.988068  -0.000000
    155          2.076391  -0.000000
    156          2.137668  -0.000000
    157          2.158647  -0.000000
    158          2.218529  -0.000000
    159          2.345670  -0.000000
    160          2.385827  -0.000000
    161          2.414653  -0.000000
    162          2.592529   0.000000
    163          2.698700   0.000000
    164          2.783184   0.000000
    165          2.807675   0.000000
    166          2.899241   0.000000
    167          2.956704   0.000000
    168          3.131481   0.000000
    169          3.367553   0.000000
    170          3.512951   0.000000
    171          3.530537   0.000000
    172          3.699337   0.000000
    173          3.876576   0.000000
    174          3.894195   0.000000
    175          4.022099   0.000000
    176          4.047184   0.000000
    177          4.130646   0.000000
    178          4.216471   0.000000
    179          4.233325   0.000000
    180          4.326696   0.000000
    181          4.474154   0.000000
    182          4.495663   0.000000
    183          4.634952   0.000000
    184          4.640230   0.000000
    185          4.684035   0.000000
    186          4.708065   0.000000
    187          4.870421   0.000000
    188          4.971269   0.000000
    189          5.083344   0.000000
    190          5.106851   0.000000
    191          5.240664   0.000000
    192          5.315393   0.000000
 
  0.1276756E-14  0.3333333E+00  0.1262879E-14  0.1111111E+00
      1        -56.794387   1.000000
      2        -56.629610   1.000000
      3        -56.567976   1.000000
      4        -56.463151   1.000000
      5        -56.407674   1.000000
      6        -56.364912   1.000000
      7        -56.310418   1.000000
      8        -56.281293   1.000000
      9        -56.214009   1.000000
     10        -56.206763   1.000000
     11        -56.183581   1.000000
     12        -56.109924   1.000000
     13        -56.100381   1.000000
     14        -56.043015   1.000000
     15        -33.299369   1.000000
     16        -33.057072   1.000000
     17        -32.988718   1.000000
     18        -32.975920   1.000000
     19        -32.932555   1.000000
     20        -32.925360   1.000000
     21        -32.909674   1.000000
     22        -32.871407   1.000000
     23        -32.863689   1.000000
     24        -32.861117   1.000000
     25        -32.764640   1.000000
     26        -32.762447   1.000000
     27        -32.762216   1.000000
     28        -32.711959   1.000000
     29        -32.674805   1.000000