       N       E                     dE             d eps       ncg     rms          rms(c)
DAV:   1     0.214591021750E+04    0.21459E+04   -0.11704E+05  3136   0.116E+03
DAV:   2     0.586147390678E+02   -0.20873E+04   -0.20236E+04  3328   0.351E+02
DAV:   3    -0.165911223421E+03   -0.22453E+03   -0.21838E+03  5440   0.101E+02
DAV:   4    -0.202379681502E+03   -0.36468E+02   -0.36078E+02  4928   0.323E+01
DAV:   5    -0.204876199707E+03   -0.24965E+01   -0.24961E+01  4672   0.730E+00    0.366E+01
DAV:   6    -0.249043659602E+03   -0.44167E+02   -0.29982E+02  4608   0.392E+01    0.747E+01
DAV:   7    -0.225397972600E+03    0.23646E+02   -0.90798E+02  5120   0.506E+01    0.557E+01
DAV:   8    -0.199161246166E+03    0.26237E+02   -0.50202E+02  4928   0.330E+01    0.393E+01
DAV:   9    -0.178754717315E+03    0.20407E+02   -0.12637E+02  4736   0.192E+01    0.178E+01
DAV:  10    -0.174671519195E+03    0.40832E+01   -0.23760E+01  4416   0.887E+00    0.127E+01
DAV:  11    -0.172666244471E+03    0.20053E+01   -0.83171E+00  4544   0.569E+00    0.929E+00
DAV:  12    -0.171645976860E+03    0.10203E+01   -0.63884E+00  4608   0.647E+00    0.628E+00
DAV:  13    -0.171280127117E+03    0.36585E+00   -0.39827E+00  5056   0.449E+00    0.402E+00
DAV:  14    -0.171281820304E+03   -0.16932E-02   -0.20678E+00  4608   0.344E+00    0.442E+00
DAV:  15    -0.171163340194E+03    0.11848E+00   -0.15487E+00  4608   0.284E+00    0.334E+00
DAV:  16    -0.171158718105E+03    0.46221E-02   -0.15165E+00  4608   0.188E+00    0.283E+00
DAV:  17    -0.171107812780E+03    0.50905E-01   -0.48370E-01  4608   0.167E+00    0.166E+00
DAV:  18    -0.171086461734E+03    0.21351E-01   -0.15590E-01  4608   0.121E+00    0.949E-01
DAV:  19    -0.171087440337E+03   -0.97860E-03   -0.10166E-01  4608   0.745E-01    0.896E-01
DAV:  20    -0.171082446318E+03    0.49940E-02   -0.35585E-02  4736   0.584E-01    0.472E-01
DAV:  21    -0.171081880793E+03    0.56553E-03   -0.17121E-02  4608   0.353E-01    0.242E-01
DAV:  22    -0.171082990599E+03   -0.11098E-02   -0.41270E-03  5056   0.242E-01    0.224E-01
DAV:  23    -0.171083741061E+03   -0.75046E-03   -0.41685E-03  4672   0.158E-01    0.108E-01
DAV:  24    -0.171085465896E+03   -0.17248E-02   -0.24884E-03  4544   0.151E-01    0.153E-01
DAV:  25    -0.171086116651E+03   -0.65075E-03   -0.14321E-03  4544   0.133E-01    0.680E-02
DAV:  26    -0.171087219732E+03   -0.11031E-02   -0.60430E-04  3904   0.599E-02    0.706E-02
DAV:  27    -0.171087537871E+03   -0.31814E-03   -0.35281E-04  4608   0.554E-02    0.464E-02
DAV:  28    -0.171088371001E+03   -0.83313E-03   -0.23320E-04  3904   0.397E-02    0.308E-02
DAV:  29    -0.171088603201E+03   -0.23220E-03   -0.66671E-05  3904   0.306E-02    0.234E-02
DAV:  30    -0.171089009605E+03   -0.40640E-03   -0.52698E-05  3392   0.219E-02    0.147E-02
DAV:  31    -0.171089200797E+03   -0.19119E-03   -0.32196E-05  4032   0.180E-02    0.169E-02
DAV:  32    -0.171089361776E+03   -0.16098E-03   -0.16963E-05  3456   0.132E-02    0.660E-03
DAV:  33    -0.171089511984E+03   -0.15021E-03   -0.11416E-05  3456   0.604E-03    0.379E-03
DAV:  34    -0.171089601402E+03   -0.89418E-04   -0.63298E-06  3584   0.407E-03    0.255E-03
DAV:  35    -0.171089649038E+03   -0.47636E-04   -0.37313E-06  3456   0.219E-03    0.134E-03
DAV:  36    -0.171089681289E+03   -0.32251E-04   -0.21350E-06  3520   0.136E-03    0.687E-04
DAV:  37    -0.171089697759E+03   -0.16470E-04   -0.48427E-07  3264   0.857E-04    0.567E-04
DAV:  38    -0.171089710312E+03   -0.12553E-04   -0.48227E-07  3328   0.658E-04    0.326E-04
DAV:  39    -0.171089714680E+03   -0.43678E-05   -0.15269E-07  2944   0.387E-04
   1 F= -.17108971E+03 E0= -.17109164E+03  d E =0.576578E-02
