 vasp.6.5.0 16Dec24 (build Apr 17 2025 17:55:45) complex                        
  
 executed on             LinuxIFC date 2025.06.10  14:56:33
 running   64 mpi-ranks, on    1 nodes
 distrk:  each k-point on   64 cores,    1 groups
 distr:  one band on NCORE=   1 cores,   64 groups


--------------------------------------------------------------------------------------------------------


 INCAR:
   ISTART = 0
   ICHARG = 2
   PREC = N
   LREAL = .FALSE.
   ENCUT = 520
   ALGO = N
   NELM = 500
   EDIFF = 1E-05
   IBRION = -1
   ISIF = 3
   NSW = 0
   EDIFFG = -0.01
   ISMEAR = 1
   SIGMA = 0.1
   LVHAR = .TRUE.
   LVTOT = .TRUE.

 POTCAR:    PAW_PBE Ga_d 06Jul2010                
 POTCAR:    PAW_PBE Ti_sv 26Sep2005               
 POTCAR:    PAW_PBE Al 04Jan2001                  
 -----------------------------------------------------------------------------
|                                                                             |
|           W    W    AA    RRRRR   N    N  II  N    N   GGGG   !!!           |
|           W    W   A  A   R    R  NN   N  II  NN   N  G    G  !!!           |
|           W    W  A    A  R    R  N N  N  II  N N  N  G       !!!           |
|           W WW W  AAAAAA  RRRRR   N  N N  II  N  N N  G  GGG   !            |
|           WW  WW  A    A  R   R   N   NN  II  N   NN  G    G                |
|           W    W  A    A  R    R  N    N  II  N    N   GGGG   !!!           |
|                                                                             |
|     For optimal performance we recommend to set                             |
|       NCORE = 2 up to number-of-cores-per-socket                            |
|     NCORE specifies how many cores store one orbital (NPAR=cpu/NCORE).      |
|     This setting can greatly improve the performance of VASP for DFT.       |
|     The default, NCORE=1 might be grossly inefficient on modern             |
|     multi-core architectures or massively parallel machines. Do your        |
|     own testing! More info at https://www.vasp.at/wiki/index.php/NCORE      |
|     Unfortunately you need to use the default for GW and RPA                |
|     calculations (for HF NCORE is supported but not extensively tested      |
|     yet).                                                                   |
|                                                                             |
 -----------------------------------------------------------------------------

 POTCAR:    PAW_PBE Ga_d 06Jul2010                
   SHA256 =  a60ddf36e14f00ea098d9e3914b3745f1b7105e68786148f49ae384e44b4226c Ga_d/POTCAR           
   COPYR  = (c) Copyright 06Jul2010 Georg Kresse                                                    
   COPYR  = This file is part of the software VASP. Any use, copying, and all other rights are regul
   COPYR  = If you do not have a valid VASP license, you may not use, copy or distribute this file. 
   VRHFIN =Ga: s2p1                                                                                 
   LEXCH  = PE                                                                                      
   EATOM  =  2148.8298 eV,  157.9345 Ry                                                             
                                                                                                    
   TITEL  = PAW_PBE Ga_d 06Jul2010                                                                  
   LULTRA =        F    use ultrasoft PP ?                                                          
   IUNSCR =        1    unscreen: 0-lin 1-nonlin 2-no                                               
   RPACOR =    1.700    partial core radius                                                         
   POMASS =   69.723; ZVAL   =   13.000    mass and valenz                                          
   RCORE  =    2.300    outmost cutoff radius                                                       
   RWIGS  =    2.300; RWIGS  =    1.217    wigner-seitz radius (au A)                               
   ENMAX  =  282.691; ENMIN  =  212.018 eV                                                          
   ICORE  =        3    local potential                                                             
   LCOR   =        T    correct aug charges                                                         
   LPAW   =        T    paw PP                                                                      
   EAUG   =  490.690                                                                                
   DEXC   =    0.000                                                                                
   RMAX   =    2.341    core radius for proj-oper                                                   
   RAUG   =    1.300    factor for augmentation sphere                                              
   RDEP   =    2.413    radius for radial grids                                                     
   RDEPT  =    1.856    core radius for aug-charge                                                  
                                                                                                    
   Atomic configuration                                                                             
    9 entries                                                                                       
     n  l   j            E        occ.                                                              
     1  0  0.50    -10228.7831   2.0000                                                             
     2  0  0.50     -1262.1604   2.0000                                                             
     2  1  1.50     -1098.6333   6.0000                                                             
     3  0  0.50      -148.1110   2.0000                                                             
     3  1  1.50       -98.8436   6.0000                                                             
     3  2  2.50       -19.1549  10.0000                                                             
     4  0  0.50        -8.9483   2.0000                                                             
     4  1  0.50        -2.5791   1.0000                                                             
     4  3  2.50        -2.7416   0.0000                                                             
   Description                                                                                      
     l       E           TYP  RCUT    TYP  RCUT                                                     
     2    -19.1549037     23  2.300                                                                 
     2     -5.4423304     23  2.300                                                                 
     0     -8.9483111     23  2.300                                                                 
     0     68.0291300     23  2.300                                                                 
     1     -2.5790802     23  2.100                                                                 
     1     81.6349560     23  2.300                                                                 
     3      6.8029130     23  2.300                                                                 
  local pseudopotential read in
  partial core-charges read in
  partial kinetic energy density read in
  atomic valenz-charges read in
  non local Contribution for L=           2  read in
    real space projection operators read in
  non local Contribution for L=           2  read in
    real space projection operators read in
  non local Contribution for L=           0  read in
    real space projection operators read in
  non local Contribution for L=           0  read in
    real space projection operators read in
  non local Contribution for L=           1  read in
    real space projection operators read in
  non local Contribution for L=           1  read in
    real space projection operators read in
    PAW grid and wavefunctions read in
 
   number of l-projection  operators is LMAX  =           6
   number of lm-projection operators is LMMAX =          18
 
 POTCAR:    PAW_PBE Ti_sv 26Sep2005               
   SHA256 =  4d747badb5a5ea28d858fbac70885b3f8929d6fd9e5b0dbe1ecb9878dc164da1 Ti_sv/POTCAR          
   COPYR  = (c) Copyright 26Sep2005 Georg Kresse                                                    
   COPYR  = This file is part of the software VASP. Any use, copying, and all other rights are regul
   COPYR  = If you do not have a valid VASP license, you may not use, copy or distribute this file. 
   VRHFIN =Ti: 3p4s3d                                                                               
   LEXCH  = PE                                                                                      
   EATOM  =  1588.0892 eV,  116.7213 Ry                                                             
                                                                                                    
   TITEL  = PAW_PBE Ti_sv 26Sep2005                                                                 
   LULTRA =        F    use ultrasoft PP ?                                                          
   IUNSCR =        1    unscreen: 0-lin 1-nonlin 2-no                                               
   RPACOR =    2.000    partial core radius                                                         
   POMASS =   47.880; ZVAL   =   12.000    mass and valenz                                          
   RCORE  =    2.300    outmost cutoff radius                                                       
   RWIGS  =    2.300; RWIGS  =    1.217    wigner-seitz radius (au A)                               
   ENMAX  =  274.610; ENMIN  =  205.957 eV                                                          
   ICORE  =        3    local potential                                                             
   LCOR   =        T    correct aug charges                                                         
   LPAW   =        T    paw PP                                                                      
   EAUG   =  482.848                                                                                
   RMAX   =    2.348    core radius for proj-oper                                                   
   RAUG   =    1.300    factor for augmentation sphere                                              
   RDEP   =    2.381    radius for radial grids                                                     
   RDEPT  =    1.930    core radius for aug-charge                                                  
                                                                                                    
   Atomic configuration                                                                             
    8 entries                                                                                       
     n  l   j            E        occ.                                                              
     1  0  0.50     -4865.3608   2.0000                                                             
     2  0  0.50      -533.1368   2.0000                                                             
     2  1  1.50      -440.5031   6.0000                                                             
     3  0  0.50       -59.3186   2.0000                                                             
     4  0  0.50        -3.7291   1.0000                                                             
     3  1  1.50       -35.7012   6.0000                                                             
     3  2  2.50        -1.9157   3.0000                                                             
     4  3  2.50        -1.3606   0.0000                                                             
   Description                                                                                      
     l       E           TYP  RCUT    TYP  RCUT                                                     
     0    -59.3185931     23  1.800                                                                 
     0     -3.7290822     23  2.300                                                                 
     1    -35.7012045     23  2.300                                                                 
     1     -1.3605826     23  2.300                                                                 
     2     -1.9156920     23  2.300                                                                 
     2     -0.0236318     23  2.300                                                                 
     3     -1.3605826     23  2.300                                                                 
  local pseudopotential read in
  partial core-charges read in
  partial kinetic energy density read in
  atomic valenz-charges read in
  non local Contribution for L=           0  read in
    real space projection operators read in
  non local Contribution for L=           0  read in
    real space projection operators read in
  non local Contribution for L=           1  read in
    real space projection operators read in
  non local Contribution for L=           1  read in
    real space projection operators read in
  non local Contribution for L=           2  read in
    real space projection operators read in
  non local Contribution for L=           2  read in
    real space projection operators read in
    PAW grid and wavefunctions read in
 
   number of l-projection  operators is LMAX  =           6
   number of lm-projection operators is LMMAX =          18
 
 POTCAR:    PAW_PBE Al 04Jan2001                  
   SHA256 =  17880443556af62b473fe41b62a467bd001ad55d2cabe504a3f22e34d4e9db96 Al/POTCAR             
   COPYR  = (c) Copyright 04Jan2001 Georg Kresse                                                    
   COPYR  = This file is part of the software VASP. Any use, copying, and all other rights are regul
   COPYR  = If you do not have a valid VASP license, you may not use, copy or distribute this file. 
   VRHFIN =Al: s2p1                                                                                 
   LEXCH  = PE                                                                                      
   EATOM  =    53.5387 eV,    3.9350 Ry                                                             
                                                                                                    
   TITEL  = PAW_PBE Al 04Jan2001                                                                    
   LULTRA =        F    use ultrasoft PP ?                                                          
   IUNSCR =        1    unscreen: 0-lin 1-nonlin 2-no                                               
   RPACOR =    1.500    partial core radius                                                         
   POMASS =   26.981; ZVAL   =    3.000    mass and valenz                                          
   RCORE  =    1.900    outmost cutoff radius                                                       
   RWIGS  =    2.650; RWIGS  =    1.402    wigner-seitz radius (au A)                               
   ENMAX  =  240.300; ENMIN  =  180.225 eV                                                          
   ICORE  =        2    local potential                                                             
   LCOR   =        T    correct aug charges                                                         
   LPAW   =        T    paw PP                                                                      
   EAUG   =  291.052                                                                                
   DEXC   =    0.000                                                                                
   RMAX   =    1.939    core radius for proj-oper                                                   
   RAUG   =    1.300    factor for augmentation sphere                                              
   RDEP   =    1.966    radius for radial grids                                                     
   RDEPT  =    1.856    core radius for aug-charge                                                  
                                                                                                    
   Atomic configuration                                                                             
    6 entries                                                                                       
     n  l   j            E        occ.                                                              
     1  0  0.50     -1511.1048   2.0000                                                             
     2  0  0.50      -108.1629   2.0000                                                             
     2  1  1.50       -69.6402   6.0000                                                             
     3  0  0.50        -7.7528   2.0000                                                             
     3  1  1.50        -2.7121   1.0000                                                             
     3  2  2.50        -2.7212   0.0000                                                             
   Description                                                                                      
     l       E           TYP  RCUT    TYP  RCUT                                                     
     0     -7.7528455     23  1.900                                                                 
     0     -3.3096929     23  1.900                                                                 
     1     -2.7120682     23  1.900                                                                 
     1     13.6058260     23  1.900                                                                 
     2     -2.7211652      7  1.900                                                                 
  local pseudopotential read in
  partial core-charges read in
  partial kinetic energy density read in
  atomic valenz-charges read in
  non local Contribution for L=           0  read in
    real space projection operators read in
  non local Contribution for L=           0  read in
    real space projection operators read in
  non local Contribution for L=           1  read in
    real space projection operators read in
  non local Contribution for L=           1  read in
    real space projection operators read in
    PAW grid and wavefunctions read in
 
   number of l-projection  operators is LMAX  =           4
   number of lm-projection operators is LMMAX =           8
 
 -----------------------------------------------------------------------------
|                                                                             |
|               ----> ADVICE to this user running VASP <----                  |
|                                                                             |
|     You have a (more or less) 'large supercell' and for larger cells it     |
|     might be more efficient to use real-space projection operators.         |
|     Therefore, try LREAL= Auto in the INCAR file.                           |
|     Mind: For very accurate calculation, you might also keep the            |
|     reciprocal projection scheme (i.e. LREAL=.FALSE.).                      |
|                                                                             |
 -----------------------------------------------------------------------------

  PAW_PBE Ga_d 06Jul2010                :
 energy of atom  1       EATOM=-2148.8298
 kinetic energy error for atom=    0.0026 (will be added to EATOM!!)
  PAW_PBE Ti_sv 26Sep2005               :
 energy of atom  2       EATOM=-1588.0892
 kinetic energy error for atom=    0.0042 (will be added to EATOM!!)
  PAW_PBE Al 04Jan2001                  :
 energy of atom  3       EATOM=  -53.5387
 kinetic energy error for atom=    0.0002 (will be added to EATOM!!)
 
 
 POSCAR: Generated by VASPKIT code
  positions in direct lattice
  No initial velocities read in


 exchange-correlation table for PE
   RHO(1)=    0.500       N(1)  =     2000
   RHO(2)=  100.500       N(2)  =     4000
 


--------------------------------------------------------------------------------------------------------


 ion  position               nearest neighbor table
   1  0.000  0.000  0.322-  17 2.74  25 2.74   9 2.80   9 2.80  22 2.88  30 2.88
   2  0.000  0.500  0.500-  18 2.74  24 2.74  26 2.74  32 2.74  10 2.80  10 2.80  19 2.88  27 2.88
                            21 2.88  29 2.88
   3  0.000  0.750  0.411-  19 2.72  22 2.72  27 2.72  30 2.72  11 2.80  11 2.80  32 2.86  24 2.86
                            25 2.86  17 2.86
   4  0.000  0.250  0.589-  20 2.72  21 2.72  28 2.72  29 2.72  12 2.80  12 2.80  31 2.86  23 2.86
                            26 2.86  18 2.86
   5  0.000  0.250  0.411-  21 2.74  29 2.74  13 2.80  13 2.80  17 2.87  25 2.87  32 2.87  24 2.87

   6  0.000  0.750  0.589-  19 2.74  27 2.74  14 2.80  14 2.80  18 2.87  26 2.87  31 2.87  23 2.87

   7  0.000  0.000  0.500-  17 2.72  23 2.72  25 2.72  31 2.72  15 2.80  15 2.80  21 2.85  29 2.85
                            27 2.85  19 2.85
   8  0.000  0.500  0.322-  24 2.72  32 2.72  16 2.80  16 2.80  22 2.85  30 2.85
   9  0.500  0.000  0.322-  17 2.74  25 2.74   1 2.80   1 2.80  30 2.87  22 2.87
  10  0.500  0.500  0.500-  18 2.74  24 2.74  26 2.74  32 2.74   2 2.80   2 2.80  19 2.87  27 2.87
                            21 2.87  29 2.87
  11  0.500  0.750  0.411-  19 2.72  22 2.72  27 2.72  30 2.72   3 2.80   3 2.80  32 2.85  24 2.85
                            17 2.85  25 2.85
  12  0.500  0.250  0.589-  20 2.72  21 2.72  28 2.72  29 2.72   4 2.80   4 2.80  31 2.85  23 2.85
                            18 2.85  26 2.85
  13  0.500  0.250  0.411-  21 2.73  29 2.73   5 2.80   5 2.80  17 2.86  25 2.86  32 2.86  24 2.86

  14  0.500  0.750  0.589-  19 2.73  27 2.73   6 2.80   6 2.80  18 2.86  26 2.86  31 2.86  23 2.86

  15  0.500  0.000  0.500-  17 2.71  23 2.71  25 2.71  31 2.71   7 2.80   7 2.80  21 2.84  29 2.84
                            27 2.84  19 2.84
  16  0.500  0.500  0.322-  24 2.71  32 2.71   8 2.80   8 2.80  22 2.84  30 2.84
  17  0.251  0.999  0.412-  15 2.71   7 2.72   9 2.74   1 2.74  25 2.79  25 2.81  11 2.85   3 2.86
                            13 2.86   5 2.87  21 3.16  22 3.18
  18  0.251  0.499  0.590-  10 2.74   2 2.74  26 2.79  26 2.81  12 2.85   4 2.86  14 2.86   6 2.87
                            21 3.18
  19  0.251  0.752  0.500-  11 2.72   3 2.72  14 2.73   6 2.74  27 2.79  27 2.81  15 2.84   7 2.85
                            10 2.87   2 2.88  23 3.16  24 3.18
  20  0.251  0.252  0.678-  12 2.72   4 2.72  28 2.79  28 2.81  23 3.18
  21  0.251  0.248  0.500-  12 2.72   4 2.72  13 2.73   5 2.74  29 2.79  29 2.81  15 2.84   7 2.85
                            10 2.87   2 2.88  17 3.16  18 3.18
  22  0.251  0.748  0.323-  11 2.72   3 2.72  30 2.79  30 2.81  16 2.84   8 2.85   9 2.87   1 2.88
                            17 3.18
  23  0.251  0.001  0.588-  15 2.71   7 2.72  31 2.79  31 2.81  12 2.85   4 2.86  14 2.86   6 2.87
                            19 3.16  20 3.18
  24  0.251  0.501  0.411-  16 2.71   8 2.72  10 2.74   2 2.74  32 2.79  32 2.81  11 2.85   3 2.86
                            13 2.86   5 2.87  19 3.18
  25  0.749  0.999  0.412-  15 2.71   7 2.72   9 2.74   1 2.74  17 2.79  17 2.81  11 2.85   3 2.86
                            13 2.86   5 2.87  29 3.16  30 3.18
  26  0.749  0.499  0.590-  10 2.74   2 2.74  18 2.79  18 2.81  12 2.85   4 2.86  14 2.86   6 2.87
                            29 3.18
  27  0.749  0.752  0.500-  11 2.72   3 2.72  14 2.73   6 2.74  19 2.79  19 2.81  15 2.84   7 2.85
                            10 2.87   2 2.88  31 3.16  32 3.18
  28  0.749  0.252  0.678-  12 2.72   4 2.72  20 2.79  20 2.81  31 3.18
  29  0.749  0.248  0.500-  12 2.72   4 2.72  13 2.73   5 2.74  21 2.79  21 2.81  15 2.84   7 2.85
                            10 2.87   2 2.88  25 3.16  26 3.18
  30  0.749  0.748  0.323-  11 2.72   3 2.72  22 2.79  22 2.81  16 2.84   8 2.85   9 2.87   1 2.88
                            25 3.18
  31  0.749  0.001  0.588-  15 2.71   7 2.72  23 2.79  23 2.81  12 2.85   4 2.86  14 2.86   6 2.87
                            27 3.16  28 3.18
  32  0.749  0.501  0.411-  16 2.71   8 2.72  10 2.74   2 2.74  24 2.79  24 2.81  11 2.85   3 2.86
                            13 2.86   5 2.87  27 3.18
 
  LATTYP: Found a simple monoclinic cell.
 ALAT       =     9.9681310671
 B/A-ratio  =     0.5624877854
 C/A-ratio  =     2.6420291366
 COS(beta)  =    -0.1389897551
  
  Lattice vectors:
  
 A1 = (   0.0000000000,   9.9681310671,   0.0000000000)
 A2 = (  -5.6069519684,   0.0000000000,   0.0000000000)
 A3 = (   0.0000000000,  -3.6604470762,  26.0804698346)


Analysis of symmetry for initial positions (statically):
=====================================================================
 Subroutine PRICEL returns:
 Original cell was already a primitive cell.
 

 Routine SETGRP: Setting up the symmetry group for a 
 simple monoclinic supercell.


 Subroutine GETGRP returns: Found  2 space group operations
 (whereof  2 operations were pure point group operations)
 out of a pool of  4 trial point group operations.


The static configuration has the point symmetry C_1h.


Analysis of symmetry for dynamics (positions and initial velocities):
=====================================================================
 Subroutine PRICEL returns:
 Original cell was already a primitive cell.
 

 Routine SETGRP: Setting up the symmetry group for a 
 simple monoclinic supercell.


 Subroutine GETGRP returns: Found  2 space group operations
 (whereof  2 operations were pure point group operations)
 out of a pool of  4 trial point group operations.


The dynamic configuration has the point symmetry C_1h.


 Subroutine INISYM returns: Found  2 space group operations
 (whereof  2 operations are pure point group operations),
 and found     1 'primitive' translations


----------------------------------------------------------------------------------------

                                     Primitive cell                                     

  volume of cell :    1457.6592

  direct lattice vectors                    reciprocal lattice vectors
     5.606951968  0.000000000  0.000000000     0.178350021 -0.000000000 -0.000000000
     0.000000000  9.968131067  0.000000000     0.000000000  0.100319708  0.014080075
     0.000000000 -3.660447076 26.080469835     0.000000000  0.000000000  0.038342868

  length of vectors
     5.606951968  9.968131067 26.336092717     0.178350021  0.101302973  0.038342868

  position of ions in fractional coordinates (direct lattice)
     1.000000000  0.000000000  0.322347790
     1.000000000  0.500000000  0.500099927
     1.000000000  0.750000000  0.411223859
     1.000000000  0.250000000  0.588975996
     1.000000000  0.250000000  0.411223859
     1.000000000  0.750000000  0.588975996
     1.000000000  0.000000000  0.500099927
     1.000000000  0.500000000  0.322347790
     0.500000000  0.000000000  0.322347790
     0.500000000  0.500000000  0.500099927
     0.500000000  0.750000000  0.411223859
     0.500000000  0.250000000  0.588975996
     0.500000000  0.250000000  0.411223859
     0.500000000  0.750000000  0.588975996
     0.500000000  0.000000000  0.500099927
     0.500000000  0.500000000  0.322347790
     0.250946882  0.999437828  0.411760334
     0.250946882  0.499437828  0.589512471
     0.250946882  0.751509054  0.499900073
     0.250946882  0.251509054  0.677652210
     0.250946882  0.248490946  0.500299782
     0.250946882  0.748490946  0.322547644
     0.250946882  0.000562172  0.588439521
     0.250946882  0.500562172  0.410687384
     0.749053118  0.999437828  0.411760334
     0.749053118  0.499437828  0.589512471
     0.749053118  0.751509054  0.499900073
     0.749053118  0.251509054  0.677652210
     0.749053118  0.248490946  0.500299782
     0.749053118  0.748490946  0.322547644
     0.749053118  0.000562172  0.588439521
     0.749053118  0.500562172  0.410687384

  ion indices of the primitive-cell ions
   primitive index   ion index
                 1           1
                 2           2
                 3           3
                 4           4
                 5           5
                 6           6
                 7           7
                 8           8
                 9           9
                10          10
                11          11
                12          12
                13          13
                14          14
                15          15
                16          16
                17          17
                18          18
                19          19
                20          20
                21          21
                22          22
                23          23
                24          24
                25          25
                26          26
                27          27
                28          28
                29          29
                30          30
                31          31
                32          32

----------------------------------------------------------------------------------------

 
 
 KPOINTS: K-Spacing Value to Generate K-Mesh: 0.03

Automatic generation of k-mesh.
 Grid dimensions read from file:
 generate k-points for:    6    3    1

 Generating k-lattice:

  Cartesian coordinates                     Fractional coordinates (reciprocal lattice)
     0.029725003 -0.000000000 -0.000000000     0.166666667  0.000000000  0.000000000
     0.000000000  0.033439903  0.004693358     0.000000000  0.333333333  0.000000000
     0.000000000  0.000000000  0.038342868     0.000000000  0.000000000  1.000000000

  Length of vectors
     0.029725003  0.033767658  0.038342868

  Shift w.r.t. Gamma in fractional coordinates (k-lattice)
     0.000000000  0.000000000  0.000000000

 
 Subroutine IBZKPT returns following result:
 ===========================================
 
 Found      8 irreducible k-points:
 
 Following reciprocal coordinates:
            Coordinates               Weight
  0.000000  0.000000  0.000000      1.000000
  0.166667  0.000000  0.000000      2.000000
  0.333333  0.000000  0.000000      2.000000
  0.500000  0.000000  0.000000      1.000000
  0.000000  0.333333  0.000000      2.000000
  0.166667  0.333333  0.000000      4.000000
  0.333333  0.333333  0.000000      4.000000
  0.500000  0.333333  0.000000      2.000000
 
 Following cartesian coordinates:
            Coordinates               Weight
  0.000000  0.000000  0.000000      1.000000
  0.029725  0.000000  0.000000      2.000000
  0.059450  0.000000  0.000000      2.000000
  0.089175  0.000000  0.000000      1.000000
  0.000000  0.033440  0.004693      2.000000
  0.029725  0.033440  0.004693      4.000000
  0.059450  0.033440  0.004693      4.000000
  0.089175  0.033440  0.004693      2.000000
 


--------------------------------------------------------------------------------------------------------




 Dimension of arrays:
   k-points           NKPTS =      8   k-points in BZ     NKDIM =      8   number of bands    NBANDS=    192
   number of dos      NEDOS =    301   number of ions     NIONS =     32
   non local maximal  LDIM  =      6   non local SUM 2l+1 LMDIM =     18
   total plane-waves  NPLWV = 268800
   max r-space proj   IRMAX =      1   max aug-charges    IRDMAX=   7376
   dimension x,y,z NGX =    32 NGY =   56 NGZ =  150
   dimension x,y,z NGXF=    64 NGYF=  112 NGZF=  300
   support grid    NGXF=    64 NGYF=  112 NGZF=  300
   ions per type =               2  14  16
   NGX,Y,Z   is equivalent  to a cutoff of   9.49,  9.34,  9.47 a.u.
   NGXF,Y,Z  is equivalent  to a cutoff of  18.98, 18.68, 18.94 a.u.

 SYSTEM =  unknown system                          
 POSCAR =  Generated by VASPKIT code               

 Startparameter for this run:
   NWRITE =      2    write-flag & timer
   PREC   = n         normal or accurate (medium, high low for compatibility)
   ISTART =      0    job   : 0-new  1-cont  2-samecut
   ICHARG =      2    charge: 1-file 2-atom 10-const
   ISPIN  =      1    spin polarized calculation?
   LNONCOLLINEAR =      F non collinear calculations
   LSORBIT =      F    spin-orbit coupling
   INIWAV =      1    electr: 0-lowe 1-rand  2-diag
   LASPH  =      F    aspherical Exc in radial PAW
 Electronic Relaxation 1
   ENCUT  =  520.0 eV  38.22 Ry    6.18 a.u.  10.43 18.53 48.97*2*pi/ulx,y,z
   ENINI  =  520.0     initial cutoff
   ENAUG  =  490.7 eV  augmentation charge cutoff
   NELM   =    500;   NELMIN=  2; NELMDL= -5     # of ELM steps 
   EDIFF  = 0.1E-04   stopping-criterion for ELM
   LREAL  =      F    real-space projection
   NLSPLINE    = F    spline interpolate recip. space projectors
   LCOMPAT=      F    compatible to vasp.4.4
   GGA_COMPAT  = T    GGA compatible to vasp.4.4-vasp.4.6
   LMAXPAW     = -100 max onsite density
   LMAXMIX     =    2 max onsite mixed and CHGCAR
   VOSKOWN=      0    Vosko Wilk Nusair interpolation
   ROPT   =    0.00000   0.00000   0.00000
 Ionic relaxation
   EDIFFG = -.1E-01   stopping-criterion for IOM
   NSW    =      0    number of steps for IOM
   NBLOCK =      1;   KBLOCK =      1    inner block; outer block 
   IBRION =     -1    ionic relax: 0-MD 1-quasi-New 2-CG
   NFREE  =      0    steps in history (QN), initial steepest desc. (CG)
   ISIF   =      3    stress and relaxation
   IWAVPR =     10    prediction:  0-non 1-charg 2-wave 3-comb
   ISYM   =      2    0-nonsym 1-usesym 2-fastsym
   LCORR  =      T    Harris-Foulkes like correction to forces

   POTIM  = 0.5000    time-step for ionic-motion
   TEIN   =    0.0    initial temperature
   TEBEG  =    0.0;   TEEND  =   0.0 temperature during run
   SMASS  =  -3.00    Nose mass-parameter (am)
   estimated Nose-frequenzy (Omega)   =  0.10E-29 period in steps = 0.13E+47 mass=  -0.718E-27a.u.
   SCALEE = 1.0000    scale energy and forces
   NPACO  =    256;   APACO  = 10.0  distance and # of slots for P.C.
   PSTRESS=    0.0 pullay stress

  Mass of Ions in am
   POMASS =  69.72 47.88 26.98
  Ionic Valenz
   ZVAL   =  13.00 12.00  3.00
  Atomic Wigner-Seitz radii
   RWIGS  =  -1.00 -1.00 -1.00
  virtual crystal weights 
   VCA    =   1.00  1.00  1.00
   NELECT =     242.0000    total number of electrons
   NUPDOWN=      -1.0000    fix difference up-down

 DOS related values:
   EMIN   =  10.00;   EMAX   =-10.00  energy-range for DOS
   EFERMI =   0.00;   METHOD = LEGACY      
   ISMEAR =     1;   SIGMA  =   0.10  broadening in eV -4-tet -1-fermi 0-gaus
   EFERMI_NEDOS =   21; number of points for ismear=-14 and -15

 Electronic relaxation 2 (details)
   IALGO  =     38    algorithm
   LDIAG  =      T    sub-space diagonalisation (order eigenvalues)
   LSUBROT=      F    optimize rotation matrix (better conditioning)
   TURBO    =      0    0=normal 1=particle mesh
   IRESTART =      0    0=no restart 2=restart with 2 vectors
   NREBOOT  =      0    no. of reboots
   NMIN     =      0    reboot dimension
   EREF     =   0.00    reference energy to select bands
   IMIX   =      4    mixing-type and parameters
     AMIX     =   0.40;   BMIX     =  1.00
     AMIX_MAG =   1.60;   BMIX_MAG =  1.00
     AMIN     =   0.10
     WC   =   100.;   INIMIX=   1;  MIXPRE=   1;  MAXMIX= -45

 Intra band minimization:
   WEIMIN = 0.0000     energy-eigenvalue tresh-hold
   EBREAK =  0.13E-07  absolut break condition
   DEPER  =   0.30     relativ break condition  

   TIME   =   0.40     timestep for ELM

  volume/ion in A,a.u.               =      45.55       307.40
  Fermi-wavevector in a.u.,A,eV,Ry     =   0.899763  1.700305 11.014907  0.809573
  Thomas-Fermi vector in A             =   2.022637
 
 Write flags
   LWAVE        =      T    write WAVECAR
   LDOWNSAMPLE  =      F    k-point downsampling of WAVECAR
   LCHARG       =      T    write CHGCAR
   LVTOT        =      F    write LOCPOT, total local potential
   LVHAR        =      T    write LOCPOT, Hartree potential only
   WRT_POTENTIAL=  hartree ionic  ! write potential to hdf5 file
   LELF         =      F    write electronic localiz. function (ELF)
   LORBIT       =      0    0 simple, 1 ext, 2 COOP (PROOUT), +10 PAW based schemes


 Python interface
   PLUGINS active      =      F    recompile with -DPLUGINS to activate
 
 Dipole corrections
   LMONO      =      F    monopole corrections only (constant potential shift)
   LDIPOL     =      F    correct potential (dipole corrections)
   IDIPOL     =      0    1-x, 2-y, 3-z, 4-all directions 
   EPSILON    =  1.0000000 bulk dielectric constant
   LVACPOTAV  =      F  vacuum potentials using an averaging scheme for the charge density
   VACPOTFLAT =  0.1000000 required flatness to determine vacuum potential
 
Coulomb truncation method
  LTRUNCATE          =      F  Coulomb kernel truncation to be used
  IDIMENSIONALITY    =      3  Dimensionality of cutoff (0 molecules / 2 surfaces)
  ISURFACE           =     -1  Direction of surface normal
  LCOARSEN           =      F  Coarsen the charge grid before padding, preferred

 
 Exchange correlation treatment:
   GGA     = PE    functional components
   XC_C    = 1    coefficients multiplying the functional components
   LIBXC   =     F    Libxc                    
   VOSKOWN =     0    Vosko Wilk Nusair interpolation
   LHFCALC =     F    Hartree Fock is set to
   LHFONE  =     F    Hartree Fock one center treatment
   AEXX    =    0.0000 exact exchange contribution

 Parameters of functionals:
   PE:
     No parameter
 
 Van der Waals corrections
   IVDW    =     0    specifies the selected vdW correction

 Linear response parameters
   LEPSILON=     F    determine dielectric tensor
   LRPA    =     F    only Hartree local field effects (RPA)
   LNABLA  =     F    use nabla operator in PAW spheres
   LVEL    =     F    velocity operator in full k-point grid
   CSHIFT  =0.1000    complex shift for real part using Kramers Kronig
   OMEGAMAX=  -1.0    maximum frequency
   DEG_THRESHOLD= 0.2000000E-02 threshold for treating states as degnerate
   RTIME   =   -0.100 relaxation time in fs
  (WPLASMAI=    0.000 imaginary part of plasma frequency in eV, 0.658/RTIME)
   DFIELD  = 0.0000000 0.0000000 0.0000000 field for delta impulse in time
 
  Optional k-point grid parameters
   LKPOINTS_OPT  =     F    use optional k-point grid
   KPOINTS_OPT_MODE=     1    mode for optional k-point grid
 
 Orbital magnetization related:
   ORBITALMAG=     F  switch on orbital magnetization
   LCHIMAG   =     F  perturbation theory with respect to B field
   DQ        =  0.001000  dq finite difference perturbation B field
   LLRAUG    =     F  two centre corrections for induced B field
   LBONE     =     F  B-component reconstruction in AE one-centre
   LVGVCALC  =     T  calculate vGv susceptibility
   LVGVAPPL  =     F  apply vGv susceptibility instead of pGv for G=0

 Random number generation:
   RANDOM_GENERATOR = DEFAULT
   PCG_SEED         = not used


--------------------------------------------------------------------------------------------------------


 Static calculation
 charge density and potential will be updated during run
 non-spin polarized calculation
 Variant of blocked Davidson
 Davidson routine will perform the subspace rotation
 perform sub-space diagonalisation
    after iterative eigenvector-optimisation
 modified Broyden-mixing scheme, WC =      100.0
 initial mixing is a Kerker type mixing with AMIX =  0.4000 and BMIX =      1.0000
 Hartree-type preconditioning will be used
 using additional bands           71
 reciprocal scheme for non local part
 use partial core corrections
 calculate Harris-corrections to forces 
   (improved forces if not selfconsistent)
 use gradient corrections 
 use of overlap-Matrix (Vanderbilt PP)
 Methfessel and Paxton  Order N= 1 SIGMA  =   0.10


--------------------------------------------------------------------------------------------------------


  energy-cutoff  :      520.00
  volume of cell :     1457.66
      direct lattice vectors                 reciprocal lattice vectors
     5.606951968  0.000000000  0.000000000     0.178350021 -0.000000000 -0.000000000
     0.000000000  9.968131067  0.000000000     0.000000000  0.100319708  0.014080075
     0.000000000 -3.660447076 26.080469835     0.000000000  0.000000000  0.038342868

  length of vectors
     5.606951968  9.968131067 26.336092717     0.178350021  0.101302973  0.038342868


 
 k-points in units of 2pi/SCALE and weight: K-Spacing Value to Generate K-Mesh: 0.03
   0.00000000  0.00000000  0.00000000       0.056
   0.02972500  0.00000000  0.00000000       0.111
   0.05945001  0.00000000  0.00000000       0.111
   0.08917501  0.00000000  0.00000000       0.056
   0.00000000  0.03343990  0.00469336       0.111
   0.02972500  0.03343990  0.00469336       0.222
   0.05945001  0.03343990  0.00469336       0.222
   0.08917501  0.03343990  0.00469336       0.111
 
 k-points in reciprocal lattice and weights: K-Spacing Value to Generate K-Mesh: 0.03
   0.00000000  0.00000000  0.00000000       0.056
   0.16666667  0.00000000  0.00000000       0.111
   0.33333333  0.00000000  0.00000000       0.111
   0.50000000  0.00000000  0.00000000       0.056
   0.00000000  0.33333333  0.00000000       0.111
   0.16666667  0.33333333  0.00000000       0.222
   0.33333333  0.33333333  0.00000000       0.222
   0.50000000  0.33333333  0.00000000       0.111
 
 position of ions in fractional coordinates (direct lattice) 
   0.00000000  0.00000000  0.32234779
   0.00000000  0.50000000  0.50009993
   0.00000000  0.75000000  0.41122386
   0.00000000  0.25000000  0.58897600
   0.00000000  0.25000000  0.41122386
   0.00000000  0.75000000  0.58897600
   0.00000000  0.00000000  0.50009993
   0.00000000  0.50000000  0.32234779
   0.50000000  0.00000000  0.32234779
   0.50000000  0.50000000  0.50009993
   0.50000000  0.75000000  0.41122386
   0.50000000  0.25000000  0.58897600
   0.50000000  0.25000000  0.41122386
   0.50000000  0.75000000  0.58897600
   0.50000000  0.00000000  0.50009993
   0.50000000  0.50000000  0.32234779
   0.25094688  0.99943783  0.41176033
   0.25094688  0.49943783  0.58951247
   0.25094688  0.75150905  0.49990007
   0.25094688  0.25150905  0.67765221
   0.25094688  0.24849095  0.50029978
   0.25094688  0.74849095  0.32254764
   0.25094688  0.00056217  0.58843952
   0.25094688  0.50056217  0.41068738
   0.74905312  0.99943783  0.41176033
   0.74905312  0.49943783  0.58951247
   0.74905312  0.75150905  0.49990007
   0.74905312  0.25150905  0.67765221
   0.74905312  0.24849095  0.50029978
   0.74905312  0.74849095  0.32254764
   0.74905312  0.00056217  0.58843952
   0.74905312  0.50056217  0.41068738
 
 position of ions in cartesian coordinates  (Angst):
   0.00000000 -1.17993702  8.40698181
   0.00000000  3.15347622 13.04284107
   0.00000000  5.97083513 10.72491144
   0.00000000  0.33611730 15.36077069
   0.00000000  0.98676960 10.72491144
   0.00000000  5.32018284 15.36077069
   0.00000000 -1.83058932 13.04284107
   0.00000000  3.80412851  8.40698181
   2.80347598 -1.17993702  8.40698181
   2.80347598  3.15347622 13.04284107
   2.80347598  5.97083513 10.72491144
   2.80347598  0.33611730 15.36077069
   2.80347598  0.98676960 10.72491144
   2.80347598  5.32018284 15.36077069
   2.80347598 -1.83058932 13.04284107
   2.80347598  3.80412851  8.40698181
   1.40704711  8.45530036 10.73890296
   1.40704711  2.82058253 15.37476221
   1.40704711  5.66128298 13.03762877
   1.40704711  0.02656516 17.67348802
   1.40704711  0.64566945 13.04805336
   1.40704711  6.28038728  8.41219411
   1.40704711 -2.14834792 15.34677917
   1.40704711  3.48636990 10.71091992
   4.19990485  8.45530036 10.73890296
   4.19990485  2.82058253 15.37476221
   4.19990485  5.66128298 13.03762877
   4.19990485  0.02656516 17.67348802
   4.19990485  0.64566945 13.04805336
   4.19990485  6.28038728  8.41219411
   4.19990485 -2.14834792 15.34677917
   4.19990485  3.48636990 10.71091992
 


--------------------------------------------------------------------------------------------------------


 k-point     1 :   0.0000 0.0000 0.0000  plane waves:   39301
 k-point     2 :   0.1667 0.0000 0.0000  plane waves:   39271
 k-point     3 :   0.3333 0.0000 0.0000  plane waves:   39241
 k-point     4 :   0.5000 0.0000 0.0000  plane waves:   39164
 k-point     5 :   0.0000 0.3333 0.0000  plane waves:   39296
 k-point     6 :   0.1667 0.3333 0.0000  plane waves:   39275
 k-point     7 :   0.3333 0.3333 0.0000  plane waves:   39207
 k-point     8 :   0.5000 0.3333 0.0000  plane waves:   39206

 maximum and minimum number of plane-waves per node :     39301    39164

 maximum number of plane-waves:     39301
 maximum index in each direction: 
   IXMAX=   10   IYMAX=   18   IZMAX=   48
   IXMIN=  -10   IYMIN=  -18   IZMIN=  -48


 serial   3D FFT for wavefunctions
 parallel 3D FFT for charge:
    minimum data exchange during FFTs selected (reduces bandwidth)


 total amount of memory used by VASP MPI-rank0   217172. kBytes
=======================================================================

   base                                    :      30000. kBytes
   nonl-proj                               :     156180. kBytes
   fftplans                                :       2263. kBytes
   grid                                    :      12946. kBytes
   one-center                              :        497. kBytes
   wavefun                                 :      15286. kBytes
 
     INWAV:  cpu time      0.0000: real time      0.0000
 Broyden mixing: mesh for mixing (old mesh)
   NGX = 21   NGY = 37   NGZ = 97
  (NGX  = 64   NGY  =112   NGZ  =300)
  gives a total of  75369 points

 initial charge density was supplied:
 charge density of overlapping atoms calculated
 number of electron     242.0000000 magnetization 
 keeping initial charge density in first step


--------------------------------------------------------------------------------------------------------


 Maximum index for augmentation-charges          441 (set IRDMAX)


--------------------------------------------------------------------------------------------------------


 First call to EWALD:  gamma=   0.156
 Maximum number of real-space cells   5x   3x   1
 Maximum number of reciprocal cells   2x   2x   6

    FEWALD:  cpu time      0.0016: real time      0.0016


--------------------------------------- Ionic step        1  -------------------------------------------




--------------------------------------- Iteration      1(   1)  ---------------------------------------


    POTLOK:  cpu time      0.0337: real time      0.0337
    SETDIJ:  cpu time      0.0027: real time      0.0027
     EDDAV:  cpu time      5.3488: real time      5.3496
       DOS:  cpu time      0.0004: real time      0.0004
    --------------------------------------------
      LOOP:  cpu time      5.3855: real time      5.3863

 eigenvalue-minimisations  :  3136
 total energy-change (2. order) : 0.2145910E+04  (-0.1170379E+05)
 number of electron     242.0000000 magnetization 
 augmentation part      242.0000000 magnetization 

 Free energy of the ion-electron system (eV)
  ---------------------------------------------------
  alpha Z        PSCENC =       224.08465733
  Ewald energy   TEWEN  =     68226.41498574
  -Hartree energ DENC   =    -91720.67112303
  -exchange      EXHF   =         0.00000000
  -V(xc)+E(xc)   XCENC  =       528.65327968
  PAW double counting   =     21969.42663437   -21851.07168476
  entropy T*S    EENTRO =         0.00966563
  eigenvalues    EBANDS =     -2618.39574683
  atomic energy  EATOM  =     27387.45954937
  Solvation  Ediel_sol  =         0.00000000
  ---------------------------------------------------
  free energy    TOTEN  =      2145.91021750 eV

  energy without entropy =     2145.90055187  energy(sigma->0) =     2145.90699562


--------------------------------------------------------------------------------------------------------




--------------------------------------- Iteration      1(   2)  ---------------------------------------


     EDDAV:  cpu time      5.6020: real time      5.6022
       DOS:  cpu time      0.0004: real time      0.0004
    --------------------------------------------
      LOOP:  cpu time      5.6024: real time      5.6025

 eigenvalue-minimisations  :  3328
 total energy-change (2. order) :-0.2087295E+04  (-0.2023587E+04)
 number of electron     242.0000000 magnetization 
 augmentation part      242.0000000 magnetization 

 Free energy of the ion-electron system (eV)
  ---------------------------------------------------
  alpha Z        PSCENC =       224.08465733
  Ewald energy   TEWEN  =     68226.41498574
  -Hartree energ DENC   =    -91720.67112303
  -exchange      EXHF   =         0.00000000
  -V(xc)+E(xc)   XCENC  =       528.65327968
  PAW double counting   =     21969.42663437   -21851.07168476
  entropy T*S    EENTRO =        -0.00424035
  eigenvalues    EBANDS =     -4705.67731929
  atomic energy  EATOM  =     27387.45954937
  Solvation  Ediel_sol  =         0.00000000
  ---------------------------------------------------
  free energy    TOTEN  =        58.61473907 eV

  energy without entropy =       58.61897942  energy(sigma->0) =       58.61615252


--------------------------------------------------------------------------------------------------------




--------------------------------------- Iteration      1(   3)  ---------------------------------------


     EDDAV:  cpu time      9.6557: real time      9.6562
       DOS:  cpu time      0.0004: real time      0.0004
    --------------------------------------------
      LOOP:  cpu time      9.6561: real time      9.6566

 eigenvalue-minimisations  :  5440
 total energy-change (2. order) :-0.2245260E+03  (-0.2183775E+03)
 number of electron     242.0000000 magnetization 
 augmentation part      242.0000000 magnetization 

 Free energy of the ion-electron system (eV)
  ---------------------------------------------------
  alpha Z        PSCENC =       224.08465733
  Ewald energy   TEWEN  =     68226.41498574
  -Hartree energ DENC   =    -91720.67112303
  -exchange      EXHF   =         0.00000000
  -V(xc)+E(xc)   XCENC  =       528.65327968
  PAW double counting   =     21969.42663437   -21851.07168476
  entropy T*S    EENTRO =         0.01146266
  eigenvalues    EBANDS =     -4930.21898479
  atomic energy  EATOM  =     27387.45954937
  Solvation  Ediel_sol  =         0.00000000
  ---------------------------------------------------
  free energy    TOTEN  =      -165.91122342 eV

  energy without entropy =     -165.92268609  energy(sigma->0) =     -165.91504431


--------------------------------------------------------------------------------------------------------




--------------------------------------- Iteration      1(   4)  ---------------------------------------


     EDDAV:  cpu time      8.3953: real time      8.3957
       DOS:  cpu time      0.0004: real time      0.0004
    --------------------------------------------
      LOOP:  cpu time      8.3957: real time      8.3961

 eigenvalue-minimisations  :  4928
 total energy-change (2. order) :-0.3646846E+02  (-0.3607812E+02)
 number of electron     242.0000000 magnetization 
 augmentation part      242.0000000 magnetization 

 Free energy of the ion-electron system (eV)
  ---------------------------------------------------
  alpha Z        PSCENC =       224.08465733
  Ewald energy   TEWEN  =     68226.41498574
  -Hartree energ DENC   =    -91720.67112303
  -exchange      EXHF   =         0.00000000
  -V(xc)+E(xc)   XCENC  =       528.65327968
  PAW double counting   =     21969.42663437   -21851.07168476
  entropy T*S    EENTRO =         0.01442418
  eigenvalues    EBANDS =     -4966.69040438
  atomic energy  EATOM  =     27387.45954937
  Solvation  Ediel_sol  =         0.00000000
  ---------------------------------------------------
  free energy    TOTEN  =      -202.37968150 eV

  energy without entropy =     -202.39410568  energy(sigma->0) =     -202.38448956


--------------------------------------------------------------------------------------------------------




--------------------------------------- Iteration      1(   5)  ---------------------------------------


     EDDAV:  cpu time      8.0157: real time      8.0160
       DOS:  cpu time      0.0003: real time      0.0003
    CHARGE:  cpu time      0.0939: real time      0.0939
    MIXING:  cpu time      0.0007: real time      0.0007
    --------------------------------------------
      LOOP:  cpu time      8.1106: real time      8.1109

 eigenvalue-minimisations  :  4672
 total energy-change (2. order) :-0.2496518E+01  (-0.2496131E+01)
 number of electron     241.9999517 magnetization 
 augmentation part       64.1519075 magnetization 

 Broyden mixing:
  rms(total) = 0.36633E+01    rms(broyden)= 0.36633E+01
  rms(prec ) = 0.40750E+01
  weight for this iteration     100.00

 Free energy of the ion-electron system (eV)
  ---------------------------------------------------
  alpha Z        PSCENC =       224.08465733
  Ewald energy   TEWEN  =     68226.41498574
  -Hartree energ DENC   =    -91720.67112303
  -exchange      EXHF   =         0.00000000
  -V(xc)+E(xc)   XCENC  =       528.65327968
  PAW double counting   =     21969.42663437   -21851.07168476
  entropy T*S    EENTRO =         0.01477168
  eigenvalues    EBANDS =     -4969.18727009
  atomic energy  EATOM  =     27387.45954937
  Solvation  Ediel_sol  =         0.00000000
  ---------------------------------------------------
  free energy    TOTEN  =      -204.87619971 eV

  energy without entropy =     -204.89097139  energy(sigma->0) =     -204.88112360


--------------------------------------------------------------------------------------------------------




--------------------------------------- Iteration      1(   6)  ---------------------------------------


    POTLOK:  cpu time      0.0308: real time      0.0308
    SETDIJ:  cpu time      0.0023: real time      0.0023
     EDDAV:  cpu time      8.0226: real time      8.0231
       DOS:  cpu time      0.0004: real time      0.0004
    CHARGE:  cpu time      0.0924: real time      0.0924
    MIXING:  cpu time      0.0009: real time      0.0009
    --------------------------------------------
      LOOP:  cpu time      8.1493: real time      8.1497

 eigenvalue-minimisations  :  4608
 total energy-change (2. order) :-0.4416746E+02  (-0.2998164E+02)
 number of electron     241.9999451 magnetization 
 augmentation part       77.6349326 magnetization 

 Broyden mixing:
  rms(total) = 0.74741E+01    rms(broyden)= 0.74740E+01
  rms(prec ) = 0.99850E+01
  weight for this iteration     100.00

 eigenvalues of (default mixing * dielectric matrix)
  average eigenvalue GAMMA=   0.2808
  0.2808

 Free energy of the ion-electron system (eV)
  ---------------------------------------------------
  alpha Z        PSCENC =       224.08465733
  Ewald energy   TEWEN  =     68226.41498574
  -Hartree energ DENC   =    -91552.90373350
  -exchange      EXHF   =         0.00000000
  -V(xc)+E(xc)   XCENC  =       508.46713839
  PAW double counting   =     23454.27370617   -23342.23032165
  entropy T*S    EENTRO =        -0.00155691
  eigenvalues    EBANDS =     -5154.60808455
  atomic energy  EATOM  =     27387.45954937
  Solvation  Ediel_sol  =         0.00000000
  ---------------------------------------------------
  free energy    TOTEN  =      -249.04365960 eV

  energy without entropy =     -249.04210269  energy(sigma->0) =     -249.04314063


--------------------------------------------------------------------------------------------------------




--------------------------------------- Iteration      1(   7)  ---------------------------------------


    POTLOK:  cpu time      0.0303: real time      0.0303
    SETDIJ:  cpu time      0.0025: real time      0.0025
     EDDAV:  cpu time      9.2410: real time      9.2422
       DOS:  cpu time      0.0004: real time      0.0004
    CHARGE:  cpu time      0.0924: real time      0.0924
    MIXING:  cpu time      0.0008: real time      0.0008
    --------------------------------------------
      LOOP:  cpu time      9.3674: real time      9.3686

 eigenvalue-minimisations  :  5120
 total energy-change (2. order) : 0.2364569E+02  (-0.9079765E+02)
 number of electron     241.9999465 magnetization 
 augmentation part       74.4373683 magnetization 

 Broyden mixing:
  rms(total) = 0.55664E+01    rms(broyden)= 0.55663E+01
  rms(prec ) = 0.83013E+01
  weight for this iteration     100.00

 eigenvalues of (default mixing * dielectric matrix)
  average eigenvalue GAMMA=   0.3007
  0.4526  0.1488

 Free energy of the ion-electron system (eV)
  ---------------------------------------------------
  alpha Z        PSCENC =       224.08465733
  Ewald energy   TEWEN  =     68226.41498574
  -Hartree energ DENC   =    -91601.76068379
  -exchange      EXHF   =         0.00000000
  -V(xc)+E(xc)   XCENC  =       513.42404757
  PAW double counting   =     23777.53200948   -23660.78891704
  entropy T*S    EENTRO =        -0.00705409
  eigenvalues    EBANDS =     -5091.75656718
  atomic energy  EATOM  =     27387.45954937
  Solvation  Ediel_sol  =         0.00000000
  ---------------------------------------------------
  free energy    TOTEN  =      -225.39797260 eV

  energy without entropy =     -225.39091851  energy(sigma->0) =     -225.39562124


--------------------------------------------------------------------------------------------------------




--------------------------------------- Iteration      1(   8)  ---------------------------------------


    POTLOK:  cpu time      0.0303: real time      0.0303
    SETDIJ:  cpu time      0.0026: real time      0.0026
     EDDAV:  cpu time      8.7446: real time      8.7455
       DOS:  cpu time      0.0004: real time      0.0004
    CHARGE:  cpu time      0.0922: real time      0.0922
    MIXING:  cpu time      0.0009: real time      0.0009
    --------------------------------------------
      LOOP:  cpu time      8.8709: real time      8.8718

 eigenvalue-minimisations  :  4928
 total energy-change (2. order) : 0.2623673E+02  (-0.5020181E+02)
 number of electron     241.9999483 magnetization 
 augmentation part       70.6151634 magnetization 

 Broyden mixing:
  rms(total) = 0.39278E+01    rms(broyden)= 0.39277E+01
  rms(prec ) = 0.49099E+01
  weight for this iteration     100.00

 eigenvalues of (default mixing * dielectric matrix)
  average eigenvalue GAMMA=   0.3328
  0.6703  0.1987  0.1294

 Free energy of the ion-electron system (eV)
  ---------------------------------------------------
  alpha Z        PSCENC =       224.08465733
  Ewald energy   TEWEN  =     68226.41498574
  -Hartree energ DENC   =    -91671.30426511
  -exchange      EXHF   =         0.00000000
  -V(xc)+E(xc)   XCENC  =       517.76858631
  PAW double counting   =     24164.11530606   -24041.89841574
  entropy T*S    EENTRO =        -0.01009715
  eigenvalues    EBANDS =     -5005.79155299
  atomic energy  EATOM  =     27387.45954937
  Solvation  Ediel_sol  =         0.00000000
  ---------------------------------------------------
  free energy    TOTEN  =      -199.16124617 eV

  energy without entropy =     -199.15114902  energy(sigma->0) =     -199.15788045


--------------------------------------------------------------------------------------------------------




--------------------------------------- Iteration      1(   9)  ---------------------------------------


    POTLOK:  cpu time      0.0307: real time      0.0307
    SETDIJ:  cpu time      0.0026: real time      0.0026
     EDDAV:  cpu time      8.2635: real time      8.2637
       DOS:  cpu time      0.0004: real time      0.0004
    CHARGE:  cpu time      0.0925: real time      0.0925
    MIXING:  cpu time      0.0008: real time      0.0008
    --------------------------------------------
      LOOP:  cpu time      8.3905: real time      8.3908

 eigenvalue-minimisations  :  4736
 total energy-change (2. order) : 0.2040653E+02  (-0.1263718E+02)
 number of electron     241.9999495 magnetization 
 augmentation part       66.4856671 magnetization 

 Broyden mixing:
  rms(total) = 0.17849E+01    rms(broyden)= 0.17848E+01
  rms(prec ) = 0.21149E+01
  weight for this iteration     100.00

 eigenvalues of (default mixing * dielectric matrix)
  average eigenvalue GAMMA=   0.4176
  1.0429  0.2528  0.2528  0.1218

 Free energy of the ion-electron system (eV)
  ---------------------------------------------------
  alpha Z        PSCENC =       224.08465733
  Ewald energy   TEWEN  =     68226.41498574
  -Hartree energ DENC   =    -91831.80391456
  -exchange      EXHF   =         0.00000000
  -V(xc)+E(xc)   XCENC  =       520.18193033
  PAW double counting   =     24614.05063305   -24486.98647706
  entropy T*S    EENTRO =         0.00673282
  eigenvalues    EBANDS =     -4832.16281434
  atomic energy  EATOM  =     27387.45954937
  Solvation  Ediel_sol  =         0.00000000
  ---------------------------------------------------
  free energy    TOTEN  =      -178.75471731 eV

  energy without entropy =     -178.76145014  energy(sigma->0) =     -178.75696159


--------------------------------------------------------------------------------------------------------




--------------------------------------- Iteration      1(  10)  ---------------------------------------


    POTLOK:  cpu time      0.0300: real time      0.0300
    SETDIJ:  cpu time      0.0023: real time      0.0023
     EDDAV:  cpu time      7.6145: real time      7.6159
       DOS:  cpu time      0.0004: real time      0.0004
    CHARGE:  cpu time      0.0923: real time      0.0923
    MIXING:  cpu time      0.0009: real time      0.0009
    --------------------------------------------
      LOOP:  cpu time      7.7404: real time      7.7418

 eigenvalue-minimisations  :  4416
 total energy-change (2. order) : 0.4083198E+01  (-0.2375990E+01)
 number of electron     241.9999493 magnetization 
 augmentation part       66.9723174 magnetization 

 Broyden mixing:
  rms(total) = 0.12721E+01    rms(broyden)= 0.12720E+01
  rms(prec ) = 0.14349E+01
  weight for this iteration     100.00

 eigenvalues of (default mixing * dielectric matrix)
  average eigenvalue GAMMA=   0.4810
  1.4281  0.3279  0.3279  0.1223  0.1987

 Free energy of the ion-electron system (eV)
  ---------------------------------------------------
  alpha Z        PSCENC =       224.08465733
  Ewald energy   TEWEN  =     68226.41498574
  -Hartree energ DENC   =    -91768.51653457
  -exchange      EXHF   =         0.00000000
  -V(xc)+E(xc)   XCENC  =       518.39211962
  PAW double counting   =     25050.66827680   -24920.70737848
  entropy T*S    EENTRO =         0.00450541
  eigenvalues    EBANDS =     -4892.47170041
  atomic energy  EATOM  =     27387.45954937
  Solvation  Ediel_sol  =         0.00000000
  ---------------------------------------------------
  free energy    TOTEN  =      -174.67151919 eV

  energy without entropy =     -174.67602460  energy(sigma->0) =     -174.67302100


--------------------------------------------------------------------------------------------------------




--------------------------------------- Iteration      1(  11)  ---------------------------------------


    POTLOK:  cpu time      0.0298: real time      0.0298
    SETDIJ:  cpu time      0.0023: real time      0.0023
     EDDAV:  cpu time      7.8442: real time      7.8451
       DOS:  cpu time      0.0004: real time      0.0004
    CHARGE:  cpu time      0.0925: real time      0.0925
    MIXING:  cpu time      0.0010: real time      0.0010
    --------------------------------------------
      LOOP:  cpu time      7.9702: real time      7.9711

 eigenvalue-minimisations  :  4544
 total energy-change (2. order) : 0.2005275E+01  (-0.8317074E+00)
 number of electron     241.9999483 magnetization 
 augmentation part       67.7729467 magnetization 

 Broyden mixing:
  rms(total) = 0.92903E+00    rms(broyden)= 0.92902E+00
  rms(prec ) = 0.10977E+01
  weight for this iteration     100.00

 eigenvalues of (default mixing * dielectric matrix)
  average eigenvalue GAMMA=   0.5396
  1.7017  0.4926  0.4926  0.1216  0.2146  0.2146

 Free energy of the ion-electron system (eV)
  ---------------------------------------------------
  alpha Z        PSCENC =       224.08465733
  Ewald energy   TEWEN  =     68226.41498574
  -Hartree energ DENC   =    -91727.55522019
  -exchange      EXHF   =         0.00000000
  -V(xc)+E(xc)   XCENC  =       516.62478264
  PAW double counting   =     25401.47721061   -25268.52562947
  entropy T*S    EENTRO =         0.00675462
  eigenvalues    EBANDS =     -4932.65333513
  atomic energy  EATOM  =     27387.45954937
  Solvation  Ediel_sol  =         0.00000000
  ---------------------------------------------------
  free energy    TOTEN  =      -172.66624447 eV

  energy without entropy =     -172.67299909  energy(sigma->0) =     -172.66849601


--------------------------------------------------------------------------------------------------------




--------------------------------------- Iteration      1(  12)  ---------------------------------------


    POTLOK:  cpu time      0.0305: real time      0.0305
    SETDIJ:  cpu time      0.0025: real time      0.0025
     EDDAV:  cpu time      7.9919: real time      7.9926
       DOS:  cpu time      0.0004: real time      0.0004
    CHARGE:  cpu time      0.0927: real time      0.0927
    MIXING:  cpu time      0.0010: real time      0.0010
    --------------------------------------------
      LOOP:  cpu time      8.1189: real time      8.1197

 eigenvalue-minimisations  :  4608
 total energy-change (2. order) : 0.1020268E+01  (-0.6388421E+00)
 number of electron     241.9999478 magnetization 
 augmentation part       68.5147999 magnetization 

 Broyden mixing:
  rms(total) = 0.62816E+00    rms(broyden)= 0.62814E+00
  rms(prec ) = 0.73005E+00
  weight for this iteration     100.00

 eigenvalues of (default mixing * dielectric matrix)
  average eigenvalue GAMMA=   0.5881
  1.8581  1.0251  0.3470  0.3470  0.1217  0.2091  0.2091

 Free energy of the ion-electron system (eV)
  ---------------------------------------------------
  alpha Z        PSCENC =       224.08465733
  Ewald energy   TEWEN  =     68226.41498574
  -Hartree energ DENC   =    -91725.69581505
  -exchange      EXHF   =         0.00000000
  -V(xc)+E(xc)   XCENC  =       515.31737293
  PAW double counting   =     25818.17545266   -25678.40228681
  entropy T*S    EENTRO =         0.01084558
  eigenvalues    EBANDS =     -4939.01073862
  atomic energy  EATOM  =     27387.45954937
  Solvation  Ediel_sol  =         0.00000000
  ---------------------------------------------------
  free energy    TOTEN  =      -171.64597686 eV

  energy without entropy =     -171.65682244  energy(sigma->0) =     -171.64959205


--------------------------------------------------------------------------------------------------------




--------------------------------------- Iteration      1(  13)  ---------------------------------------


    POTLOK:  cpu time      0.0301: real time      0.0302
    SETDIJ:  cpu time      0.0024: real time      0.0024
     EDDAV:  cpu time      8.6907: real time      8.6918
       DOS:  cpu time      0.0004: real time      0.0004
    CHARGE:  cpu time      0.0926: real time      0.0926
    MIXING:  cpu time      0.0010: real time      0.0010
    --------------------------------------------
      LOOP:  cpu time      8.8172: real time      8.8183

 eigenvalue-minimisations  :  5056
 total energy-change (2. order) : 0.3658497E+00  (-0.3982715E+00)
 number of electron     241.9999478 magnetization 
 augmentation part       68.6752108 magnetization 

 Broyden mixing:
  rms(total) = 0.40216E+00    rms(broyden)= 0.40214E+00
  rms(prec ) = 0.47196E+00
  weight for this iteration     100.00

 eigenvalues of (default mixing * dielectric matrix)
  average eigenvalue GAMMA=   0.6218
  1.6175  1.6175  0.4905  0.4905  0.1216  0.2210  0.2210  0.1950

 Free energy of the ion-electron system (eV)
  ---------------------------------------------------
  alpha Z        PSCENC =       224.08465733
  Ewald energy   TEWEN  =     68226.41498574
  -Hartree energ DENC   =    -91750.64791603
  -exchange      EXHF   =         0.00000000
  -V(xc)+E(xc)   XCENC  =       515.04481244
  PAW double counting   =     26012.87409081   -25867.82286329
  entropy T*S    EENTRO =         0.00908194
  eigenvalues    EBANDS =     -4918.69652542
  atomic energy  EATOM  =     27387.45954937
  Solvation  Ediel_sol  =         0.00000000
  ---------------------------------------------------
  free energy    TOTEN  =      -171.28012712 eV

  energy without entropy =     -171.28920905  energy(sigma->0) =     -171.28315443


--------------------------------------------------------------------------------------------------------




--------------------------------------- Iteration      1(  14)  ---------------------------------------


    POTLOK:  cpu time      0.0304: real time      0.0304
    SETDIJ:  cpu time      0.0025: real time      0.0025
     EDDAV:  cpu time      8.0862: real time      8.0869
       DOS:  cpu time      0.0004: real time      0.0004
    CHARGE:  cpu time      0.0924: real time      0.0924
    MIXING:  cpu time      0.0011: real time      0.0011
    --------------------------------------------
      LOOP:  cpu time      8.2130: real time      8.2137

 eigenvalue-minimisations  :  4608
 total energy-change (2. order) :-0.1693187E-02  (-0.2067808E+00)
 number of electron     241.9999479 magnetization 
 augmentation part       68.6572251 magnetization 

 Broyden mixing:
  rms(total) = 0.44195E+00    rms(broyden)= 0.44192E+00
  rms(prec ) = 0.51912E+00
  weight for this iteration     100.00

 eigenvalues of (default mixing * dielectric matrix)
  average eigenvalue GAMMA=   0.6237
  1.7555  1.7555  0.6480  0.4497  0.1216  0.2619  0.2206  0.2206  0.1801

 Free energy of the ion-electron system (eV)
  ---------------------------------------------------
  alpha Z        PSCENC =       224.08465733
  Ewald energy   TEWEN  =     68226.41498574
  -Hartree energ DENC   =    -91758.53837307
  -exchange      EXHF   =         0.00000000
  -V(xc)+E(xc)   XCENC  =       515.25508681
  PAW double counting   =     26075.54739260   -25924.82385062
  entropy T*S    EENTRO =         0.01477143
  eigenvalues    EBANDS =     -4916.69603989
  atomic energy  EATOM  =     27387.45954937
  Solvation  Ediel_sol  =         0.00000000
  ---------------------------------------------------
  free energy    TOTEN  =      -171.28182030 eV

  energy without entropy =     -171.29659173  energy(sigma->0) =     -171.28674411


--------------------------------------------------------------------------------------------------------




--------------------------------------- Iteration      1(  15)  ---------------------------------------


    POTLOK:  cpu time      0.0308: real time      0.0308
    SETDIJ:  cpu time      0.0026: real time      0.0026
     EDDAV:  cpu time      7.9747: real time      7.9748
       DOS:  cpu time      0.0004: real time      0.0004
    CHARGE:  cpu time      0.0923: real time      0.0923
    MIXING:  cpu time      0.0011: real time      0.0011
    --------------------------------------------
      LOOP:  cpu time      8.1018: real time      8.1019

 eigenvalue-minimisations  :  4608
 total energy-change (2. order) : 0.1184801E+00  (-0.1548679E+00)
 number of electron     241.9999479 magnetization 
 augmentation part       68.5996038 magnetization 

 Broyden mixing:
  rms(total) = 0.33397E+00    rms(broyden)= 0.33395E+00
  rms(prec ) = 0.40168E+00
  weight for this iteration     100.00

 eigenvalues of (default mixing * dielectric matrix)
  average eigenvalue GAMMA=   0.6231
  1.8546  1.8546  0.7536  0.4624  0.3869  0.1216  0.2223  0.2223  0.1917  0.1607

 Free energy of the ion-electron system (eV)
  ---------------------------------------------------
  alpha Z        PSCENC =       224.08465733
  Ewald energy   TEWEN  =     68226.41498574
  -Hartree energ DENC   =    -91768.23634480
  -exchange      EXHF   =         0.00000000
  -V(xc)+E(xc)   XCENC  =       515.45969455
  PAW double counting   =     26088.49471753   -25934.99116572
  entropy T*S    EENTRO =         0.00161969
  eigenvalues    EBANDS =     -4909.85105388
  atomic energy  EATOM  =     27387.45954937
  Solvation  Ediel_sol  =         0.00000000
  ---------------------------------------------------
  free energy    TOTEN  =      -171.16334019 eV

  energy without entropy =     -171.16495989  energy(sigma->0) =     -171.16388009


--------------------------------------------------------------------------------------------------------




--------------------------------------- Iteration      1(  16)  ---------------------------------------


    POTLOK:  cpu time      0.0307: real time      0.0307
    SETDIJ:  cpu time      0.0024: real time      0.0024
     EDDAV:  cpu time      8.0031: real time      8.0045
       DOS:  cpu time      0.0004: real time      0.0004
    CHARGE:  cpu time      0.0928: real time      0.0928
    MIXING:  cpu time      0.0011: real time      0.0011
    --------------------------------------------
      LOOP:  cpu time      8.1305: real time      8.1319

 eigenvalue-minimisations  :  4608
 total energy-change (2. order) : 0.4622089E-02  (-0.1516453E+00)
 number of electron     241.9999480 magnetization 
 augmentation part       68.4881918 magnetization 

 Broyden mixing:
  rms(total) = 0.28280E+00    rms(broyden)= 0.28278E+00
  rms(prec ) = 0.32922E+00
  weight for this iteration     100.00

 eigenvalues of (default mixing * dielectric matrix)
  average eigenvalue GAMMA=   0.6570
  1.9955  1.9955  1.1199  0.5607  0.4352  0.2275  0.2275  0.2299  0.1856  0.1216
  0.1285

 Free energy of the ion-electron system (eV)
  ---------------------------------------------------
  alpha Z        PSCENC =       224.08465733
  Ewald energy   TEWEN  =     68226.41498574
  -Hartree energ DENC   =    -91779.27900011
  -exchange      EXHF   =         0.00000000
  -V(xc)+E(xc)   XCENC  =       515.65516167
  PAW double counting   =     26089.71733031   -25934.43302242
  entropy T*S    EENTRO =         0.00901755
  eigenvalues    EBANDS =     -4900.78739755
  atomic energy  EATOM  =     27387.45954937
  Solvation  Ediel_sol  =         0.00000000
  ---------------------------------------------------
  free energy    TOTEN  =      -171.15871810 eV

  energy without entropy =     -171.16773565  energy(sigma->0) =     -171.16172395


--------------------------------------------------------------------------------------------------------




--------------------------------------- Iteration      1(  17)  ---------------------------------------


    POTLOK:  cpu time      0.0309: real time      0.0309
    SETDIJ:  cpu time      0.0022: real time      0.0022
     EDDAV:  cpu time      7.9731: real time      7.9737
       DOS:  cpu time      0.0004: real time      0.0004
    CHARGE:  cpu time      0.0925: real time      0.0925
    MIXING:  cpu time      0.0012: real time      0.0012
    --------------------------------------------
      LOOP:  cpu time      8.1002: real time      8.1008

 eigenvalue-minimisations  :  4608
 total energy-change (2. order) : 0.5090532E-01  (-0.4837000E-01)
 number of electron     241.9999479 magnetization 
 augmentation part       68.4406821 magnetization 

 Broyden mixing:
  rms(total) = 0.16642E+00    rms(broyden)= 0.16641E+00
  rms(prec ) = 0.19427E+00
  weight for this iteration     100.00

 eigenvalues of (default mixing * dielectric matrix)
  average eigenvalue GAMMA=   0.6474
  2.0906  2.0906  1.1813  0.5597  0.4391  0.3133  0.2251  0.2251  0.2039  0.1868
  0.1216  0.1311

 Free energy of the ion-electron system (eV)
  ---------------------------------------------------
  alpha Z        PSCENC =       224.08465733
  Ewald energy   TEWEN  =     68226.41498574
  -Hartree energ DENC   =    -91794.19346700
  -exchange      EXHF   =         0.00000000
  -V(xc)+E(xc)   XCENC  =       515.89417937
  PAW double counting   =     26097.77841127   -25939.81201065
  entropy T*S    EENTRO =         0.00653295
  eigenvalues    EBANDS =     -4888.74065117
  atomic energy  EATOM  =     27387.45954937
  Solvation  Ediel_sol  =         0.00000000
  ---------------------------------------------------
  free energy    TOTEN  =      -171.10781278 eV

  energy without entropy =     -171.11434573  energy(sigma->0) =     -171.10999043


--------------------------------------------------------------------------------------------------------




--------------------------------------- Iteration      1(  18)  ---------------------------------------


    POTLOK:  cpu time      0.0304: real time      0.0304
    SETDIJ:  cpu time      0.0024: real time      0.0024
     EDDAV:  cpu time      7.9707: real time      7.9715
       DOS:  cpu time      0.0004: real time      0.0004
    CHARGE:  cpu time      0.0922: real time      0.0922
    MIXING:  cpu time      0.0012: real time      0.0012
    --------------------------------------------
      LOOP:  cpu time      8.0973: real time      8.0982

 eigenvalue-minimisations  :  4608
 total energy-change (2. order) : 0.2135105E-01  (-0.1558959E-01)
 number of electron     241.9999480 magnetization 
 augmentation part       68.4189341 magnetization 

 Broyden mixing:
  rms(total) = 0.94875E-01    rms(broyden)= 0.94865E-01
  rms(prec ) = 0.11282E+00
  weight for this iteration     100.00

 eigenvalues of (default mixing * dielectric matrix)
  average eigenvalue GAMMA=   0.6779
  2.2408  2.2408  0.9905  0.9905  0.6041  0.4379  0.2275  0.2275  0.2302  0.1216
  0.1951  0.1782  0.1282

 Free energy of the ion-electron system (eV)
  ---------------------------------------------------
  alpha Z        PSCENC =       224.08465733
  Ewald energy   TEWEN  =     68226.41498574
  -Hartree energ DENC   =    -91800.34998731
  -exchange      EXHF   =         0.00000000
  -V(xc)+E(xc)   XCENC  =       515.98258850
  PAW double counting   =     26101.89860468   -25942.76980968
  entropy T*S    EENTRO =         0.00586629
  eigenvalues    EBANDS =     -4883.81291665
  atomic energy  EATOM  =     27387.45954937
  Solvation  Ediel_sol  =         0.00000000
  ---------------------------------------------------
  free energy    TOTEN  =      -171.08646173 eV

  energy without entropy =     -171.09232802  energy(sigma->0) =     -171.08841716


--------------------------------------------------------------------------------------------------------




--------------------------------------- Iteration      1(  19)  ---------------------------------------


    POTLOK:  cpu time      0.0310: real time      0.0310
    SETDIJ:  cpu time      0.0027: real time      0.0027
     EDDAV:  cpu time      7.9931: real time      7.9950
       DOS:  cpu time      0.0004: real time      0.0004
    CHARGE:  cpu time      0.0934: real time      0.0934
    MIXING:  cpu time      0.0013: real time      0.0013
    --------------------------------------------
      LOOP:  cpu time      8.1218: real time      8.1237

 eigenvalue-minimisations  :  4608
 total energy-change (2. order) :-0.9786029E-03  (-0.1016616E-01)
 number of electron     241.9999480 magnetization 
 augmentation part       68.4300604 magnetization 

 Broyden mixing:
  rms(total) = 0.89567E-01    rms(broyden)= 0.89560E-01
  rms(prec ) = 0.11648E+00
  weight for this iteration     100.00

 eigenvalues of (default mixing * dielectric matrix)
  average eigenvalue GAMMA=   0.6654
  2.2864  2.2864  1.0807  0.9530  0.6501  0.4423  0.3145  0.2448  0.2217  0.2217
  0.1216  0.1901  0.1739  0.1285

 Free energy of the ion-electron system (eV)
  ---------------------------------------------------
  alpha Z        PSCENC =       224.08465733
[...]
     73      -5.7798      2.00000
     74      -5.3618      2.00000
     75      -5.2311      2.00000
     76      -5.0043      2.00000
     77      -4.8336      2.00000
     78      -4.6480      2.00000
     79      -4.5234      2.00000
     80      -4.3721      2.00000
     81      -4.0400      2.00000
     82      -3.9373      2.00000
     83      -3.9277      2.00000
     84      -3.1988      2.00000
     85      -2.8187      2.00000
     86      -2.4172      2.00000
     87      -2.3390      2.00000
     88      -2.2248      2.00000
     89      -2.1966      2.00000
     90      -1.8872      2.00000
     91      -1.7741      2.00000
     92      -1.6199      2.00000
     93      -1.5684      2.00000
     94      -1.2293      2.00000
     95      -1.1763      2.00000
     96      -1.0277      2.00000
     97      -1.0042      2.00000
     98      -0.9021      2.00000
     99      -0.8495      2.00000
    100      -0.7300      2.00000
    101      -0.6094      2.00000
    102      -0.6068      2.00000
    103      -0.5096      2.00000
    104      -0.2765      2.00000
    105      -0.1960      2.00000
    106      -0.1801      2.00000
    107      -0.1606      2.00000
    108      -0.1286      2.00000
    109      -0.0392      2.00000
    110      -0.0008      2.00000
    111       0.0647      2.00000
    112       0.0722      2.00000
    113       0.0968      2.00000
    114       0.2053      2.00012
    115       0.2457      2.00100
    116       0.3025      2.01100
    117       0.3846      2.06973
    118       0.4015      2.06715
    119       0.4645      1.73076
    120       0.4830      1.49264
    121       0.6550     -0.06249
    122       0.6857     -0.03528
    123       0.6996     -0.02445
    124       0.7106     -0.01762
    125       0.7564     -0.00317
    126       0.7649     -0.00218
    127       0.8705     -0.00001
    128       0.8797     -0.00000
    129       0.9445     -0.00000
    130       0.9795     -0.00000
    131       1.0124     -0.00000
    132       1.0525     -0.00000
    133       1.0735     -0.00000
    134       1.1127     -0.00000
    135       1.1503     -0.00000
    136       1.1743     -0.00000
    137       1.2235     -0.00000
    138       1.3246     -0.00000
    139       1.3456     -0.00000
    140       1.3865     -0.00000
    141       1.4113     -0.00000
    142       1.4689     -0.00000
    143       1.4872     -0.00000
    144       1.5256     -0.00000
    145       1.5810     -0.00000
    146       1.5853     -0.00000
    147       1.6769     -0.00000
    148       1.7478     -0.00000
    149       1.7791     -0.00000
    150       1.7841     -0.00000
    151       1.8463     -0.00000
    152       1.8744     -0.00000
    153       1.8963     -0.00000
    154       1.9329     -0.00000
    155       2.0065     -0.00000
    156       2.0451     -0.00000
    157       2.1670     -0.00000
    158       2.2090     -0.00000
    159       2.3180     -0.00000
    160       2.3433     -0.00000
    161       2.4441     -0.00000
    162       2.5118     -0.00000
    163       2.6091      0.00000
    164       2.7256      0.00000
    165       2.8699      0.00000
    166       2.9149      0.00000
    167       2.9756      0.00000
    168       3.0216      0.00000
    169       3.1433      0.00000
    170       3.2268      0.00000
    171       3.3433      0.00000
    172       3.4848      0.00000
    173       3.6694      0.00000
    174       3.7658      0.00000
    175       3.8039      0.00000
    176       3.9272      0.00000
    177       4.1270      0.00000
    178       4.1314      0.00000
    179       4.2497      0.00000
    180       4.3144      0.00000
    181       4.5844      0.00000
    182       4.5855      0.00000
    183       4.7546      0.00000
    184       4.8815      0.00000
    185       4.9576      0.00000
    186       5.0625      0.00000
    187       5.0902      0.00000
    188       5.2050      0.00000
    189       5.2686      0.00000
    190       5.2812      0.00000
    191       5.3896      0.00000
    192       5.4464      0.00000


--------------------------------------------------------------------------------------------------------


 soft charge-density along one line, spin component           1
         0         1         2         3         4         5         6         7         8         9
 total charge-density along one line
 
 pseudopotential strength for first ion, spin component:           1
-16.751  -0.000  -0.000   0.015  -0.000   3.688   0.000   0.000
 -0.000 -16.815   0.008  -0.000  -0.012   0.000   3.726  -0.005
 -0.000   0.008 -16.802  -0.000  -0.030   0.000  -0.005   3.717
  0.015  -0.000  -0.000 -16.761  -0.000  -0.008   0.000   0.000
 -0.000  -0.012  -0.030  -0.000 -16.757   0.000   0.007   0.018
  3.688   0.000   0.000  -0.008   0.000   3.091  -0.000  -0.000
  0.000   3.726  -0.005   0.000   0.007  -0.000   3.072   0.002
  0.000  -0.005   3.717   0.000   0.018  -0.000   0.002   3.078
 -0.008   0.000   0.000   3.693   0.000   0.004   0.000  -0.000
  0.000   0.007   0.018   0.000   3.692   0.000  -0.003  -0.009
 -0.000   0.000   0.000  -0.000  -0.002   0.000  -0.003   0.004
  0.000  -0.006   0.008   0.000  -0.008  -0.000   0.002  -0.004
  0.000   0.001  -0.000  -0.000  -0.001   0.000   0.004   0.002
 -0.000   0.000   0.001   0.000  -0.000   0.000  -0.003   0.006
  0.001  -0.000  -0.000   0.001   0.000  -0.003   0.000  -0.000
  0.000   0.003   0.002   0.000   0.004  -0.000  -0.015  -0.005
  0.000  -0.003   0.004   0.000   0.000  -0.000   0.009  -0.019
 -0.003   0.000  -0.000   0.003   0.000   0.008  -0.000   0.000
 total augmentation occupancy for first ion, spin component:           1
  2.000   0.000  -0.000  -0.001  -0.000   0.006   0.000  -0.000  -0.001  -0.000  -0.000  -0.000  -0.000  -0.000  -0.005  -0.000
  0.000   1.999  -0.000   0.000  -0.000   0.000   0.003  -0.001   0.000  -0.000  -0.002   0.000   0.009  -0.003   0.000  -0.001
 -0.000  -0.000   2.001   0.000  -0.001  -0.000  -0.001   0.008   0.000  -0.003   0.001  -0.001   0.004   0.016   0.000  -0.000
 -0.001   0.000   0.000   2.001   0.000  -0.001   0.000   0.000   0.009   0.000  -0.000  -0.000   0.000   0.000   0.009  -0.000
 -0.000  -0.000  -0.001   0.000   2.002  -0.000  -0.000  -0.003   0.000   0.009   0.003   0.001   0.006   0.000   0.000  -0.000
  0.006   0.000  -0.000  -0.001  -0.000   0.018   0.000  -0.000   0.003   0.000  -0.000  -0.000  -0.000  -0.000  -0.056  -0.000
  0.000   0.003  -0.001   0.000  -0.000   0.000   0.008   0.000   0.000   0.002   0.008  -0.000   0.033  -0.015   0.000   0.001
 -0.000  -0.001   0.008   0.000  -0.003  -0.000   0.000   0.014   0.000   0.001  -0.021   0.000   0.028   0.067   0.000   0.000
 -0.001   0.000   0.000   0.009   0.000   0.003   0.000   0.000   0.017   0.000  -0.000  -0.000   0.000   0.000   0.045   0.000
 -0.000  -0.000  -0.003   0.000   0.009   0.000   0.002   0.001   0.000   0.009   0.043  -0.000   0.028   0.001  -0.000   0.000
 -0.000  -0.002   0.001  -0.000   0.003  -0.000   0.008  -0.021  -0.000   0.043   1.664   0.016   0.046  -0.074   0.000  -0.001
 -0.000   0.000  -0.001  -0.000   0.001  -0.000  -0.000   0.000  -0.000  -0.000   0.016   0.001  -0.005   0.009  -0.000  -0.000
 -0.000   0.009   0.004   0.000   0.006  -0.000   0.033   0.028   0.000   0.028   0.046  -0.005   0.642   0.041   0.000   0.008
 -0.000  -0.003   0.016   0.000   0.000  -0.000  -0.015   0.067   0.000   0.001  -0.074   0.009   0.041   0.652   0.000   0.001
 -0.005   0.000   0.000   0.009   0.000  -0.056   0.000   0.000   0.045  -0.000   0.000  -0.000   0.000   0.000   1.013   0.000
 -0.000  -0.001  -0.000  -0.000  -0.000  -0.000   0.001   0.000   0.000   0.000  -0.001  -0.000   0.008   0.001   0.000   0.000
  0.000   0.000  -0.001   0.000   0.000  -0.000  -0.000   0.001   0.000   0.000   0.001   0.000   0.001   0.009   0.000   0.000
  0.000  -0.000  -0.000  -0.001  -0.000  -0.001   0.000   0.000   0.001   0.000  -0.000  -0.000   0.000   0.000   0.013   0.000


------------------------ aborting loop because EDIFF is reached ----------------------------------------


    CHARGE:  cpu time      0.0961: real time      0.0961
    FORLOC:  cpu time      0.0028: real time      0.0028
    FORNL :  cpu time      2.5495: real time      2.5497
    STRESS:  cpu time      5.6253: real time      5.6254
    FORCOR:  cpu time      0.0274: real time      0.0274
    FORHAR:  cpu time      0.0075: real time      0.0075
    MIXING:  cpu time      0.0024: real time      0.0024
    OFIELD:  cpu time      0.0000: real time      0.0000

  FORCE on cell =-STRESS in cart. coord.  units (eV):
  Direction    XX          YY          ZZ          XY          YZ          ZX
  --------------------------------------------------------------------------------------
  Alpha Z   224.08466   224.08466   224.08466
  Ewald   81431.20467 78180.92559-91385.75455     0.00000   463.02142    -0.00000
  Hartree 87571.81644 85133.07833-80864.81782     0.00000   444.68350    -0.00000
  E(xc)   -1175.04268 -1178.00199 -1179.25995    -0.00000     0.36158    -0.00000
  Local  ************************169475.61420    -0.00000  -916.07155    -0.00000
  n-local  -198.26040  -103.73951  -115.16588     0.04893    -8.56225    -0.29891
  augment  1125.68071  1081.75223  1079.68913     0.00000     2.87435     0.00000
  Kinetic  2898.40214  2753.20716  2772.36774     0.63630     1.12124     0.05303
  Fock        0.00000     0.00000     0.00000     0.00000     0.00000     0.00000
  -------------------------------------------------------------------------------------
  Total      -4.84055   -28.37232     6.75753    -0.00000   -12.57172    -0.00000
  in kB      -5.32046   -31.18527     7.42750    -0.00000   -13.81813    -0.00000
  external pressure =       -9.69 kB  Pullay stress =        0.00 kB


 VOLUME and BASIS-vectors are now :
 -----------------------------------------------------------------------------
  energy-cutoff  :      520.00
  volume of cell :     1457.66
      direct lattice vectors                 reciprocal lattice vectors
     5.606951968  0.000000000  0.000000000     0.178350021 -0.000000000 -0.000000000
     0.000000000  9.968131067  0.000000000     0.000000000  0.100319708  0.014080075
     0.000000000 -3.660447076 26.080469835     0.000000000  0.000000000  0.038342868

  length of vectors
     5.606951968  9.968131067 26.336092717     0.178350021  0.101302973  0.038342868


 FORCES acting on ions
    electron-ion (+dipol)            ewald-force                    non-local-force                 convergence-correction
 -----------------------------------------------------------------------------------------------
   0.137E-13 -.911E+02 0.241E+04   -.156E-14 0.939E+02 -.242E+04   0.209E-16 -.292E+01 0.626E+01   0.669E-13 0.191E-03 0.198E-03
   0.269E-13 0.383E+01 -.666E+03   -.100E-13 -.346E+01 0.667E+03   -.484E-16 -.412E+00 -.745E+00   -.459E-13 -.358E-03 0.802E-03
   0.793E-14 0.628E+01 0.858E+03   -.100E-13 -.651E+01 -.859E+03   0.282E-16 0.357E+00 0.227E+00   0.471E-13 -.160E-03 0.710E-03
   0.188E-13 -.363E+02 -.200E+04   -.224E-13 0.358E+02 0.200E+04   -.124E-16 -.298E-01 -.346E+00   -.502E-13 0.112E-03 0.393E-03
   0.730E-14 -.232E+02 0.969E+03   0.300E-13 0.233E+02 -.968E+03   -.289E-16 0.904E-01 -.113E+01   0.180E-13 0.163E-03 0.770E-03
   0.183E-13 -.250E+02 -.211E+04   0.625E-15 0.253E+02 0.211E+04   -.120E-16 -.648E+00 0.920E+00   -.469E-13 -.939E-04 0.397E-03
   0.838E-14 0.494E+01 -.620E+03   -.119E-13 -.496E+01 0.620E+03   -.121E-16 0.339E-01 -.448E+00   -.466E-13 0.368E-03 0.870E-03
   -.102E-13 0.141E+03 0.224E+04   0.100E-13 -.137E+03 -.224E+04   -.291E-15 -.309E+01 -.331E+01   0.506E-13 -.166E-03 0.291E-03
   0.332E-12 -.898E+02 0.224E+04   0.150E-13 0.873E+02 -.223E+04   0.239E-16 0.266E+01 -.432E+01   0.413E-13 0.205E-03 0.186E-03
   0.386E-12 0.317E+01 -.615E+03   -.500E-14 -.324E+01 0.615E+03   -.345E-17 0.319E-02 -.116E+00   -.698E-14 -.329E-03 0.699E-03
   0.384E-12 0.624E+01 0.858E+03   0.625E-13 -.652E+01 -.859E+03   0.261E-16 0.986E-01 0.589E+00   0.458E-13 -.179E-03 0.864E-03
   0.401E-12 -.386E+02 -.199E+04   0.398E-13 0.382E+02 0.200E+04   -.125E-16 0.154E+00 -.689E+00   0.766E-15 0.121E-03 0.368E-03
   0.373E-12 -.236E+02 0.969E+03   -.250E-13 0.234E+02 -.969E+03   -.203E-16 0.107E+00 -.832E+00   0.643E-13 0.223E-03 0.920E-03
   0.415E-12 -.213E+02 -.211E+04   -.302E-13 0.213E+02 0.211E+04   0.671E-16 0.226E-01 0.202E+01   -.281E-14 -.126E-03 0.357E-03
   0.400E-12 0.474E+01 -.618E+03   0.188E-14 -.484E+01 0.619E+03   -.688E-17 0.119E-01 -.240E+00   -.114E-13 0.324E-03 0.841E-03
   0.365E-12 0.141E+03 0.224E+04   0.150E-13 -.138E+03 -.224E+04   -.249E-15 -.244E+01 -.324E+01   0.490E-13 -.152E-03 0.307E-03
   -.915E+00 -.101E+02 0.216E+03   0.137E+01 0.102E+02 -.216E+03   -.500E+00 0.113E+00 -.110E+01   -.211E-04 0.665E-04 0.251E-03
   -.980E+00 -.372E+01 -.554E+03   0.136E+01 0.438E+01 0.553E+03   -.533E+00 -.959E+00 0.186E+01   -.127E-05 -.128E-03 0.643E-04
   -.602E+00 0.541E+00 -.158E+03   0.998E+00 0.519E+00 0.158E+03   -.340E+00 -.107E+01 -.151E+00   0.186E-04 -.309E-04 0.173E-03
   0.438E+00 0.817E+01 -.662E+03   -.322E+00 -.752E+01 0.657E+03   -.104E+00 -.571E+00 0.420E+01   0.129E-05 0.183E-04 -.111E-03
   -.647E+00 -.252E+01 -.147E+03   0.103E+01 0.148E+01 0.147E+03   -.331E+00 0.108E+01 -.224E+00   0.736E-05 0.255E-04 0.246E-03
   -.501E+00 -.660E+01 0.590E+03   0.109E+01 0.493E+01 -.588E+03   -.424E+00 0.185E+01 -.321E+01   -.352E-04 -.597E-04 0.349E-04
   0.446E+00 0.209E+02 -.546E+03   -.376E+00 -.215E+02 0.544E+03   -.110E+00 0.318E+00 0.324E+01   -.142E-05 0.126E-03 0.105E-03
   -.803E+00 0.142E+02 0.226E+03   0.138E+01 -.144E+02 -.228E+03   -.632E+00 0.301E+00 0.195E+01   0.158E-05 -.757E-04 0.194E-03
   0.915E+00 -.101E+02 0.216E+03   -.137E+01 0.102E+02 -.216E+03   0.500E+00 0.113E+00 -.110E+01   0.211E-04 0.665E-04 0.251E-03
   0.980E+00 -.372E+01 -.554E+03   -.136E+01 0.438E+01 0.553E+03   0.533E+00 -.959E+00 0.186E+01   0.127E-05 -.128E-03 0.643E-04
   0.602E+00 0.541E+00 -.158E+03   -.998E+00 0.519E+00 0.158E+03   0.340E+00 -.107E+01 -.151E+00   -.186E-04 -.309E-04 0.173E-03
   -.438E+00 0.817E+01 -.662E+03   0.322E+00 -.752E+01 0.657E+03   0.104E+00 -.571E+00 0.420E+01   -.129E-05 0.183E-04 -.111E-03
   0.647E+00 -.252E+01 -.147E+03   -.103E+01 0.148E+01 0.147E+03   0.331E+00 0.108E+01 -.224E+00   -.736E-05 0.255E-04 0.246E-03
   0.501E+00 -.660E+01 0.590E+03   -.109E+01 0.493E+01 -.588E+03   0.424E+00 0.185E+01 -.321E+01   0.352E-04 -.597E-04 0.349E-04
   -.446E+00 0.209E+02 -.546E+03   0.376E+00 -.215E+02 0.544E+03   0.110E+00 0.318E+00 0.324E+01   0.142E-05 0.126E-03 0.105E-03
   0.803E+00 0.142E+02 0.226E+03   -.138E+01 -.144E+02 -.228E+03   0.632E+00 0.301E+00 0.195E+01   -.158E-05 -.757E-04 0.194E-03
 -----------------------------------------------------------------------------------------------
   0.285E-11 0.389E+01 -.776E+01   -.522E-13 0.176E-12 0.909E-12   -.222E-15 -.389E+01 0.775E+01   0.170E-12 0.275E-04 0.109E-01
 
 
 POSITION                                       TOTAL-FORCE (eV/Angst)
 -----------------------------------------------------------------------------------
      0.00000     -1.17994      8.40698        -0.000000     -0.182226     -0.420704
      0.00000      3.15348     13.04284        -0.000000     -0.039381      0.097431
      0.00000      5.97084     10.72491         0.000000      0.125849     -0.076224
      0.00000      0.33612     15.36077        -0.000000     -0.551412      0.288511
      0.00000      0.98677     10.72491        -0.000000      0.223514     -0.670023
      0.00000      5.32018     15.36077        -0.000000     -0.298723     -0.555360
      0.00000     -1.83059     13.04284        -0.000000      0.019311     -0.416702
      0.00000      3.80413      8.40698         0.000000      0.597448      0.801843
      2.80348     -1.17994      8.40698         0.000000      0.096383      0.661470
      2.80348      3.15348     13.04284        -0.000000     -0.074543     -0.068261
      2.80348      5.97084     10.72491        -0.000000     -0.188094      0.217751
      2.80348      0.33612     15.36077        -0.000000     -0.297439     -0.063759
      2.80348      0.98677     10.72491        -0.000000     -0.079480     -0.610934
      2.80348      5.32018     15.36077         0.000000      0.078342     -0.046022
      2.80348     -1.83059     13.04284        -0.000000     -0.089884      0.153002
      2.80348      3.80413      8.40698         0.000000      0.551208      0.410152
      1.40705      8.45530     10.73890        -0.042564      0.215008     -0.328036
      1.40705      2.82058     15.37476        -0.148243     -0.301807      0.642693
      1.40705      5.66128     13.03763         0.056515     -0.007251      0.201696
      1.40705      0.02657     17.67349         0.011780      0.083055     -0.386544
      1.40705      0.64567     13.04805         0.053947      0.037310     -0.349625
      1.40705      6.28039      8.41219         0.163569      0.177515     -0.690782
      1.40705     -2.14835     15.34678        -0.040264     -0.258446      1.021653
      1.40705      3.48637     10.71092        -0.052786      0.109179      0.037858
      4.19990      8.45530     10.73890         0.042564      0.215008     -0.328036
      4.19990      2.82058     15.37476         0.148243     -0.301807      0.642693
      4.19990      5.66128     13.03763        -0.056515     -0.007251      0.201696
      4.19990      0.02657     17.67349        -0.011780      0.083055     -0.386544
      4.19990      0.64567     13.04805        -0.053947      0.037310     -0.349625
      4.19990      6.28039      8.41219        -0.163569      0.177515     -0.690782
      4.19990     -2.14835     15.34678         0.040264     -0.258446      1.021653
      4.19990      3.48637     10.71092         0.052786      0.109179      0.037858
 -----------------------------------------------------------------------------------
    total drift:                                0.000000      0.000660     -0.006499


--------------------------------------------------------------------------------------------------------



  FREE ENERGIE OF THE ION-ELECTRON SYSTEM (eV)
  ---------------------------------------------------
  free  energy   TOTEN  =      -171.08971468 eV

  energy  without entropy=     -171.09548046  energy(sigma->0) =     -171.09163661
 


--------------------------------------------------------------------------------------------------------


    POTLOK:  cpu time      0.0305: real time      0.0305


--------------------------------------------------------------------------------------------------------


 writing wavefunctions
     LOOP+:  cpu time    308.5456: real time    308.5830
    4ORBIT:  cpu time      0.0000: real time      0.0000

 total amount of memory used by VASP MPI-rank0   217172. kBytes
=======================================================================

   base                                    :      30000. kBytes
   nonl-proj                               :     156180. kBytes
   fftplans                                :       2263. kBytes
   grid                                    :      12946. kBytes
   one-center                              :        497. kBytes
   wavefun                                 :      15286. kBytes
 
  
  
 General timing and accounting informations for this job:
 ========================================================
  
                  Total CPU time used (sec):      316.223
                            User time (sec):      299.916
                          System time (sec):       16.307
                         Elapsed time (sec):      316.517
  
                   Maximum memory used (kb):      414544.
                   Average memory used (kb):          N/A
  
                          Minor page faults:        73781
                          Major page faults:           12
                 Voluntary context switches:          122
