<?xml version="1.0" encoding="ISO-8859-1"?>
<modeling>
 <generator>
  <i name="program" type="string">vasp </i>
  <i name="version" type="string">6.5.0  </i>
  <i name="subversion" type="string">16Dec24 (build Apr 17 2025 17:55:45) complex                          parallel </i>
  <i name="platform" type="string">LinuxIFC </i>
  <i name="date" type="string">2025 06 10 </i>
  <i name="time" type="string">14:56:33 </i>
 </generator>
 <incar>
  <i type="int" name="ISTART">     0</i>
  <i type="string" name="PREC">N</i>
  <i type="string" name="ALGO">N</i>
  <i type="int" name="ICHARG">     2</i>
  <i type="int" name="NELM">   500</i>
  <i type="int" name="IBRION">    -1</i>
  <i name="EDIFF">      0.00001000</i>
  <i name="EDIFFG">     -0.01000000</i>
  <i type="int" name="NSW">     0</i>
  <i type="int" name="ISIF">     3</i>
  <i name="ENCUT">    520.00000000</i>
  <i type="logical" name="LREAL"> F  </i>
  <i type="int" name="ISMEAR">     1</i>
  <i name="SIGMA">      0.10000000</i>
  <i type="logical" name="LVTOT"> T  </i>
  <i type="logical" name="LVHAR"> T  </i>
 </incar>
 <primitive_cell>
  <structure name="primitive_cell" >
   <crystal>
    <varray name="basis" >
     <v>       5.60695197       0.00000000       0.00000000 </v>
     <v>       0.00000000       9.96813107       0.00000000 </v>
     <v>       0.00000000      -3.66044708      26.08046983 </v>
    </varray>
    <i name="volume">   1457.65916082 </i>
    <varray name="rec_basis" >
     <v>       0.17835002      -0.00000000      -0.00000000 </v>
     <v>       0.00000000       0.10031971       0.01408008 </v>
     <v>       0.00000000       0.00000000       0.03834287 </v>
    </varray>
   </crystal>
   <varray name="positions" >
    <v>       1.00000000       0.00000000       0.32234779 </v>
    <v>       1.00000000       0.50000000       0.50009993 </v>
    <v>       1.00000000       0.75000000       0.41122386 </v>
    <v>       1.00000000       0.25000000       0.58897600 </v>
    <v>       1.00000000       0.25000000       0.41122386 </v>
    <v>       1.00000000       0.75000000       0.58897600 </v>
    <v>       1.00000000       0.00000000       0.50009993 </v>
    <v>       1.00000000       0.50000000       0.32234779 </v>
    <v>       0.50000000       0.00000000       0.32234779 </v>
    <v>       0.50000000       0.50000000       0.50009993 </v>
    <v>       0.50000000       0.75000000       0.41122386 </v>
    <v>       0.50000000       0.25000000       0.58897600 </v>
    <v>       0.50000000       0.25000000       0.41122386 </v>
    <v>       0.50000000       0.75000000       0.58897600 </v>
    <v>       0.50000000       0.00000000       0.50009993 </v>
    <v>       0.50000000       0.50000000       0.32234779 </v>
    <v>       0.25094688       0.99943783       0.41176033 </v>
    <v>       0.25094688       0.49943783       0.58951247 </v>
    <v>       0.25094688       0.75150905       0.49990007 </v>
    <v>       0.25094688       0.25150905       0.67765221 </v>
    <v>       0.25094688       0.24849095       0.50029978 </v>
    <v>       0.25094688       0.74849095       0.32254764 </v>
    <v>       0.25094688       0.00056217       0.58843952 </v>
    <v>       0.25094688       0.50056217       0.41068738 </v>
    <v>       0.74905312       0.99943783       0.41176033 </v>
    <v>       0.74905312       0.49943783       0.58951247 </v>
    <v>       0.74905312       0.75150905       0.49990007 </v>
    <v>       0.74905312       0.25150905       0.67765221 </v>
    <v>       0.74905312       0.24849095       0.50029978 </v>
    <v>       0.74905312       0.74849095       0.32254764 </v>
    <v>       0.74905312       0.00056217       0.58843952 </v>
    <v>       0.74905312       0.50056217       0.41068738 </v>
   </varray>
  </structure>
  <varray name="primitive_index" >
   <v type="int" >        1 </v>
   <v type="int" >        2 </v>
   <v type="int" >        3 </v>
   <v type="int" >        4 </v>
   <v type="int" >        5 </v>
   <v type="int" >        6 </v>
   <v type="int" >        7 </v>
   <v type="int" >        8 </v>
   <v type="int" >        9 </v>
   <v type="int" >       10 </v>
   <v type="int" >       11 </v>
   <v type="int" >       12 </v>
   <v type="int" >       13 </v>
   <v type="int" >       14 </v>
   <v type="int" >       15 </v>
   <v type="int" >       16 </v>
   <v type="int" >       17 </v>
   <v type="int" >       18 </v>
   <v type="int" >       19 </v>
   <v type="int" >       20 </v>
   <v type="int" >       21 </v>
   <v type="int" >       22 </v>
   <v type="int" >       23 </v>
   <v type="int" >       24 </v>
   <v type="int" >       25 </v>
   <v type="int" >       26 </v>
   <v type="int" >       27 </v>
   <v type="int" >       28 </v>
   <v type="int" >       29 </v>
   <v type="int" >       30 </v>
   <v type="int" >       31 </v>
   <v type="int" >       32 </v>
  </varray>
 </primitive_cell>
 <kpoints>
  <generation param="Gamma">
   <v type="int" name="divisions">       6        3        1 </v>
   <v name="usershift">      0.00000000       0.00000000       0.00000000 </v>
   <v name="genvec1">      0.16666667       0.00000000       0.00000000 </v>
   <v name="genvec2">      0.00000000       0.33333333       0.00000000 </v>
   <v name="genvec3">      0.00000000       0.00000000       1.00000000 </v>
   <v name="shift">      0.00000000       0.00000000       0.00000000 </v>
  </generation>
  <varray name="kpointlist" >
   <v>       0.00000000       0.00000000       0.00000000 </v>
   <v>       0.16666667       0.00000000       0.00000000 </v>
   <v>       0.33333333       0.00000000       0.00000000 </v>
   <v>       0.50000000       0.00000000       0.00000000 </v>
   <v>       0.00000000       0.33333333       0.00000000 </v>
   <v>       0.16666667       0.33333333       0.00000000 </v>
   <v>       0.33333333       0.33333333       0.00000000 </v>
   <v>       0.50000000       0.33333333       0.00000000 </v>
  </varray>
  <varray name="weights" >
   <v>       0.05555556 </v>
   <v>       0.11111111 </v>
   <v>       0.11111111 </v>
   <v>       0.05555556 </v>
   <v>       0.11111111 </v>
   <v>       0.22222222 </v>
   <v>       0.22222222 </v>
   <v>       0.11111111 </v>
  </varray>
 </kpoints>
 <parameters>
  <separator name="general" >
   <i type="string" name="SYSTEM">unknown system</i>
   <i type="logical" name="LCOMPAT"> F  </i>
  </separator>
  <separator name="electronic" >
   <i type="string" name="PREC">n</i>
   <i name="ENMAX">    520.00000000</i>
   <i name="ENAUG">    490.69000000</i>
   <i name="EDIFF">      0.00001000</i>
   <i type="int" name="IALGO">    38</i>
   <i type="int" name="IWAVPR">    10</i>
   <i type="int" name="NBANDS">   192</i>
   <i type="int" name="NBANDSLOW">    -1</i>
   <i type="int" name="NBANDSHIGH">    -1</i>
   <i name="NELECT">    242.00000000</i>
   <i type="int" name="TURBO">     0</i>
   <i type="int" name="IRESTART">     0</i>
   <i type="int" name="NREBOOT">     0</i>
   <i type="int" name="NMIN">     0</i>
   <i name="EREF">      0.00000000</i>
   <separator name="electronic smearing" >
    <i type="int" name="ISMEAR">     1</i>
    <i name="SIGMA">      0.10000000</i>
    <i name="KSPACING">      0.50000000</i>
    <i type="logical" name="KGAMMA"> T  </i>
    <i type="logical" name="KBLOWUP"> T  </i>
   </separator>
   <separator name="electronic projectors" >
    <i type="logical" name="LREAL"> F  </i>
    <v name="ROPT">      0.00000000      0.00000000      0.00000000</v>
    <i type="int" name="LMAXPAW">  -100</i>
    <i type="int" name="LMAXMIX">     2</i>
    <i type="logical" name="NLSPLINE"> F  </i>
   </separator>
   <separator name="electronic startup" >
    <i type="int" name="ISTART">     0</i>
    <i type="int" name="ICHARG">     2</i>
    <i type="int" name="INIWAV">     1</i>
   </separator>
   <separator name="electronic spin" >
    <i type="int" name="ISPIN">     1</i>
    <i type="logical" name="LNONCOLLINEAR"> F  </i>
    <v name="MAGMOM">      1.00000000      1.00000000      1.00000000      1.00000000      1.00000000      1.00000000      1.00000000      1.00000000      1.00000000      1.00000000      1.00000000      1.00000000      1.00000000      1.00000000      1.00000000      1.00000000      1.00000000      1.00000000      1.00000000      1.00000000
      1.00000000      1.00000000      1.00000000      1.00000000      1.00000000      1.00000000      1.00000000      1.00000000      1.00000000      1.00000000      1.00000000      1.00000000</v>
    <i name="NUPDOWN">     -1.00000000</i>
    <i type="logical" name="LSORBIT"> F  </i>
    <v name="SAXIS">      0.00000000      0.00000000      1.00000000</v>
    <i type="logical" name="LSPIRAL"> F  </i>
    <v name="QSPIRAL">      0.00000000      0.00000000      0.00000000</v>
    <i type="logical" name="LZEROZ"> F  </i>
   </separator>
   <separator name="electronic exchange-correlation" >
    <i type="logical" name="LASPH"> F  </i>
   </separator>
   <separator name="electronic convergence" >
    <i type="int" name="NELM">   500</i>
    <i type="int" name="NELMDL">    -5</i>
    <i type="int" name="NELMIN">     2</i>
    <i name="ENINI">    520.00000000</i>
    <separator name="electronic convergence detail" >
     <i type="logical" name="LDIAG"> T  </i>
     <i type="logical" name="LSUBROT"> F  </i>
     <i name="WEIMIN">      0.00000000</i>
     <i name="EBREAK">      0.00000001</i>
     <i name="DEPER">      0.30000000</i>
     <i type="int" name="NRMM">     4</i>
     <i name="TIME">      0.40000000</i>
    </separator>
   </separator>
   <separator name="electronic mixer" >
    <i name="AMIX">      0.40000000</i>
    <i name="BMIX">      1.00000000</i>
    <i name="AMIN">      0.10000000</i>
    <i name="AMIX_MAG">      1.60000000</i>
    <i name="BMIX_MAG">      1.00000000</i>
    <separator name="electronic mixer details" >
     <i type="int" name="IMIX">     4</i>
     <i type="logical" name="MIXFIRST"> F  </i>
     <i type="int" name="MAXMIX">   -45</i>
     <i name="WC">    100.00000000</i>
     <i type="int" name="INIMIX">     1</i>
     <i type="int" name="MIXPRE">     1</i>
     <i type="int" name="MREMOVE">     5</i>
    </separator>
   </separator>
   <separator name="electronic dipolcorrection" >
    <i type="logical" name="LDIPOL"> F  </i>
    <i type="logical" name="LMONO"> F  </i>
    <i type="int" name="IDIPOL">     0</i>
    <i name="EPSILON">      1.00000000</i>
    <v name="DIPOL">   -100.00000000   -100.00000000   -100.00000000</v>
    <i name="EFIELD">      0.00000000</i>
    <i type="logical" name="LVACPOTAV"> F  </i>
   </separator>
  </separator>
  <separator name="grids" >
   <i type="int" name="NGX">    32</i>
   <i type="int" name="NGY">    56</i>
   <i type="int" name="NGZ">   150</i>
   <i type="int" name="NGXF">    64</i>
   <i type="int" name="NGYF">   112</i>
   <i type="int" name="NGZF">   300</i>
   <i type="logical" name="ADDGRID"> F  </i>
  </separator>
  <separator name="ionic" >
   <i type="int" name="NSW">     0</i>
   <i type="int" name="IBRION">    -1</i>
   <i type="int" name="MDALGO">     0</i>
   <i type="int" name="ISIF">     3</i>
   <i name="PSTRESS">      0.00000000</i>
   <i name="EDIFFG">     -0.01000000</i>
   <i type="int" name="NFREE">     0</i>
   <i name="POTIM">      0.50000000</i>
   <i name="SMASS">     -3.00000000</i>
   <i name="SCALEE">      1.00000000</i>
  </separator>
  <separator name="ionic md" >
   <i name="TEBEG">      0.00010000</i>
   <i name="TEEND">      0.00010000</i>
   <i type="int" name="NBLOCK">     1</i>
   <i type="int" name="KBLOCK">     1</i>
   <i type="int" name="NPACO">   256</i>
   <i name="APACO">     10.00000000</i>
  </separator>
  <separator name="symmetry" >
   <i type="int" name="ISYM">     2</i>
   <i name="SYMPREC">      0.00001000</i>
  </separator>
  <separator name="dos" >
   <i type="int" name="LORBIT">     0</i>
   <v name="RWIGS">     -1.00000000     -1.00000000     -1.00000000</v>
   <i type="int" name="NEDOS">   301</i>
   <i name="EMIN">     10.00000000</i>
   <i name="EMAX">    -10.00000000</i>
   <i name="EFERMI">      0.00000000</i>
  </separator>
  <separator name="writing" >
   <i type="int" name="NWRITE">     2</i>
   <i type="logical" name="LWAVE"> T  </i>
   <i type="logical" name="LDOWNSAMPLE"> F  </i>
   <i type="logical" name="LCHARG"> T  </i>
   <i type="logical" name="LPARD"> F  </i>
   <i type="logical" name="LVTOT"> F  </i>
   <i type="logical" name="LVHAR"> T  </i>
   <i type="logical" name="LELF"> F  </i>
   <i type="logical" name="LOPTICS"> F  </i>
   <v name="STM">      0.00000000      0.00000000      0.00000000      0.00000000      0.00000000      0.00000000      0.00000000</v>
  </separator>
  <separator name="performance" >
   <i type="int" name="NPAR">    64</i>
   <i type="int" name="NSIM">     4</i>
   <i type="int" name="NBLK">    -1</i>
   <i type="logical" name="LPLANE"> T  </i>
   <i type="logical" name="LSCALAPACK"> T  </i>
   <i type="logical" name="LSCAAWARE"> F  </i>
   <i type="logical" name="LSCALU"> F  </i>
   <i type="logical" name="LASYNC"> F  </i>
   <i type="logical" name="LORBITALREAL"> F  </i>
  </separator>
  <separator name="miscellaneous" >
   <i type="int" name="IDIOT">     3</i>
   <i type="int" name="PHON_NSTRUCT">    -1</i>
   <i type="logical" name="LMUSIC"> F  </i>
   <v name="POMASS">     69.72300000     47.88000000     26.98100000</v>
   <v name="DARWINR">      0.00000000      0.00000000      0.00000000</v>
   <v name="DARWINV">      1.00000000      1.00000000      1.00000000</v>
   <i type="logical" name="LCORR"> T  </i>
  </separator>
  <i type="logical" name="GGA_COMPAT"> T  </i>
  <i type="logical" name="LBERRY"> F  </i>
  <i type="int" name="ICORELEVEL">     0</i>
  <i type="logical" name="LDAU"> F  </i>
  <i type="int" name="I_CONSTRAINED_M">     0</i>
  <separator name="electronic exchange-correlation" >
   <i type="string" name="GGA    ">PE</i>
   <i type="string" name="XC_C">1</i>
   <i type="int" name="VOSKOWN">     0</i>
   <i type="logical" name="LHFCALC"> F  </i>
   <i type="string" name="PRECFOCK"></i>
   <i type="logical" name="LSYMGRAD"> F  </i>
   <i type="logical" name="LHFONE"> F  </i>
   <i type="logical" name="LRHFCALC"> F  </i>
   <i type="logical" name="LTHOMAS"> F  </i>
   <i type="logical" name="LMODELHF"> F  </i>
   <i type="logical" name="LFOCKACE"> F  </i>
   <i name="ENCUT4O">     -1.00000000</i>
   <i type="int" name="EXXOEP">     0</i>
   <i type="int" name="FOURORBIT">     0</i>
   <i name="AEXX">      0.00000000</i>
   <i name="HFALPHA">      0.00000000</i>
   <i name="MCALPHA">      0.00000000</i>
   <i name="ALDAX">      1.00000000</i>
   <i name="AGGAX">      1.00000000</i>
   <i name="AMGGAX">      1.00000000</i>
   <i name="ALDAC">      1.00000000</i>
   <i name="AGGAC">      1.00000000</i>
   <i name="AMGGAC">      1.00000000</i>
   <i type="int" name="NKREDX">     1</i>
   <i type="int" name="NKREDY">     1</i>
   <i type="int" name="NKREDZ">     1</i>
   <i type="logical" name="SHIFTRED"> F  </i>
   <i type="logical" name="ODDONLY"> F  </i>
   <i type="logical" name="EVENONLY"> F  </i>
   <i type="int" name="LMAXFOCK">     0</i>
   <i type="int" name="NMAXFOCKAE">     0</i>
   <i type="logical" name="LFOCKAEDFT"> F  </i>
   <i name="HFSCREEN">      0.00000000</i>
   <i name="HFSCREENC">      0.00000000</i>
   <i type="int" name="NBANDSGWLOW">     0</i>
  </separator>
  <separator name="vdW DFT" >
   <i type="logical" name="LUSE_VDW"> F  </i>
   <i type="int" name="IVDW_NL">    -1</i>
   <i type="logical" name="LSPIN_VDW"> F  </i>
   <i name="ZAB_VDW">     -0.84910000</i>
   <i name="GAMMA_VDW">      1.39626340</i>
   <i name="ALPHA_VDW">      0.00000000</i>
   <i name="PARAM1">      0.12340000</i>
   <i name="PARAM2">      1.00000000</i>
   <i name="BPARAM">      6.30000000</i>
   <i name="CPARAM">      0.00930000</i>
  </separator>
  <separator name="model GW" >
   <i type="int" name="MODEL_GW">     0</i>
   <i name="MODEL_EPS0">     27.33110927</i>
   <i name="MODEL_ALPHA">      1.00000000</i>
  </separator>
  <separator name="linear response parameters" >
   <i type="logical" name="LEPSILON"> F  </i>
   <i type="logical" name="LRPA"> F  </i>
   <i type="logical" name="LNABLA"> F  </i>
   <i type="logical" name="LVEL"> F  </i>
   <i name="CSHIFT">      0.10000000</i>
   <i name="OMEGAMAX">     -1.00000000</i>
   <i name="DEG_THRESHOLD">      0.00200000</i>
   <i name="RTIME">     -0.10000000</i>
   <i name="WPLASMAI">      0.00000000</i>
   <v name="DFIELD">      0.00000000      0.00000000      0.00000000</v>
   <v name="WPLASMA">      0.00000000      0.00000000      0.00000000      0.00000000      0.00000000      0.00000000      0.00000000      0.00000000      0.00000000</v>
  </separator>
  <separator name="orbital magnetization" >
   <i type="logical" name="NUCIND"> F  </i>
   <v name="MAGPOS">      0.00000000      0.00000000      0.00000000</v>
   <i type="logical" name="LNICSALL"> T  </i>
   <i type="logical" name="ORBITALMAG"> F  </i>
   <i type="logical" name="LMAGBLOCH"> F  </i>
   <i type="logical" name="LCHIMAG"> F  </i>
   <i type="logical" name="LGAUGE"> T  </i>
   <i type="int" name="MAGATOM">     0</i>
   <v name="MAGDIPOL">      0.00000000      0.00000000      0.00000000</v>
   <v name="AVECCONST">      0.00000000      0.00000000      0.00000000</v>
  </separator>
  <separator name="response functions" >
   <i type="logical" name="LALL_IN_ONE"> F  </i>
   <i type="int" name="IALL_IN_ONE">    -1</i>
   <i type="int" name="NBANDS_WAVE">    -1</i>
   <i type="logical" name="LFINITE_TEMPERATURE"> F  </i>
   <i type="logical" name="LADDER"> F  </i>
   <i type="logical" name="LRPAFORCE"> F  </i>
   <i type="logical" name="LFXC"> F  </i>
   <i type="logical" name="LHARTREE"> T  </i>
   <i type="int" name="IBSE">     2</i>
   <v type="int" name="KPOINT">    -1     0     0     0</v>
   <i type="logical" name="LTCTC"> F  </i>
   <i type="logical" name="LTCTE"> F  </i>
   <i type="logical" name="LTETE"> F  </i>
   <i type="logical" name="LTRIPLET"> F  </i>
   <i type="logical" name="LFXCEPS"> F  </i>
   <i type="logical" name="LFXHEG"> F  </i>
   <i type="int" name="NATURALO">     2</i>
   <i type="logical" name="LHOLEGF"> F  </i>
   <i type="logical" name="L2ORDER"> F  </i>
   <i type="logical" name="LDMP1"> F  </i>
   <i type="logical" name="LMP2LT"> F  </i>
   <i type="logical" name="LSMP2LT"> F  </i>
   <i type="logical" name="LGWLF"> F  </i>
   <i name="ENCUTGW">     -1.60000002</i>
   <i name="ENCUTGWSOFT">     -1.60000002</i>
   <i name="ENCUTLF">     -1.00000000</i>
   <i type="logical" name="ESF_SPLINES"> F  </i>
   <i name="ESF_CONV">      0.01000000</i>
   <i type="int" name="ESF_NINTER">    15</i>
   <i type="int" name="LMAXMP2">    -1</i>
   <i name="SCISSOR">      0.00000000</i>
   <i type="int" name="NOMEGA">     0</i>
   <i type="int" name="NOMEGAR">     0</i>
   <i type="int" name="NBANDSGW">    -1</i>
   <i type="int" name="NBANDSO">    -1</i>
   <i type="int" name="NBANDSV">    -1</i>
   <i type="int" name="NELMGW">     1</i>
   <i type="int" name="NELMHF">     1</i>
   <i type="int" name="DIM">     3</i>
   <i type="int" name="IESPILON">     4</i>
   <i type="int" name="ANTIRES">     0</i>
   <i name="OMEGAMAX">    -30.00000000</i>
   <i name="OMEGAMIN">    -30.00000000</i>
   <i name="OMEGATL">   -200.00000000</i>
   <i type="int" name="OMEGAGRID">     0</i>
   <i name="CSHIFT">     -0.10000000</i>
   <i type="logical" name="LSELFENERGY"> F  </i>
   <i type="logical" name="LSPECTRAL"> F  </i>
   <i type="logical" name="LSPECTRALGW"> F  </i>
   <i type="logical" name="LSINGLES"> F  </i>
   <i type="logical" name="LFERMIGW"> F  </i>
   <i type="logical" name="ODDONLYGW"> F  </i>
   <i type="logical" name="EVENONLYGW"> F  </i>
   <i type="int" name="NKREDLFX">     1</i>
   <i type="int" name="NKREDLFY">     1</i>
   <i type="int" name="NKREDLFZ">     1</i>
   <i type="int" name="MAXMEM">  2800</i>
   <i type="int" name="TELESCOPE">     0</i>
   <i type="int" name="NTAUPAR">    -1</i>
   <i type="int" name="NOMEGAPAR">    -1</i>
   <i name="DAMP_NEWTON">      0.80000001</i>
   <i name="LAMBDA">      1.00000000</i>
  </separator>
  <separator name="External order field" >
   <i name="OFIELD_KAPPA">      0.00000000</i>
   <v name="OFIELD_K">      0.00000000      0.00000000      0.00000000</v>
   <i name="OFIELD_Q6_NEAR">      0.00000000</i>
   <i name="OFIELD_Q6_FAR">      0.00000000</i>
   <i name="OFIELD_A">      0.00000000</i>
  </separator>
  <separator name="optional k-points parameters" >
   <i type="int" name="KPOINTS_OPT_MODE">     1</i>
   <i type="logical" name="LKPOINTS_OPT"> F  </i>
  </separator>
 </parameters>
 <atominfo>
  <atoms>      32 </atoms>
  <types>       3 </types>
  <array name="atoms" >
   <dimension dim="1">ion</dimension>
   <field type="string">element</field>
   <field type="int">atomtype</field>
   <set>
    <rc><c>Ga</c><c>   1</c></rc>
    <rc><c>Ga</c><c>   1</c></rc>
    <rc><c>Ti</c><c>   2</c></rc>
    <rc><c>Ti</c><c>   2</c></rc>
    <rc><c>Ti</c><c>   2</c></rc>
    <rc><c>Ti</c><c>   2</c></rc>
    <rc><c>Ti</c><c>   2</c></rc>
    <rc><c>Ti</c><c>   2</c></rc>
    <rc><c>Ti</c><c>   2</c></rc>
    <rc><c>Ti</c><c>   2</c></rc>
    <rc><c>Ti</c><c>   2</c></rc>
    <rc><c>Ti</c><c>   2</c></rc>
    <rc><c>Ti</c><c>   2</c></rc>
    <rc><c>Ti</c><c>   2</c></rc>
    <rc><c>Ti</c><c>   2</c></rc>
    <rc><c>Ti</c><c>   2</c></rc>
    <rc><c>Al</c><c>   3</c></rc>
    <rc><c>Al</c><c>   3</c></rc>
    <rc><c>Al</c><c>   3</c></rc>
    <rc><c>Al</c><c>   3</c></rc>
    <rc><c>Al</c><c>   3</c></rc>
    <rc><c>Al</c><c>   3</c></rc>
    <rc><c>Al</c><c>   3</c></rc>
    <rc><c>Al</c><c>   3</c></rc>
    <rc><c>Al</c><c>   3</c></rc>
    <rc><c>Al</c><c>   3</c></rc>
    <rc><c>Al</c><c>   3</c></rc>
    <rc><c>Al</c><c>   3</c></rc>
    <rc><c>Al</c><c>   3</c></rc>
    <rc><c>Al</c><c>   3</c></rc>
    <rc><c>Al</c><c>   3</c></rc>
    <rc><c>Al</c><c>   3</c></rc>
   </set>
  </array>
  <array name="atomtypes" >
   <dimension dim="1">type</dimension>
   <field type="int">atomspertype</field>
   <field type="string">element</field>
   <field>mass</field>
   <field>valence</field>
   <field type="string">pseudopotential</field>
   <set>
    <rc><c>   2</c><c>Ga</c><c>     69.72300000</c><c>     13.00000000</c><c>  PAW_PBE Ga_d 06Jul2010                </c></rc>
    <rc><c>  14</c><c>Ti</c><c>     47.88000000</c><c>     12.00000000</c><c>  PAW_PBE Ti_sv 26Sep2005               </c></rc>
    <rc><c>  16</c><c>Al</c><c>     26.98100000</c><c>      3.00000000</c><c>  PAW_PBE Al 04Jan2001                  </c></rc>
   </set>
  </array>
 </atominfo>
 <structure name="initialpos" >
  <crystal>
   <varray name="basis" >
    <v>       5.60695197       0.00000000       0.00000000 </v>
    <v>       0.00000000       9.96813107       0.00000000 </v>
    <v>       0.00000000      -3.66044708      26.08046983 </v>
   </varray>
   <i name="volume">   1457.65916082 </i>
   <varray name="rec_basis" >
    <v>       0.17835002      -0.00000000      -0.00000000 </v>
    <v>       0.00000000       0.10031971       0.01408008 </v>
    <v>       0.00000000       0.00000000       0.03834287 </v>
   </varray>
  </crystal>
  <varray name="positions" >
   <v>       0.00000000       0.00000000       0.32234779 </v>
   <v>       0.00000000       0.50000000       0.50009993 </v>
   <v>       0.00000000       0.75000000       0.41122386 </v>
   <v>       0.00000000       0.25000000       0.58897600 </v>
   <v>       0.00000000       0.25000000       0.41122386 </v>
   <v>       0.00000000       0.75000000       0.58897600 </v>
   <v>       0.00000000       0.00000000       0.50009993 </v>
   <v>       0.00000000       0.50000000       0.32234779 </v>
   <v>       0.50000000       0.00000000       0.32234779 </v>
   <v>       0.50000000       0.50000000       0.50009993 </v>
   <v>       0.50000000       0.75000000       0.41122386 </v>
   <v>       0.50000000       0.25000000       0.58897600 </v>
   <v>       0.50000000       0.25000000       0.41122386 </v>
   <v>       0.50000000       0.75000000       0.58897600 </v>
   <v>       0.50000000       0.00000000       0.50009993 </v>
   <v>       0.50000000       0.50000000       0.32234779 </v>
   <v>       0.25094688       0.99943783       0.41176033 </v>
   <v>       0.25094688       0.49943783       0.58951247 </v>
   <v>       0.25094688       0.75150905       0.49990007 </v>
   <v>       0.25094688       0.25150905       0.67765221 </v>
   <v>       0.25094688       0.24849095       0.50029978 </v>
   <v>       0.25094688       0.74849095       0.32254764 </v>
   <v>       0.25094688       0.00056217       0.58843952 </v>
   <v>       0.25094688       0.50056217       0.41068738 </v>
   <v>       0.74905312       0.99943783       0.41176033 </v>
   <v>       0.74905312       0.49943783       0.58951247 </v>
   <v>       0.74905312       0.75150905       0.49990007 </v>
   <v>       0.74905312       0.25150905       0.67765221 </v>
   <v>       0.74905312       0.24849095       0.50029978 </v>
   <v>       0.74905312       0.74849095       0.32254764 </v>
   <v>       0.74905312       0.00056217       0.58843952 </v>
   <v>       0.74905312       0.50056217       0.41068738 </v>
  </varray>
 </structure>
 <calculation>
  <scstep>
   <time name="dav">    5.35    5.35</time>
   <time name="total">    5.39    5.39</time>
   <energy>
    <i name="alphaZ">    224.08465733 </i>
    <i name="ewald">  68226.41498574 </i>
    <i name="hartreedc"> -91720.67112303 </i>
    <i name="XCdc">    528.65327968 </i>
    <i name="pawpsdc">  21969.42663437 </i>
    <i name="pawaedc"> -21851.07168476 </i>
    <i name="eentropy">      0.00966563 </i>
    <i name="bandstr">  -2618.39574683 </i>
    <i name="atom">  27387.45954937 </i>
    <i name="e_fr_energy">   2145.91021750 </i>
    <i name="e_wo_entrp">   2145.90055187 </i>
    <i name="e_0_energy">   2145.90699562 </i>
   </energy>
  </scstep>
  <scstep>
   <time name="dav">    5.60    5.60</time>
   <time name="total">    5.60    5.60</time>
   <energy>
    <i name="e_fr_energy">     58.61473907 </i>
    <i name="e_wo_entrp">     58.61897942 </i>
    <i name="e_0_energy">     58.61615252 </i>
   </energy>
  </scstep>
  <scstep>
   <time name="dav">    9.66    9.66</time>
   <time name="total">    9.66    9.66</time>
   <energy>
    <i name="e_fr_energy">   -165.91122342 </i>
    <i name="e_wo_entrp">   -165.92268609 </i>
    <i name="e_0_energy">   -165.91504431 </i>
   </energy>
  </scstep>
  <scstep>
   <time name="dav">    8.40    8.40</time>
   <time name="total">    8.40    8.40</time>
   <energy>
    <i name="e_fr_energy">   -202.37968150 </i>
    <i name="e_wo_entrp">   -202.39410568 </i>
    <i name="e_0_energy">   -202.38448956 </i>
   </energy>
  </scstep>
  <scstep>
   <time name="dav">    8.02    8.02</time>
   <time name="total">    8.11    8.11</time>
   <energy>
    <i name="e_fr_energy">   -204.87619971 </i>
    <i name="e_wo_entrp">   -204.89097139 </i>
    <i name="e_0_energy">   -204.88112360 </i>
   </energy>
  </scstep>
  <scstep>
   <time name="dav">    8.02    8.02</time>
   <time name="total">    8.15    8.15</time>
   <energy>
    <i name="e_fr_energy">   -249.04365960 </i>
    <i name="e_wo_entrp">   -249.04210269 </i>
    <i name="e_0_energy">   -249.04314063 </i>
   </energy>
  </scstep>
  <scstep>
   <time name="dav">    9.24    9.24</time>
   <time name="total">    9.37    9.37</time>
   <energy>
    <i name="e_fr_energy">   -225.39797260 </i>
    <i name="e_wo_entrp">   -225.39091851 </i>
    <i name="e_0_energy">   -225.39562124 </i>
   </energy>
  </scstep>
  <scstep>
   <time name="dav">    8.74    8.75</time>
   <time name="total">    8.87    8.87</time>
   <energy>
    <i name="e_fr_energy">   -199.16124617 </i>
    <i name="e_wo_entrp">   -199.15114902 </i>
    <i name="e_0_energy">   -199.15788045 </i>
   </energy>
  </scstep>
  <scstep>
   <time name="dav">    8.26    8.26</time>
   <time name="total">    8.39    8.39</time>
   <energy>
    <i name="e_fr_energy">   -178.75471731 </i>
    <i name="e_wo_entrp">   -178.76145014 </i>
    <i name="e_0_energy">   -178.75696159 </i>
   </energy>
  </scstep>
  <scstep>
   <time name="dav">    7.61    7.62</time>
   <time name="total">    7.74    7.74</time>
   <energy>
    <i name="e_fr_energy">   -174.67151919 </i>
    <i name="e_wo_entrp">   -174.67602460 </i>
    <i name="e_0_energy">   -174.67302100 </i>
   </energy>
  </scstep>
  <scstep>
   <time name="dav">    7.84    7.85</time>
   <time name="total">    7.97    7.97</time>
   <energy>
    <i name="e_fr_energy">   -172.66624447 </i>
    <i name="e_wo_entrp">   -172.67299909 </i>
    <i name="e_0_energy">   -172.66849601 </i>
   </energy>
  </scstep>
  <scstep>
   <time name="dav">    7.99    7.99</time>
   <time name="total">    8.12    8.12</time>
   <energy>
    <i name="e_fr_energy">   -171.64597686 </i>
    <i name="e_wo_entrp">   -171.65682244 </i>
    <i name="e_0_energy">   -171.64959205 </i>
   </energy>
  </scstep>
  <scstep>
   <time name="dav">    8.69    8.69</time>
   <time name="total">    8.82    8.82</time>
   <energy>
    <i name="e_fr_energy">   -171.28012712 </i>
    <i name="e_wo_entrp">   -171.28920905 </i>
    <i name="e_0_energy">   -171.28315443 </i>
   </energy>
  </scstep>
  <scstep>
   <time name="dav">    8.09    8.09</time>
   <time name="total">    8.21    8.21</time>
   <energy>
    <i name="e_fr_energy">   -171.28182030 </i>
    <i name="e_wo_entrp">   -171.29659173 </i>
    <i name="e_0_energy">   -171.28674411 </i>
   </energy>
  </scstep>
  <scstep>
   <time name="dav">    7.97    7.97</time>
   <time name="total">    8.10    8.10</time>
   <energy>
    <i name="e_fr_energy">   -171.16334019 </i>
    <i name="e_wo_entrp">   -171.16495989 </i>
    <i name="e_0_energy">   -171.16388009 </i>
   </energy>
  </scstep>
  <scstep>
   <time name="dav">    8.00    8.00</time>
   <time name="total">    8.13    8.13</time>
   <energy>
    <i name="e_fr_energy">   -171.15871810 </i>
    <i name="e_wo_entrp">   -171.16773565 </i>
    <i name="e_0_energy">   -171.16172395 </i>
   </energy>
  </scstep>
  <scstep>
   <time name="dav">    7.97    7.97</time>
   <time name="total">    8.10    8.10</time>
   <energy>
    <i name="e_fr_energy">   -171.10781278 </i>
    <i name="e_wo_entrp">   -171.11434573 </i>
    <i name="e_0_energy">   -171.10999043 </i>
   </energy>
  </scstep>
  <scstep>
   <time name="dav">    7.97    7.97</time>
   <time name="total">    8.10    8.10</time>
   <energy>
    <i name="e_fr_energy">   -171.08646173 </i>
    <i name="e_wo_entrp">   -171.09232802 </i>
    <i name="e_0_energy">   -171.08841716 </i>
   </energy>
  </scstep>
  <scstep>
   <time name="dav">    7.99    7.99</time>
   <time name="total">    8.12    8.12</time>
   <energy>
    <i name="e_fr_energy">   -171.08744034 </i>
    <i name="e_wo_entrp">   -171.09425756 </i>
    <i name="e_0_energy">   -171.08971274 </i>
   </energy>
  </scstep>
  <scstep>
   <time name="dav">    8.16    8.17</time>
   <time name="total">    8.29    8.29</time>
   <energy>
    <i name="e_fr_energy">   -171.08244632 </i>
    <i name="e_wo_entrp">   -171.08786828 </i>
    <i name="e_0_energy">   -171.08425364 </i>
   </energy>
  </scstep>
  <scstep>
   <time name="dav">    7.96    7.96</time>
   <time name="total">    8.08    8.08</time>
   <energy>
    <i name="e_fr_energy">   -171.08188079 </i>
    <i name="e_wo_entrp">   -171.08711697 </i>
    <i name="e_0_energy">   -171.08362619 </i>
   </energy>
  </scstep>
  <scstep>
   <time name="dav">    8.66    8.66</time>
   <time name="total">    8.79    8.79</time>
   <energy>
    <i name="e_fr_energy">   -171.08299060 </i>
    <i name="e_wo_entrp">   -171.08848254 </i>
    <i name="e_0_energy">   -171.08482125 </i>
   </energy>
  </scstep>
  <scstep>
   <time name="dav">    8.11    8.11</time>
   <time name="total">    8.24    8.24</time>
   <energy>
    <i name="e_fr_energy">   -171.08374106 </i>
    <i name="e_wo_entrp">   -171.08937951 </i>
    <i name="e_0_energy">   -171.08562054 </i>
   </energy>
  </scstep>
  <scstep>
   <time name="dav">    7.84    7.84</time>
   <time name="total">    7.97    7.97</time>
   <energy>
    <i name="e_fr_energy">   -171.08546590 </i>
    <i name="e_wo_entrp">   -171.09121512 </i>
    <i name="e_0_energy">   -171.08738230 </i>
   </energy>
  </scstep>
  <scstep>
   <time name="dav">    7.87    7.87</time>
   <time name="total">    8.00    8.00</time>
   <energy>
    <i name="e_fr_energy">   -171.08611665 </i>
    <i name="e_wo_entrp">   -171.09191165 </i>
    <i name="e_0_energy">   -171.08804832 </i>
   </energy>
  </scstep>
  <scstep>
   <time name="dav">    6.73    6.73</time>
   <time name="total">    6.86    6.86</time>
   <energy>
    <i name="e_fr_energy">   -171.08721973 </i>
    <i name="e_wo_entrp">   -171.09309379 </i>
    <i name="e_0_energy">   -171.08917775 </i>
   </energy>
  </scstep>
  <scstep>
   <time name="dav">    8.01    8.01</time>
   <time name="total">    8.14    8.14</time>
   <energy>
    <i name="e_fr_energy">   -171.08753787 </i>
    <i name="e_wo_entrp">   -171.09335997 </i>
    <i name="e_0_energy">   -171.08947857 </i>
   </energy>
  </scstep>
  <scstep>
   <time name="dav">    6.81    6.81</time>
   <time name="total">    6.93    6.94</time>
   <energy>
    <i name="e_fr_energy">   -171.08837100 </i>
    <i name="e_wo_entrp">   -171.09411763 </i>
    <i name="e_0_energy">   -171.09028655 </i>
   </energy>
  </scstep>
  <scstep>
   <time name="dav">    7.04    7.04</time>
   <time name="total">    7.17    7.17</time>
   <energy>
    <i name="e_fr_energy">   -171.08860320 </i>
    <i name="e_wo_entrp">   -171.09436327 </i>
    <i name="e_0_energy">   -171.09052323 </i>
   </energy>
  </scstep>
  <scstep>
   <time name="dav">    6.06    6.07</time>
   <time name="total">    6.20    6.20</time>
   <energy>
    <i name="e_fr_energy">   -171.08900960 </i>
    <i name="e_wo_entrp">   -171.09475700 </i>
    <i name="e_0_energy">   -171.09092540 </i>
   </energy>
  </scstep>
  <scstep>
   <time name="dav">    7.19    7.19</time>
   <time name="total">    7.32    7.32</time>
   <energy>
    <i name="e_fr_energy">   -171.08920080 </i>
    <i name="e_wo_entrp">   -171.09493501 </i>
    <i name="e_0_energy">   -171.09111220 </i>
   </energy>
  </scstep>
  <scstep>
   <time name="dav">    6.20    6.20</time>
   <time name="total">    6.33    6.33</time>
   <energy>
    <i name="e_fr_energy">   -171.08936178 </i>
    <i name="e_wo_entrp">   -171.09511692 </i>
    <i name="e_0_energy">   -171.09128016 </i>
   </energy>
  </scstep>
  <scstep>
   <time name="dav">    6.21    6.21</time>
   <time name="total">    6.34    6.34</time>
   <energy>
    <i name="e_fr_energy">   -171.08951198 </i>
    <i name="e_wo_entrp">   -171.09527959 </i>
    <i name="e_0_energy">   -171.09143452 </i>
   </energy>
  </scstep>
  <scstep>
   <time name="dav">    6.48    6.48</time>
   <time name="total">    6.61    6.61</time>
   <energy>
    <i name="e_fr_energy">   -171.08960140 </i>
    <i name="e_wo_entrp">   -171.09536955 </i>
    <i name="e_0_energy">   -171.09152412 </i>
   </energy>
  </scstep>
  <scstep>
   <time name="dav">    6.27    6.28</time>
   <time name="total">    6.40    6.40</time>
   <energy>
    <i name="e_fr_energy">   -171.08964904 </i>
    <i name="e_wo_entrp">   -171.09541588 </i>
    <i name="e_0_energy">   -171.09157132 </i>
   </energy>
  </scstep>
  <scstep>
   <time name="dav">    6.42    6.42</time>
   <time name="total">    6.55    6.55</time>
   <energy>
    <i name="e_fr_energy">   -171.08968129 </i>
    <i name="e_wo_entrp">   -171.09544662 </i>
    <i name="e_0_energy">   -171.09160307 </i>
   </energy>
  </scstep>
  <scstep>
   <time name="dav">    6.08    6.08</time>
   <time name="total">    6.21    6.21</time>
   <energy>
    <i name="e_fr_energy">   -171.08969776 </i>
    <i name="e_wo_entrp">   -171.09546327 </i>
    <i name="e_0_energy">   -171.09161960 </i>
   </energy>
  </scstep>
  <scstep>
   <time name="dav">    6.16    6.16</time>
   <time name="total">    6.30    6.30</time>
   <energy>
    <i name="e_fr_energy">   -171.08971031 </i>
    <i name="e_wo_entrp">   -171.09547569 </i>
    <i name="e_0_energy">   -171.09163211 </i>
   </energy>
  </scstep>
  <scstep>
   <time name="dav">    5.53    5.53</time>
   <time name="total">    5.57    5.57</time>
   <energy>
    <i name="alphaZ">    224.08465733 </i>
    <i name="ewald">  68226.41498574 </i>
    <i name="hartreedc"> -91840.06672560 </i>
    <i name="XCdc">    516.28745397 </i>
    <i name="pawpsdc">  26086.33055473 </i>
    <i name="pawaedc"> -25924.09924590 </i>
    <i name="eentropy">      0.00576578 </i>
    <i name="bandstr">  -4847.50671011 </i>
    <i name="atom">  27387.45954937 </i>
    <i name="e_fr_energy">   -171.08971468 </i>
    <i name="e_wo_entrp">   -171.09548046 </i>
    <i name="e_0_energy">   -171.09163661 </i>
   </energy>
  </scstep>
  <structure>
   <crystal>
    <varray name="basis" >
     <v>       5.60695197       0.00000000       0.00000000 </v>
     <v>       0.00000000       9.96813107       0.00000000 </v>
     <v>       0.00000000      -3.66044708      26.08046983 </v>
    </varray>
    <i name="volume">   1457.65916082 </i>
    <varray name="rec_basis" >
     <v>       0.17835002      -0.00000000      -0.00000000 </v>
     <v>       0.00000000       0.10031971       0.01408008 </v>
     <v>       0.00000000       0.00000000       0.03834287 </v>
    </varray>
   </crystal>
   <varray name="positions" >
    <v>       0.00000000       0.00000000       0.32234779 </v>
    <v>       0.00000000       0.50000000       0.50009993 </v>
    <v>       0.00000000       0.75000000       0.41122386 </v>
    <v>       0.00000000       0.25000000       0.58897600 </v>
    <v>       0.00000000       0.25000000       0.41122386 </v>
    <v>       0.00000000       0.75000000       0.58897600 </v>
    <v>       0.00000000       0.00000000       0.50009993 </v>
    <v>       0.00000000       0.50000000       0.32234779 </v>
    <v>       0.50000000       0.00000000       0.32234779 </v>
    <v>       0.50000000       0.50000000       0.50009993 </v>
    <v>       0.50000000       0.75000000       0.41122386 </v>
    <v>       0.50000000       0.25000000       0.58897600 </v>
    <v>       0.50000000       0.25000000       0.41122386 </v>
    <v>       0.50000000       0.75000000       0.58897600 </v>
    <v>       0.50000000       0.00000000       0.50009993 </v>
    <v>       0.50000000       0.50000000       0.32234779 </v>
    <v>       0.25094688       0.99943783       0.41176033 </v>
    <v>       0.25094688       0.49943783       0.58951247 </v>
    <v>       0.25094688       0.75150905       0.49990007 </v>
    <v>       0.25094688       0.25150905       0.67765221 </v>
    <v>       0.25094688       0.24849095       0.50029978 </v>
    <v>       0.25094688       0.74849095       0.32254764 </v>
    <v>       0.25094688       0.00056217       0.58843952 </v>
    <v>       0.25094688       0.50056217       0.41068738 </v>
    <v>       0.74905312       0.99943783       0.41176033 </v>
    <v>       0.74905312       0.49943783       0.58951247 </v>
    <v>       0.74905312       0.75150905       0.49990007 </v>
    <v>       0.74905312       0.25150905       0.67765221 </v>
    <v>       0.74905312       0.24849095       0.50029978 </v>
    <v>       0.74905312       0.74849095       0.32254764 </v>
    <v>       0.74905312       0.00056217       0.58843952 </v>
    <v>       0.74905312       0.50056217       0.41068738 </v>
   </varray>
  </structure>
  <varray name="forces" >
   <v>      -0.00000000      -0.18222640      -0.42070429 </v>
   <v>      -0.00000000      -0.03938144       0.09743080 </v>
   <v>       0.00000000       0.12584912      -0.07622403 </v>
   <v>      -0.00000000      -0.55141238       0.28851089 </v>
   <v>      -0.00000000       0.22351371      -0.67002252 </v>
   <v>      -0.00000000      -0.29872254      -0.55536031 </v>
   <v>      -0.00000000       0.01931072      -0.41670159 </v>
   <v>       0.00000000       0.59744777       0.80184334 </v>
   <v>       0.00000000       0.09638346       0.66146974 </v>
   <v>      -0.00000000      -0.07454277      -0.06826067 </v>
   <v>      -0.00000000      -0.18809443       0.21775127 </v>
   <v>      -0.00000000      -0.29743851      -0.06375942 </v>
   <v>      -0.00000000      -0.07948004      -0.61093380 </v>
   <v>       0.00000000       0.07834201      -0.04602204 </v>
   <v>      -0.00000000      -0.08988380       0.15300194 </v>
   <v>       0.00000000       0.55120800       0.41015238 </v>
   <v>      -0.04256360       0.21500836      -0.32803569 </v>
   <v>      -0.14824260      -0.30180662       0.64269314 </v>
   <v>       0.05651469      -0.00725084       0.20169559 </v>
   <v>       0.01178027       0.08305481      -0.38654386 </v>
   <v>       0.05394651       0.03731030      -0.34962535 </v>
   <v>       0.16356906       0.17751492      -0.69078159 </v>
   <v>      -0.04026362      -0.25844612       1.02165343 </v>
   <v>      -0.05278612       0.10917894       0.03785848 </v>
   <v>       0.04256360       0.21500836      -0.32803569 </v>
   <v>       0.14824260      -0.30180662       0.64269314 </v>
   <v>      -0.05651469      -0.00725084       0.20169559 </v>
   <v>      -0.01178027       0.08305481      -0.38654386 </v>
   <v>      -0.05394651       0.03731030      -0.34962535 </v>
   <v>      -0.16356906       0.17751492      -0.69078159 </v>
   <v>       0.04026362      -0.25844612       1.02165343 </v>
   <v>       0.05278612       0.10917894       0.03785848 </v>
  </varray>
  <varray name="stress" >
   <v>      -5.32046167      -0.00000000      -0.00000000 </v>
   <v>      -0.00000000     -31.18527090     -13.81812745 </v>
   <v>      -0.00000000     -13.81812760       7.42750369 </v>
  </varray>
  <energy>
   <i name="e_fr_energy">   -171.08971468 </i>
   <i name="e_wo_entrp">   -171.09548046 </i>
   <i name="e_0_energy">   -171.09163661 </i>
  </energy>
  <time name="totalsc">  308.55  308.58</time>
  <eigenvalues>
   <array>
    <dimension dim="1">band</dimension>
    <dimension dim="2">kpoint</dimension>
    <dimension dim="3">spin</dimension>
    <field>eigene</field>
    <field>occ</field>
    <set>
     <set comment="spin 1">
      <set comment="kpoint 1">
       <r>  -56.7944    1.0000 </r>
       <r>  -56.6296    1.0000 </r>
       <r>  -56.5680    1.0000 </r>
       <r>  -56.4632    1.0000 </r>
       <r>  -56.4077    1.0000 </r>
       <r>  -56.3649    1.0000 </r>
       <r>  -56.3104    1.0000 </r>
       <r>  -56.2813    1.0000 </r>
       <r>  -56.2140    1.0000 </r>
       <r>  -56.2068    1.0000 </r>
       <r>  -56.1836    1.0000 </r>
       <r>  -56.1099    1.0000 </r>
       <r>  -56.1004    1.0000 </r>
       <r>  -56.0430    1.0000 </r>
       <r>  -33.2994    1.0000 </r>
       <r>  -33.0571    1.0000 </r>
       <r>  -32.9887    1.0000 </r>
       <r>  -32.9759    1.0000 </r>
       <r>  -32.9326    1.0000 </r>
       <r>  -32.9254    1.0000 </r>
       <r>  -32.9097    1.0000 </r>
       <r>  -32.8714    1.0000 </r>
       <r>  -32.8637    1.0000 </r>
       <r>  -32.8611    1.0000 </r>
       <r>  -32.7646    1.0000 </r>
       <r>  -32.7625    1.0000 </r>
       <r>  -32.7622    1.0000 </r>
       <r>  -32.7120    1.0000 </r>
       <r>  -32.6748    1.0000 </r>
       <r>  -32.6633    1.0000 </r>
       <r>  -32.6481    1.0000 </r>
       <r>  -32.6450    1.0000 </r>
       <r>  -32.6283    1.0000 </r>
       <r>  -32.6183    1.0000 </r>
       <r>  -32.6157    1.0000 </r>
       <r>  -32.5924    1.0000 </r>
       <r>  -32.5806    1.0000 </r>
       <r>  -32.5652    1.0000 </r>
       <r>  -32.5561    1.0000 </r>
       <r>  -32.5436    1.0000 </r>
       <r>  -32.5400    1.0000 </r>
       <r>  -32.5141    1.0000 </r>
       <r>  -32.4955    1.0000 </r>
       <r>  -32.4810    1.0000 </r>
       <r>  -32.4543    1.0000 </r>
       <r>  -32.4482    1.0000 </r>
       <r>  -32.4406    1.0000 </r>
       <r>  -32.4280    1.0000 </r>
       <r>  -32.3922    1.0000 </r>
       <r>  -32.3623    1.0000 </r>
       <r>  -32.3359    1.0000 </r>
       <r>  -32.2679    1.0000 </r>
       <r>  -32.2299    1.0000 </r>
       <r>  -32.0950    1.0000 </r>
       <r>  -32.0827    1.0000 </r>
       <r>  -32.0496    1.0000 </r>
       <r>  -14.3543    1.0000 </r>
       <r>  -14.3199    1.0000 </r>
       <r>  -14.3072    1.0000 </r>
       <r>  -14.2828    1.0000 </r>
       <r>  -14.2755    1.0000 </r>
       <r>  -13.9909    1.0000 </r>
       <r>  -13.9728    1.0000 </r>
       <r>  -13.9460    1.0000 </r>
       <r>  -13.9156    1.0000 </r>
       <r>  -13.8946    1.0000 </r>
       <r>   -8.7677    1.0000 </r>
       <r>   -7.7854    1.0000 </r>
       <r>   -7.1002    1.0000 </r>
       <r>   -6.8219    1.0000 </r>
       <r>   -6.3280    1.0000 </r>
       <r>   -6.0475    1.0000 </r>
       <r>   -5.3571    1.0000 </r>
       <r>   -5.0666    1.0000 </r>
       <r>   -4.8990    1.0000 </r>
       <r>   -4.3441    1.0000 </r>
       <r>   -4.0987    1.0000 </r>
       <r>   -3.7432    1.0000 </r>
       <r>   -3.6862    1.0000 </r>
       <r>   -3.5276    1.0000 </r>
       <r>   -3.4121    1.0000 </r>
       <r>   -3.1907    1.0000 </r>
       <r>   -2.9908    1.0000 </r>
       <r>   -2.8189    1.0000 </r>
       <r>   -2.6711    1.0000 </r>
       <r>   -2.6365    1.0000 </r>
       <r>   -2.4987    1.0000 </r>
       <r>   -2.3849    1.0000 </r>
       <r>   -2.2305    1.0000 </r>
       <r>   -2.1684    1.0000 </r>
       <r>   -2.1302    1.0000 </r>
       <r>   -2.0772    1.0000 </r>
       <r>   -1.8626    1.0000 </r>
       <r>   -1.7650    1.0000 </r>
       <r>   -1.6942    1.0000 </r>
       <r>   -1.6884    1.0000 </r>
       <r>   -1.4761    1.0000 </r>
       <r>   -1.4073    1.0000 </r>
       <r>   -1.3534    1.0000 </r>
       <r>   -1.2195    1.0000 </r>
       <r>   -1.1685    1.0000 </r>
       <r>   -0.9725    1.0000 </r>
       <r>   -0.9165    1.0000 </r>
       <r>   -0.8398    1.0000 </r>
       <r>   -0.8296    1.0000 </r>
       <r>   -0.7902    1.0000 </r>
       <r>   -0.5923    1.0000 </r>
       <r>   -0.4651    1.0000 </r>
       <r>   -0.3633    1.0000 </r>
       <r>   -0.2909    1.0000 </r>
       <r>   -0.2421    1.0000 </r>
       <r>   -0.1109    1.0000 </r>
       <r>   -0.0776    1.0000 </r>
       <r>    0.0294    1.0000 </r>
       <r>    0.0855    1.0000 </r>
       <r>    0.2173    1.0001 </r>
       <r>    0.2247    1.0002 </r>
       <r>    0.2307    1.0002 </r>
       <r>    0.2850    1.0028 </r>
       <r>    0.2976    1.0046 </r>
       <r>    0.4407    0.9696 </r>
       <r>    0.4542    0.9173 </r>
       <r>    0.4646    0.8643 </r>
       <r>    0.6341   -0.0354 </r>
       <r>    0.7006   -0.0119 </r>
       <r>    0.7238   -0.0057 </r>
       <r>    0.7437   -0.0027 </r>
       <r>    0.8098   -0.0001 </r>
       <r>    0.8615   -0.0000 </r>
       <r>    0.8692   -0.0000 </r>
       <r>    0.9754   -0.0000 </r>
       <r>    1.1011   -0.0000 </r>
       <r>    1.1915   -0.0000 </r>
       <r>    1.2300   -0.0000 </r>
       <r>    1.3135   -0.0000 </r>
       <r>    1.3647   -0.0000 </r>
       <r>    1.3994   -0.0000 </r>
       <r>    1.4414   -0.0000 </r>
       <r>    1.5264   -0.0000 </r>
       <r>    1.5579   -0.0000 </r>
       <r>    1.6173   -0.0000 </r>
       <r>    1.6471   -0.0000 </r>
       <r>    1.8221   -0.0000 </r>
       <r>    1.9444   -0.0000 </r>
       <r>    2.0117   -0.0000 </r>
       <r>    2.0344   -0.0000 </r>
       <r>    2.0902   -0.0000 </r>
       <r>    2.2912   -0.0000 </r>
       <r>    2.3392   -0.0000 </r>
       <r>    2.3678   -0.0000 </r>
       <r>    2.3745   -0.0000 </r>
       <r>    2.4033   -0.0000 </r>
       <r>    2.4573   -0.0000 </r>
       <r>    2.5264    0.0000 </r>
       <r>    2.5345    0.0000 </r>
       <r>    2.5814    0.0000 </r>
       <r>    2.6624    0.0000 </r>
       <r>    2.6914    0.0000 </r>
       <r>    2.7149    0.0000 </r>
       <r>    2.7382    0.0000 </r>
       <r>    2.7426    0.0000 </r>
       <r>    2.7660    0.0000 </r>
       <r>    2.8091    0.0000 </r>
       <r>    2.8808    0.0000 </r>
       <r>    2.9262    0.0000 </r>
       <r>    2.9334    0.0000 </r>
       <r>    3.0025    0.0000 </r>
       <r>    3.0711    0.0000 </r>
       <r>    3.1351    0.0000 </r>
       <r>    3.1580    0.0000 </r>
       <r>    3.1784    0.0000 </r>
       <r>    3.2144    0.0000 </r>
       <r>    3.2497    0.0000 </r>
       <r>    3.5291    0.0000 </r>
       <r>    3.6664    0.0000 </r>
       <r>    3.7677    0.0000 </r>
       <r>    3.8315    0.0000 </r>
       <r>    3.9461    0.0000 </r>
       <r>    3.9548    0.0000 </r>
       <r>    4.0199    0.0000 </r>
       <r>    4.0596    0.0000 </r>
       <r>    4.2370    0.0000 </r>
       <r>    4.3140    0.0000 </r>
       <r>    4.4476    0.0000 </r>
       <r>    4.5008    0.0000 </r>
       <r>    4.5671    0.0000 </r>
       <r>    4.6472    0.0000 </r>
       <r>    4.6947    0.0000 </r>
       <r>    4.8323    0.0000 </r>
       <r>    4.9170    0.0000 </r>
       <r>    4.9570    0.0000 </r>
       <r>    4.9867    0.0000 </r>
      </set>
      <set comment="kpoint 2">
       <r>  -56.7944    1.0000 </r>
       <r>  -56.6257    1.0000 </r>
       <r>  -56.5719    1.0000 </r>
       <r>  -56.4619    1.0000 </r>
       <r>  -56.4053    1.0000 </r>
       <r>  -56.3649    1.0000 </r>
       <r>  -56.3128    1.0000 </r>
       <r>  -56.2826    1.0000 </r>
       <r>  -56.2121    1.0000 </r>
       <r>  -56.2048    1.0000 </r>
       <r>  -56.1806    1.0000 </r>
       <r>  -56.1125    1.0000 </r>
       <r>  -56.1033    1.0000 </r>
       <r>  -56.0445    1.0000 </r>
       <r>  -33.2994    1.0000 </r>
       <r>  -33.0543    1.0000 </r>
       <r>  -32.9911    1.0000 </r>
       <r>  -32.9759    1.0000 </r>
       <r>  -32.9300    1.0000 </r>
       <r>  -32.9099    1.0000 </r>
       <r>  -32.8940    1.0000 </r>
       <r>  -32.8745    1.0000 </r>
       <r>  -32.8631    1.0000 </r>
       <r>  -32.8593    1.0000 </r>
       <r>  -32.7640    1.0000 </r>
       <r>  -32.7631    1.0000 </r>
       <r>  -32.7315    1.0000 </r>
       <r>  -32.6808    1.0000 </r>
       <r>  -32.6748    1.0000 </r>
       <r>  -32.6616    1.0000 </r>
       <r>  -32.6481    1.0000 </r>
       <r>  -32.6458    1.0000 </r>
       <r>  -32.6297    1.0000 </r>
       <r>  -32.6169    1.0000 </r>
       <r>  -32.6143    1.0000 </r>
       <r>  -32.5627    1.0000 </r>
       <r>  -32.5600    1.0000 </r>
       <r>  -32.5487    1.0000 </r>
       <r>  -32.5445    1.0000 </r>
       <r>  -32.5372    1.0000 </r>
       <r>  -32.5245    1.0000 </r>
       <r>  -32.5151    1.0000 </r>
       <r>  -32.4971    1.0000 </r>
       <r>  -32.4802    1.0000 </r>
       <r>  -32.4736    1.0000 </r>
       <r>  -32.4565    1.0000 </r>
       <r>  -32.4501    1.0000 </r>
       <r>  -32.4263    1.0000 </r>
       <r>  -32.3933    1.0000 </r>
       <r>  -32.3646    1.0000 </r>
       <r>  -32.3377    1.0000 </r>
       <r>  -32.3004    1.0000 </r>
       <r>  -32.2629    1.0000 </r>
       <r>  -32.1289    1.0000 </r>
       <r>  -32.1166    1.0000 </r>
       <r>  -32.0831    1.0000 </r>
       <r>  -14.3542    1.0000 </r>
       <r>  -14.3197    1.0000 </r>
       <r>  -14.3069    1.0000 </r>
       <r>  -14.2800    1.0000 </r>
       <r>  -14.2752    1.0000 </r>
       <r>  -13.9908    1.0000 </r>
       <r>  -13.9726    1.0000 </r>
       <r>  -13.9457    1.0000 </r>
       <r>  -13.9129    1.0000 </r>
       <r>  -13.8943    1.0000 </r>
       <r>   -8.6474    1.0000 </r>
       <r>   -7.6735    1.0000 </r>
       <r>   -6.9782    1.0000 </r>
       <r>   -6.7120    1.0000 </r>
       <r>   -6.2324    1.0000 </r>
       <r>   -5.9379    1.0000 </r>
       <r>   -5.4415    1.0000 </r>
       <r>   -5.1806    1.0000 </r>
       <r>   -4.9019    1.0000 </r>
       <r>   -4.7318    1.0000 </r>
       <r>   -4.4546    1.0000 </r>
       <r>   -4.2247    1.0000 </r>
       <r>   -3.9938    1.0000 </r>
       <r>   -3.6719    1.0000 </r>
       <r>   -3.5247    1.0000 </r>
       <r>   -3.4742    1.0000 </r>
       <r>   -3.3889    1.0000 </r>
       <r>   -2.8639    1.0000 </r>
       <r>   -2.6175    1.0000 </r>
       <r>   -2.4497    1.0000 </r>
       <r>   -2.3775    1.0000 </r>
       <r>   -2.1500    1.0000 </r>
       <r>   -2.1318    1.0000 </r>
       <r>   -1.9800    1.0000 </r>
       <r>   -1.8245    1.0000 </r>
       <r>   -1.7795    1.0000 </r>
       <r>   -1.7277    1.0000 </r>
       <r>   -1.6292    1.0000 </r>
       <r>   -1.5769    1.0000 </r>
       <r>   -1.4864    1.0000 </r>
       <r>   -1.3770    1.0000 </r>
       <r>   -1.2990    1.0000 </r>
       <r>   -1.2415    1.0000 </r>
       <r>   -1.1520    1.0000 </r>
       <r>   -1.0497    1.0000 </r>
       <r>   -1.0121    1.0000 </r>
       <r>   -0.9096    1.0000 </r>
       <r>   -0.7671    1.0000 </r>
       <r>   -0.6958    1.0000 </r>
       <r>   -0.6620    1.0000 </r>
       <r>   -0.5220    1.0000 </r>
       <r>   -0.3852    1.0000 </r>
       <r>   -0.3312    1.0000 </r>
       <r>   -0.2293    1.0000 </r>
       <r>   -0.2014    1.0000 </r>
       <r>   -0.1322    1.0000 </r>
       <r>   -0.0432    1.0000 </r>
       <r>   -0.0004    1.0000 </r>
       <r>    0.0943    1.0000 </r>
       <r>    0.1626    1.0000 </r>
       <r>    0.1828    1.0000 </r>
       <r>    0.2464    1.0005 </r>
       <r>    0.2830    1.0026 </r>
       <r>    0.3815    1.0342 </r>
       <r>    0.4533    0.9214 </r>
       <r>    0.5089    0.5397 </r>
       <r>    0.6267   -0.0339 </r>
       <r>    0.6536   -0.0318 </r>
       <r>    0.6931   -0.0146 </r>
       <r>    0.7577   -0.0015 </r>
       <r>    0.7626   -0.0012 </r>
       <r>    0.8326   -0.0000 </r>
       <r>    0.8713   -0.0000 </r>
       <r>    0.8891   -0.0000 </r>
       <r>    0.9671   -0.0000 </r>
       <r>    1.0996   -0.0000 </r>
       <r>    1.1643   -0.0000 </r>
       <r>    1.2133   -0.0000 </r>
       <r>    1.2321   -0.0000 </r>
       <r>    1.2785   -0.0000 </r>
       <r>    1.4404   -0.0000 </r>
       <r>    1.4590   -0.0000 </r>
       <r>    1.4936   -0.0000 </r>
       <r>    1.5140   -0.0000 </r>
       <r>    1.5830   -0.0000 </r>
       <r>    1.6776   -0.0000 </r>
       <r>    1.8087   -0.0000 </r>
       <r>    1.8140   -0.0000 </r>
       <r>    1.9438   -0.0000 </r>
       <r>    1.9572   -0.0000 </r>
       <r>    2.0040   -0.0000 </r>
       <r>    2.1674   -0.0000 </r>
       <r>    2.2132   -0.0000 </r>
       <r>    2.2310   -0.0000 </r>
       <r>    2.2845   -0.0000 </r>
       <r>    2.3088   -0.0000 </r>
       <r>    2.3628   -0.0000 </r>
       <r>    2.3868   -0.0000 </r>
       <r>    2.4116   -0.0000 </r>
       <r>    2.4502   -0.0000 </r>
       <r>    2.4752   -0.0000 </r>
       <r>    2.5134   -0.0000 </r>
       <r>    2.5783    0.0000 </r>
       <r>    2.6138    0.0000 </r>
       <r>    2.6817    0.0000 </r>
       <r>    2.7128    0.0000 </r>
       <r>    2.7995    0.0000 </r>
       <r>    2.8892    0.0000 </r>
       <r>    2.9246    0.0000 </r>
       <r>    2.9606    0.0000 </r>
       <r>    3.0436    0.0000 </r>
       <r>    3.0697    0.0000 </r>
       <r>    3.1785    0.0000 </r>
       <r>    3.2389    0.0000 </r>
       <r>    3.2844    0.0000 </r>
       <r>    3.3900    0.0000 </r>
       <r>    3.4416    0.0000 </r>
       <r>    3.5316    0.0000 </r>
       <r>    3.6679    0.0000 </r>
       <r>    3.6989    0.0000 </r>
       <r>    3.8092    0.0000 </r>
       <r>    3.8971    0.0000 </r>
       <r>    4.0438    0.0000 </r>
       <r>    4.1295    0.0000 </r>
       <r>    4.2295    0.0000 </r>
       <r>    4.3297    0.0000 </r>
       <r>    4.3567    0.0000 </r>
       <r>    4.3618    0.0000 </r>
       <r>    4.4873    0.0000 </r>
       <r>    4.5931    0.0000 </r>
       <r>    4.6444    0.0000 </r>
       <r>    4.6686    0.0000 </r>
       <r>    4.7738    0.0000 </r>
       <r>    4.8824    0.0000 </r>
       <r>    4.9424    0.0000 </r>
       <r>    5.0450    0.0000 </r>
      </set>
      <set comment="kpoint 3">
       <r>  -56.7944    1.0000 </r>
       <r>  -56.6153    1.0000 </r>
       <r>  -56.5824    1.0000 </r>
       <r>  -56.4594    1.0000 </r>
       <r>  -56.4002    1.0000 </r>
       <r>  -56.3650    1.0000 </r>
       <r>  -56.3180    1.0000 </r>
       <r>  -56.2852    1.0000 </r>
       <r>  -56.2084    1.0000 </r>
       <r>  -56.2004    1.0000 </r>
       <r>  -56.1739    1.0000 </r>
       <r>  -56.1182    1.0000 </r>
       <r>  -56.1098    1.0000 </r>
       <r>  -56.0475    1.0000 </r>
       <r>  -33.2994    1.0000 </r>
       <r>  -33.0479    1.0000 </r>
       <r>  -32.9967    1.0000 </r>
       <r>  -32.9758    1.0000 </r>
       <r>  -32.9234    1.0000 </r>
       <r>  -32.9103    1.0000 </r>
       <r>  -32.8819    1.0000 </r>
       <r>  -32.8618    1.0000 </r>
       <r>  -32.8555    1.0000 </r>
       <r>  -32.8080    1.0000 </r>
       <r>  -32.7673    1.0000 </r>
       <r>  -32.7601    1.0000 </r>
       <r>  -32.6748    1.0000 </r>
       <r>  -32.6578    1.0000 </r>
       <r>  -32.6519    1.0000 </r>
       <r>  -32.6492    1.0000 </r>
       <r>  -32.6452    1.0000 </r>
       <r>  -32.6327    1.0000 </r>
       <r>  -32.6142    1.0000 </r>
       <r>  -32.6113    1.0000 </r>
       <r>  -32.5939    1.0000 </r>
       <r>  -32.5631    1.0000 </r>
       <r>  -32.5572    1.0000 </r>
       <r>  -32.5464    1.0000 </r>
       <r>  -32.5308    1.0000 </r>
       <r>  -32.5171    1.0000 </r>
       <r>  -32.5020    1.0000 </r>
       <r>  -32.4771    1.0000 </r>
       <r>  -32.4714    1.0000 </r>
       <r>  -32.4624    1.0000 </r>
       <r>  -32.4612    1.0000 </r>
       <r>  -32.4540    1.0000 </r>
       <r>  -32.4393    1.0000 </r>
       <r>  -32.4218    1.0000 </r>
       <r>  -32.3957    1.0000 </r>
       <r>  -32.3864    1.0000 </r>
       <r>  -32.3700    1.0000 </r>
       <r>  -32.3525    1.0000 </r>
       <r>  -32.3413    1.0000 </r>
       <r>  -32.2207    1.0000 </r>
       <r>  -32.2079    1.0000 </r>
       <r>  -32.1719    1.0000 </r>
       <r>  -14.3541    1.0000 </r>
       <r>  -14.3195    1.0000 </r>
       <r>  -14.3062    1.0000 </r>
       <r>  -14.2745    1.0000 </r>
       <r>  -14.2743    1.0000 </r>
       <r>  -13.9906    1.0000 </r>
       <r>  -13.9723    1.0000 </r>
       <r>  -13.9451    1.0000 </r>
       <r>  -13.9074    1.0000 </r>
       <r>  -13.8937    1.0000 </r>
       <r>   -8.3208    1.0000 </r>
       <r>   -7.3724    1.0000 </r>
       <r>   -6.6866    1.0000 </r>
       <r>   -6.5083    1.0000 </r>
       <r>   -6.2182    1.0000 </r>
       <r>   -5.8205    1.0000 </r>
       <r>   -5.5914    1.0000 </r>
       <r>   -5.4782    1.0000 </r>
       <r>   -5.1634    1.0000 </r>
       <r>   -4.9712    1.0000 </r>
       <r>   -4.8583    1.0000 </r>
       <r>   -4.5116    1.0000 </r>
       <r>   -4.3935    1.0000 </r>
       <r>   -4.2603    1.0000 </r>
       <r>   -4.1604    1.0000 </r>
       <r>   -3.6180    1.0000 </r>
       <r>   -3.3278    1.0000 </r>
       <r>   -3.1448    1.0000 </r>
       <r>   -3.0946    1.0000 </r>
       <r>   -2.4510    1.0000 </r>
       <r>   -2.3627    1.0000 </r>
       <r>   -1.9376    1.0000 </r>
       <r>   -1.8148    1.0000 </r>
       <r>   -1.8043    1.0000 </r>
       <r>   -1.7569    1.0000 </r>
       <r>   -1.7131    1.0000 </r>
       <r>   -1.5338    1.0000 </r>
       <r>   -1.4030    1.0000 </r>
       <r>   -1.2928    1.0000 </r>
       <r>   -1.1900    1.0000 </r>
       <r>   -1.1364    1.0000 </r>
       <r>   -1.0509    1.0000 </r>
       <r>   -0.9151    1.0000 </r>
       <r>   -0.8591    1.0000 </r>
       <r>   -0.7779    1.0000 </r>
       <r>   -0.6827    1.0000 </r>
       <r>   -0.6513    1.0000 </r>
       <r>   -0.5042    1.0000 </r>
       <r>   -0.4661    1.0000 </r>
       <r>   -0.3816    1.0000 </r>
       <r>   -0.3438    1.0000 </r>
       <r>   -0.2283    1.0000 </r>
       <r>   -0.2092    1.0000 </r>
       <r>   -0.1629    1.0000 </r>
       <r>   -0.0743    1.0000 </r>
       <r>   -0.0003    1.0000 </r>
       <r>    0.0850    1.0000 </r>
       <r>    0.1628    1.0000 </r>
       <r>    0.2096    1.0001 </r>
       <r>    0.2629    1.0011 </r>
       <r>    0.3135    1.0080 </r>
       <r>    0.3572    1.0247 </r>
       <r>    0.3852    1.0350 </r>
       <r>    0.3977    1.0347 </r>
       <r>    0.4874    0.7132 </r>
       <r>    0.5862    0.0313 </r>
       <r>    0.5995   -0.0037 </r>
       <r>    0.6439   -0.0346 </r>
       <r>    0.7160   -0.0074 </r>
       <r>    0.7381   -0.0034 </r>
       <r>    0.7701   -0.0009 </r>
       <r>    0.7939   -0.0003 </r>
       <r>    0.8668   -0.0000 </r>
       <r>    0.9334   -0.0000 </r>
       <r>    0.9530   -0.0000 </r>
       <r>    1.0659   -0.0000 </r>
       <r>    1.1280   -0.0000 </r>
       <r>    1.1396   -0.0000 </r>
       <r>    1.1993   -0.0000 </r>
       <r>    1.2908   -0.0000 </r>
       <r>    1.3521   -0.0000 </r>
       <r>    1.3717   -0.0000 </r>
       <r>    1.4288   -0.0000 </r>
       <r>    1.4854   -0.0000 </r>
       <r>    1.5254   -0.0000 </r>
       <r>    1.5459   -0.0000 </r>
       <r>    1.6204   -0.0000 </r>
       <r>    1.6341   -0.0000 </r>
       <r>    1.6730   -0.0000 </r>
       <r>    1.7472   -0.0000 </r>
       <r>    1.7671   -0.0000 </r>
       <r>    1.8104   -0.0000 </r>
       <r>    1.8716   -0.0000 </r>
       <r>    1.9013   -0.0000 </r>
       <r>    1.9384   -0.0000 </r>
       <r>    2.0227   -0.0000 </r>
       <r>    2.1084   -0.0000 </r>
       <r>    2.1645   -0.0000 </r>
       <r>    2.1830   -0.0000 </r>
       <r>    2.2571   -0.0000 </r>
       <r>    2.2780   -0.0000 </r>
       <r>    2.3197   -0.0000 </r>
       <r>    2.4059   -0.0000 </r>
       <r>    2.4674   -0.0000 </r>
       <r>    2.4824   -0.0000 </r>
       <r>    2.5729    0.0000 </r>
       <r>    2.6747    0.0000 </r>
       <r>    2.7338    0.0000 </r>
       <r>    2.9112    0.0000 </r>
       <r>    2.9970    0.0000 </r>
       <r>    3.0701    0.0000 </r>
       <r>    3.1497    0.0000 </r>
       <r>    3.3065    0.0000 </r>
       <r>    3.3416    0.0000 </r>
       <r>    3.5258    0.0000 </r>
       <r>    3.5670    0.0000 </r>
       <r>    3.6773    0.0000 </r>
       <r>    3.7353    0.0000 </r>
       <r>    3.7932    0.0000 </r>
       <r>    3.9214    0.0000 </r>
       <r>    3.9537    0.0000 </r>
       <r>    4.0573    0.0000 </r>
       <r>    4.1860    0.0000 </r>
       <r>    4.3059    0.0000 </r>
       <r>    4.3572    0.0000 </r>
       <r>    4.4383    0.0000 </r>
       <r>    4.4874    0.0000 </r>
       <r>    4.5109    0.0000 </r>
       <r>    4.6242    0.0000 </r>
       <r>    4.6861    0.0000 </r>
       <r>    4.7446    0.0000 </r>
       <r>    4.8143    0.0000 </r>
       <r>    4.8503    0.0000 </r>
       <r>    4.9898    0.0000 </r>
       <r>    5.0423    0.0000 </r>
       <r>    5.1319    0.0000 </r>
      </set>
      <set comment="kpoint 4">
       <r>  -56.7944    1.0000 </r>
       <r>  -56.6055    1.0000 </r>
       <r>  -56.5923    1.0000 </r>
       <r>  -56.4581    1.0000 </r>
       <r>  -56.3973    1.0000 </r>
       <r>  -56.3651    1.0000 </r>
       <r>  -56.3209    1.0000 </r>
       <r>  -56.2866    1.0000 </r>
       <r>  -56.2065    1.0000 </r>
       <r>  -56.1979    1.0000 </r>
       <r>  -56.1699    1.0000 </r>
       <r>  -56.1214    1.0000 </r>
       <r>  -56.1135    1.0000 </r>
       <r>  -56.0491    1.0000 </r>
       <r>  -33.2994    1.0000 </r>
       <r>  -33.0441    1.0000 </r>
       <r>  -33.0003    1.0000 </r>
       <r>  -32.9758    1.0000 </r>
       <r>  -32.9189    1.0000 </r>
       <r>  -32.9105    1.0000 </r>
       <r>  -32.8868    1.0000 </r>
       <r>  -32.8611    1.0000 </r>
       <r>  -32.8535    1.0000 </r>
       <r>  -32.7692    1.0000 </r>
       <r>  -32.7585    1.0000 </r>
       <r>  -32.7069    1.0000 </r>
       <r>  -32.6748    1.0000 </r>
       <r>  -32.6659    1.0000 </r>
       <r>  -32.6531    1.0000 </r>
       <r>  -32.6524    1.0000 </r>
       <r>  -32.6490    1.0000 </r>
       <r>  -32.6344    1.0000 </r>
       <r>  -32.6130    1.0000 </r>
       <r>  -32.6095    1.0000 </r>
       <r>  -32.5692    1.0000 </r>
       <r>  -32.5541    1.0000 </r>
       <r>  -32.5473    1.0000 </r>
       <r>  -32.5269    1.0000 </r>
       <r>  -32.5182    1.0000 </r>
       <r>  -32.5054    1.0000 </r>
       <r>  -32.4856    1.0000 </r>
       <r>  -32.4739    1.0000 </r>
       <r>  -32.4675    1.0000 </r>
       <r>  -32.4667    1.0000 </r>
       <r>  -32.4625    1.0000 </r>
       <r>  -32.4564    1.0000 </r>
       <r>  -32.4190    1.0000 </r>
       <r>  -32.3970    1.0000 </r>
       <r>  -32.3741    1.0000 </r>
       <r>  -32.3694    1.0000 </r>
       <r>  -32.3574    1.0000 </r>
       <r>  -32.3541    1.0000 </r>
       <r>  -32.3430    1.0000 </r>
       <r>  -32.3317    1.0000 </r>
       <r>  -32.3076    1.0000 </r>
       <r>  -32.2566    1.0000 </r>
       <r>  -14.3540    1.0000 </r>
       <r>  -14.3194    1.0000 </r>
       <r>  -14.3058    1.0000 </r>
       <r>  -14.2742    1.0000 </r>
       <r>  -14.2714    1.0000 </r>
       <r>  -13.9905    1.0000 </r>
       <r>  -13.9722    1.0000 </r>
       <r>  -13.9448    1.0000 </r>
       <r>  -13.9046    1.0000 </r>
       <r>  -13.8934    1.0000 </r>
       <r>   -8.0470    1.0000 </r>
       <r>   -7.0930    1.0000 </r>
       <r>   -7.0038    1.0000 </r>
       <r>   -6.1252    1.0000 </r>
       <r>   -6.0101    1.0000 </r>
       <r>   -5.8583    1.0000 </r>
       <r>   -5.7943    1.0000 </r>
       <r>   -5.5848    1.0000 </r>
       <r>   -5.4794    1.0000 </r>
       <r>   -5.0182    1.0000 </r>
       <r>   -5.0158    1.0000 </r>
       <r>   -4.8448    1.0000 </r>
       <r>   -4.3945    1.0000 </r>
       <r>   -4.3004    1.0000 </r>
       <r>   -4.0751    1.0000 </r>
       <r>   -3.8951    1.0000 </r>
       <r>   -3.7772    1.0000 </r>
       <r>   -3.0182    1.0000 </r>
       <r>   -2.9433    1.0000 </r>
       <r>   -2.5487    1.0000 </r>
       <r>   -2.4779    1.0000 </r>
       <r>   -2.3179    1.0000 </r>
       <r>   -1.9936    1.0000 </r>
       <r>   -1.7420    1.0000 </r>
       <r>   -1.6588    1.0000 </r>
       <r>   -1.3325    1.0000 </r>
       <r>   -1.3281    1.0000 </r>
       <r>   -1.2972    1.0000 </r>
       <r>   -1.2205    1.0000 </r>
       <r>   -1.1725    1.0000 </r>
       <r>   -1.1213    1.0000 </r>
       <r>   -0.9509    1.0000 </r>
       <r>   -0.8347    1.0000 </r>
       <r>   -0.8214    1.0000 </r>
       <r>   -0.6562    1.0000 </r>
       <r>   -0.5780    1.0000 </r>
       <r>   -0.3982    1.0000 </r>
       <r>   -0.3191    1.0000 </r>
       <r>   -0.2152    1.0000 </r>
       <r>   -0.1674    1.0000 </r>
       <r>   -0.1102    1.0000 </r>
       <r>   -0.0836    1.0000 </r>
       <r>   -0.0527    1.0000 </r>
       <r>    0.0534    1.0000 </r>
       <r>    0.0698    1.0000 </r>
       <r>    0.1106    1.0000 </r>
       <r>    0.1799    1.0000 </r>
       <r>    0.2165    1.0001 </r>
       <r>    0.2540    1.0007 </r>
       <r>    0.3016    1.0053 </r>
       <r>    0.3493    1.0211 </r>
       <r>    0.3726    1.0314 </r>
       <r>    0.4125    1.0262 </r>
       <r>    0.4908    0.6878 </r>
       <r>    0.5797    0.0545 </r>
       <r>    0.6428   -0.0348 </r>
       <r>    0.6888   -0.0164 </r>
       <r>    0.7159   -0.0074 </r>
       <r>    0.7280   -0.0049 </r>
       <r>    0.7966   -0.0002 </r>
       <r>    0.8491   -0.0000 </r>
       <r>    0.8610   -0.0000 </r>
       <r>    0.8736   -0.0000 </r>
       <r>    0.9023   -0.0000 </r>
       <r>    0.9856   -0.0000 </r>
       <r>    1.0327   -0.0000 </r>
       <r>    1.0694   -0.0000 </r>
       <r>    1.0793   -0.0000 </r>
       <r>    1.1111   -0.0000 </r>
       <r>    1.1601   -0.0000 </r>
       <r>    1.1778   -0.0000 </r>
       <r>    1.2128   -0.0000 </r>
       <r>    1.2452   -0.0000 </r>
       <r>    1.3190   -0.0000 </r>
       <r>    1.3464   -0.0000 </r>
       <r>    1.4000   -0.0000 </r>
       <r>    1.4455   -0.0000 </r>
       <r>    1.4881   -0.0000 </r>
       <r>    1.6052   -0.0000 </r>
       <r>    1.6122   -0.0000 </r>
       <r>    1.6887   -0.0000 </r>
       <r>    1.6972   -0.0000 </r>
       <r>    1.7334   -0.0000 </r>
       <r>    1.7579   -0.0000 </r>
       <r>    1.8026   -0.0000 </r>
       <r>    1.8869   -0.0000 </r>
       <r>    1.9161   -0.0000 </r>
       <r>    1.9881   -0.0000 </r>
       <r>    2.0764   -0.0000 </r>
       <r>    2.1377   -0.0000 </r>
       <r>    2.1586   -0.0000 </r>
       <r>    2.2185   -0.0000 </r>
       <r>    2.3457   -0.0000 </r>
       <r>    2.3858   -0.0000 </r>
       <r>    2.4147   -0.0000 </r>
       <r>    2.5925    0.0000 </r>
       <r>    2.6987    0.0000 </r>
       <r>    2.7832    0.0000 </r>
       <r>    2.8077    0.0000 </r>
       <r>    2.8992    0.0000 </r>
       <r>    2.9567    0.0000 </r>
       <r>    3.1315    0.0000 </r>
       <r>    3.3676    0.0000 </r>
       <r>    3.5130    0.0000 </r>
       <r>    3.5305    0.0000 </r>
       <r>    3.6993    0.0000 </r>
       <r>    3.8766    0.0000 </r>
       <r>    3.8942    0.0000 </r>
       <r>    4.0221    0.0000 </r>
       <r>    4.0472    0.0000 </r>
       <r>    4.1306    0.0000 </r>
       <r>    4.2165    0.0000 </r>
       <r>    4.2333    0.0000 </r>
       <r>    4.3267    0.0000 </r>
       <r>    4.4742    0.0000 </r>
       <r>    4.4957    0.0000 </r>
       <r>    4.6350    0.0000 </r>
       <r>    4.6402    0.0000 </r>
       <r>    4.6840    0.0000 </r>
       <r>    4.7081    0.0000 </r>
       <r>    4.8704    0.0000 </r>
       <r>    4.9713    0.0000 </r>
       <r>    5.0833    0.0000 </r>
       <r>    5.1069    0.0000 </r>
       <r>    5.2407    0.0000 </r>
       <r>    5.3154    0.0000 </r>
      </set>
      <set comment="kpoint 5">
       <r>  -56.7944    1.0000 </r>
       <r>  -56.6296    1.0000 </r>
       <r>  -56.5680    1.0000 </r>
       <r>  -56.4632    1.0000 </r>
       <r>  -56.4077    1.0000 </r>
       <r>  -56.3649    1.0000 </r>
       <r>  -56.3104    1.0000 </r>
       <r>  -56.2813    1.0000 </r>
       <r>  -56.2140    1.0000 </r>
       <r>  -56.2068    1.0000 </r>
       <r>  -56.1836    1.0000 </r>
       <r>  -56.1099    1.0000 </r>
       <r>  -56.1004    1.0000 </r>
       <r>  -56.0430    1.0000 </r>
       <r>  -33.2994    1.0000 </r>
       <r>  -33.0571    1.0000 </r>
       <r>  -32.9887    1.0000 </r>
       <r>  -32.9759    1.0000 </r>
       <r>  -32.9326    1.0000 </r>
       <r>  -32.9254    1.0000 </r>
       <r>  -32.9097    1.0000 </r>
       <r>  -32.8714    1.0000 </r>
       <r>  -32.8637    1.0000 </r>
       <r>  -32.8611    1.0000 </r>
       <r>  -32.7646    1.0000 </r>
       <r>  -32.7624    1.0000 </r>
       <r>  -32.7622    1.0000 </r>
       <r>  -32.7120    1.0000 </r>
       <r>  -32.6748    1.0000 </r>
       <r>  -32.6634    1.0000 </r>
       <r>  -32.6481    1.0000 </r>
       <r>  -32.6449    1.0000 </r>
       <r>  -32.6282    1.0000 </r>
       <r>  -32.6183    1.0000 </r>
       <r>  -32.6157    1.0000 </r>
       <r>  -32.5924    1.0000 </r>
       <r>  -32.5806    1.0000 </r>
       <r>  -32.5651    1.0000 </r>
       <r>  -32.5561    1.0000 </r>
       <r>  -32.5440    1.0000 </r>
       <r>  -32.5398    1.0000 </r>
       <r>  -32.5139    1.0000 </r>
       <r>  -32.4955    1.0000 </r>
       <r>  -32.4810    1.0000 </r>
       <r>  -32.4543    1.0000 </r>
       <r>  -32.4483    1.0000 </r>
       <r>  -32.4406    1.0000 </r>
       <r>  -32.4281    1.0000 </r>
       <r>  -32.3920    1.0000 </r>
       <r>  -32.3624    1.0000 </r>
       <r>  -32.3359    1.0000 </r>
       <r>  -32.2679    1.0000 </r>
       <r>  -32.2299    1.0000 </r>
       <r>  -32.0950    1.0000 </r>
       <r>  -32.0827    1.0000 </r>
       <r>  -32.0496    1.0000 </r>
       <r>  -14.3543    1.0000 </r>
       <r>  -14.3199    1.0000 </r>
       <r>  -14.3072    1.0000 </r>
       <r>  -14.2828    1.0000 </r>
       <r>  -14.2755    1.0000 </r>
       <r>  -13.9909    1.0000 </r>
       <r>  -13.9728    1.0000 </r>
       <r>  -13.9460    1.0000 </r>
       <r>  -13.9156    1.0000 </r>
       <r>  -13.8946    1.0000 </r>
       <r>   -8.6773    1.0000 </r>
       <r>   -7.9786    1.0000 </r>
       <r>   -7.2583    1.0000 </r>
       <r>   -6.6704    1.0000 </r>
       <r>   -6.2027    1.0000 </r>
       <r>   -5.8190    1.0000 </r>
       <r>   -5.4707    1.0000 </r>
       <r>   -5.0739    1.0000 </r>
       <r>   -4.8915    1.0000 </r>
       <r>   -4.4853    1.0000 </r>
       <r>   -4.1119    1.0000 </r>
       <r>   -3.7572    1.0000 </r>
       <r>   -3.4782    1.0000 </r>
       <r>   -3.4247    1.0000 </r>
       <r>   -3.3424    1.0000 </r>
       <r>   -3.1276    1.0000 </r>
       <r>   -3.0992    1.0000 </r>
       <r>   -2.9247    1.0000 </r>
       <r>   -2.9071    1.0000 </r>
       <r>   -2.6804    1.0000 </r>
       <r>   -2.6528    1.0000 </r>
       <r>   -2.4915    1.0000 </r>
       <r>   -2.3948    1.0000 </r>
       <r>   -2.2717    1.0000 </r>
       <r>   -2.1350    1.0000 </r>
       <r>   -1.9565    1.0000 </r>
       <r>   -1.8661    1.0000 </r>
       <r>   -1.8165    1.0000 </r>
       <r>   -1.7706    1.0000 </r>
       <r>   -1.5496    1.0000 </r>
       <r>   -1.3391    1.0000 </r>
       <r>   -1.3165    1.0000 </r>
       <r>   -1.2515    1.0000 </r>
       <r>   -1.1355    1.0000 </r>
       <r>   -1.1005    1.0000 </r>
       <r>   -0.9575    1.0000 </r>
       <r>   -0.9299    1.0000 </r>
       <r>   -0.9117    1.0000 </r>
       <r>   -0.6902    1.0000 </r>
       <r>   -0.6174    1.0000 </r>
       <r>   -0.5331    1.0000 </r>
       <r>   -0.5017    1.0000 </r>
       <r>   -0.3716    1.0000 </r>
       <r>   -0.3344    1.0000 </r>
       <r>   -0.2577    1.0000 </r>
       <r>   -0.1511    1.0000 </r>
       <r>   -0.0928    1.0000 </r>
       <r>   -0.0691    1.0000 </r>
       <r>    0.0257    1.0000 </r>
       <r>    0.0750    1.0000 </r>
       <r>    0.2039    1.0001 </r>
       <r>    0.2257    1.0002 </r>
       <r>    0.2880    1.0032 </r>
       <r>    0.4269    1.0053 </r>
       <r>    0.4707    0.8286 </r>
       <r>    0.5284    0.3760 </r>
       <r>    0.5328    0.3408 </r>
       <r>    0.6023   -0.0090 </r>
       <r>    0.6743   -0.0228 </r>
       <r>    0.7370   -0.0035 </r>
       <r>    0.8088   -0.0001 </r>
       <r>    0.8422   -0.0000 </r>
       <r>    0.8986   -0.0000 </r>
       <r>    0.9381   -0.0000 </r>
       <r>    0.9729   -0.0000 </r>
       <r>    1.1221   -0.0000 </r>
       <r>    1.1872   -0.0000 </r>
       <r>    1.2479   -0.0000 </r>
       <r>    1.2879   -0.0000 </r>
       <r>    1.3318   -0.0000 </r>
       <r>    1.3846   -0.0000 </r>
       <r>    1.4899   -0.0000 </r>
       <r>    1.5638   -0.0000 </r>
       <r>    1.6068   -0.0000 </r>
       <r>    1.6244   -0.0000 </r>
       <r>    1.7236   -0.0000 </r>
       <r>    1.8181   -0.0000 </r>
       <r>    1.8483   -0.0000 </r>
       <r>    1.9731   -0.0000 </r>
       <r>    2.0197   -0.0000 </r>
       <r>    2.1569   -0.0000 </r>
       <r>    2.2280   -0.0000 </r>
       <r>    2.2350   -0.0000 </r>
       <r>    2.3701   -0.0000 </r>
       <r>    2.4120   -0.0000 </r>
       <r>    2.4663   -0.0000 </r>
       <r>    2.4751   -0.0000 </r>
       <r>    2.5142    0.0000 </r>
       <r>    2.5574    0.0000 </r>
       <r>    2.5697    0.0000 </r>
       <r>    2.6798    0.0000 </r>
       <r>    2.7013    0.0000 </r>
       <r>    2.7024    0.0000 </r>
       <r>    2.7256    0.0000 </r>
       <r>    2.7485    0.0000 </r>
       <r>    2.7710    0.0000 </r>
       <r>    2.8387    0.0000 </r>
       <r>    2.8492    0.0000 </r>
       <r>    2.8861    0.0000 </r>
       <r>    2.9081    0.0000 </r>
       <r>    2.9252    0.0000 </r>
       <r>    2.9562    0.0000 </r>
       <r>    3.0431    0.0000 </r>
       <r>    3.1777    0.0000 </r>
       <r>    3.1969    0.0000 </r>
       <r>    3.2229    0.0000 </r>
       <r>    3.2494    0.0000 </r>
       <r>    3.3464    0.0000 </r>
       <r>    3.5479    0.0000 </r>
       <r>    3.7218    0.0000 </r>
       <r>    3.7252    0.0000 </r>
       <r>    3.7861    0.0000 </r>
       <r>    4.0229    0.0000 </r>
       <r>    4.0795    0.0000 </r>
       <r>    4.2498    0.0000 </r>
       <r>    4.3391    0.0000 </r>
       <r>    4.3568    0.0000 </r>
       <r>    4.4597    0.0000 </r>
       <r>    4.5327    0.0000 </r>
       <r>    4.5824    0.0000 </r>
       <r>    4.6069    0.0000 </r>
       <r>    4.6818    0.0000 </r>
       <r>    4.7786    0.0000 </r>
       <r>    4.8611    0.0000 </r>
       <r>    4.9344    0.0000 </r>
       <r>    5.0329    0.0000 </r>
      </set>
      <set comment="kpoint 6">
       <r>  -56.7944    1.0000 </r>
       <r>  -56.6257    1.0000 </r>
       <r>  -56.5719    1.0000 </r>
       <r>  -56.4619    1.0000 </r>
       <r>  -56.4053    1.0000 </r>
       <r>  -56.3649    1.0000 </r>
       <r>  -56.3128    1.0000 </r>
       <r>  -56.2826    1.0000 </r>
       <r>  -56.2121    1.0000 </r>
       <r>  -56.2048    1.0000 </r>
       <r>  -56.1806    1.0000 </r>
       <r>  -56.1125    1.0000 </r>
       <r>  -56.1033    1.0000 </r>
       <r>  -56.0445    1.0000 </r>
       <r>  -33.2994    1.0000 </r>
       <r>  -33.0543    1.0000 </r>
       <r>  -32.9911    1.0000 </r>
       <r>  -32.9759    1.0000 </r>
       <r>  -32.9300    1.0000 </r>
       <r>  -32.9099    1.0000 </r>
       <r>  -32.8940    1.0000 </r>
       <r>  -32.8745    1.0000 </r>
       <r>  -32.8631    1.0000 </r>
       <r>  -32.8593    1.0000 </r>
       <r>  -32.7640    1.0000 </r>
       <r>  -32.7631    1.0000 </r>
       <r>  -32.7315    1.0000 </r>
       <r>  -32.6808    1.0000 </r>
       <r>  -32.6748    1.0000 </r>
       <r>  -32.6617    1.0000 </r>
       <r>  -32.6481    1.0000 </r>
       <r>  -32.6458    1.0000 </r>
       <r>  -32.6296    1.0000 </r>
       <r>  -32.6168    1.0000 </r>
       <r>  -32.6144    1.0000 </r>
       <r>  -32.5627    1.0000 </r>
       <r>  -32.5601    1.0000 </r>
       <r>  -32.5487    1.0000 </r>
       <r>  -32.5448    1.0000 </r>
       <r>  -32.5371    1.0000 </r>
       <r>  -32.5245    1.0000 </r>
       <r>  -32.5149    1.0000 </r>
       <r>  -32.4971    1.0000 </r>
       <r>  -32.4802    1.0000 </r>
       <r>  -32.4736    1.0000 </r>
       <r>  -32.4566    1.0000 </r>
       <r>  -32.4501    1.0000 </r>
       <r>  -32.4264    1.0000 </r>
       <r>  -32.3932    1.0000 </r>
       <r>  -32.3648    1.0000 </r>
       <r>  -32.3376    1.0000 </r>
       <r>  -32.3004    1.0000 </r>
       <r>  -32.2629    1.0000 </r>
       <r>  -32.1289    1.0000 </r>
       <r>  -32.1166    1.0000 </r>
       <r>  -32.0831    1.0000 </r>
       <r>  -14.3542    1.0000 </r>
       <r>  -14.3197    1.0000 </r>
       <r>  -14.3069    1.0000 </r>
       <r>  -14.2800    1.0000 </r>
       <r>  -14.2752    1.0000 </r>
       <r>  -13.9908    1.0000 </r>
       <r>  -13.9726    1.0000 </r>
       <r>  -13.9457    1.0000 </r>
       <r>  -13.9129    1.0000 </r>
       <r>  -13.8943    1.0000 </r>
       <r>   -8.5612    1.0000 </r>
       <r>   -7.8567    1.0000 </r>
       <r>   -7.1385    1.0000 </r>
       <r>   -6.5539    1.0000 </r>
       <r>   -6.1037    1.0000 </r>
       <r>   -5.7644    1.0000 </r>
       <r>   -5.4369    1.0000 </r>
       <r>   -5.1734    1.0000 </r>
       <r>   -4.9917    1.0000 </r>
       <r>   -4.8618    1.0000 </r>
[...]
       <r>    1.2235   -0.0000 </r>
       <r>    1.3246   -0.0000 </r>
       <r>    1.3456   -0.0000 </r>
       <r>    1.3865   -0.0000 </r>
       <r>    1.4113   -0.0000 </r>
       <r>    1.4689   -0.0000 </r>
       <r>    1.4872   -0.0000 </r>
       <r>    1.5256   -0.0000 </r>
       <r>    1.5810   -0.0000 </r>
       <r>    1.5853   -0.0000 </r>
       <r>    1.6769   -0.0000 </r>
       <r>    1.7478   -0.0000 </r>
       <r>    1.7791   -0.0000 </r>
       <r>    1.7841   -0.0000 </r>
       <r>    1.8463   -0.0000 </r>
       <r>    1.8744   -0.0000 </r>
       <r>    1.8963   -0.0000 </r>
       <r>    1.9329   -0.0000 </r>
       <r>    2.0065   -0.0000 </r>
       <r>    2.0451   -0.0000 </r>
       <r>    2.1670   -0.0000 </r>
       <r>    2.2090   -0.0000 </r>
       <r>    2.3180   -0.0000 </r>
       <r>    2.3433   -0.0000 </r>
       <r>    2.4441   -0.0000 </r>
       <r>    2.5118   -0.0000 </r>
       <r>    2.6091    0.0000 </r>
       <r>    2.7256    0.0000 </r>
       <r>    2.8699    0.0000 </r>
       <r>    2.9149    0.0000 </r>
       <r>    2.9756    0.0000 </r>
       <r>    3.0216    0.0000 </r>
       <r>    3.1433    0.0000 </r>
       <r>    3.2268    0.0000 </r>
       <r>    3.3433    0.0000 </r>
       <r>    3.4848    0.0000 </r>
       <r>    3.6694    0.0000 </r>
       <r>    3.7658    0.0000 </r>
       <r>    3.8039    0.0000 </r>
       <r>    3.9272    0.0000 </r>
       <r>    4.1270    0.0000 </r>
       <r>    4.1314    0.0000 </r>
       <r>    4.2497    0.0000 </r>
       <r>    4.3144    0.0000 </r>
       <r>    4.5844    0.0000 </r>
       <r>    4.5855    0.0000 </r>
       <r>    4.7546    0.0000 </r>
       <r>    4.8815    0.0000 </r>
       <r>    4.9576    0.0000 </r>
       <r>    5.0625    0.0000 </r>
       <r>    5.0902    0.0000 </r>
       <r>    5.2050    0.0000 </r>
       <r>    5.2686    0.0000 </r>
       <r>    5.2812    0.0000 </r>
       <r>    5.3896    0.0000 </r>
       <r>    5.4464    0.0000 </r>
      </set>
     </set>
    </set>
   </array>
  </eigenvalues>
  <separator name="orbital magnetization" >
   <v name="MAGDIPOLOUT">      0.00000000      0.00000000      0.00000000</v>
  </separator>
  <dos>
   <i name="efermi">      0.51360662 </i>
   <total>
    <array>
     <dimension dim="1">gridpoints</dimension>
     <dimension dim="2">spin</dimension>
     <field>energy</field>
     <field>total</field>
     <field>integrated</field>
     <set>
      <set comment="spin 1">
       <r>   -59.9064     0.0000     0.0000 </r>
       <r>   -59.6782     0.0000     0.0000 </r>
       <r>   -59.4500     0.0000     0.0000 </r>
       <r>   -59.2218     0.0000     0.0000 </r>
       <r>   -58.9936     0.0000     0.0000 </r>
       <r>   -58.7653     0.0000     0.0000 </r>
       <r>   -58.5371     0.0000     0.0000 </r>
       <r>   -58.3089     0.0000     0.0000 </r>
       <r>   -58.0807     0.0000     0.0000 </r>
       <r>   -57.8525     0.0000     0.0000 </r>
       <r>   -57.6243    -0.0000    -0.0000 </r>
       <r>   -57.3960    -0.0000    -0.0000 </r>
       <r>   -57.1678    -0.0000    -0.0000 </r>
       <r>   -56.9396    -0.2607    -0.0595 </r>
       <r>   -56.7114     8.5936     1.9017 </r>
       <r>   -56.4832    20.6679     6.6184 </r>
       <r>   -56.2550    40.6877    15.9040 </r>
       <r>   -56.0268    50.5030    27.4296 </r>
       <r>   -55.7985     2.5115    28.0028 </r>
       <r>   -55.5703    -0.0122    28.0000 </r>
       <r>   -55.3421    -0.0000    28.0000 </r>
       <r>   -55.1139     0.0000    28.0000 </r>
       <r>   -54.8857     0.0000    28.0000 </r>
       <r>   -54.6575     0.0000    28.0000 </r>
       <r>   -54.4292     0.0000    28.0000 </r>
       <r>   -54.2010     0.0000    28.0000 </r>
       <r>   -53.9728     0.0000    28.0000 </r>
       <r>   -53.7446     0.0000    28.0000 </r>
       <r>   -53.5164     0.0000    28.0000 </r>
       <r>   -53.2882     0.0000    28.0000 </r>
       <r>   -53.0599     0.0000    28.0000 </r>
       <r>   -52.8317     0.0000    28.0000 </r>
       <r>   -52.6035     0.0000    28.0000 </r>
       <r>   -52.3753     0.0000    28.0000 </r>
       <r>   -52.1471     0.0000    28.0000 </r>
       <r>   -51.9189     0.0000    28.0000 </r>
       <r>   -51.6906     0.0000    28.0000 </r>
       <r>   -51.4624     0.0000    28.0000 </r>
       <r>   -51.2342     0.0000    28.0000 </r>
       <r>   -51.0060     0.0000    28.0000 </r>
       <r>   -50.7778     0.0000    28.0000 </r>
       <r>   -50.5496     0.0000    28.0000 </r>
       <r>   -50.3213     0.0000    28.0000 </r>
       <r>   -50.0931     0.0000    28.0000 </r>
       <r>   -49.8649     0.0000    28.0000 </r>
       <r>   -49.6367     0.0000    28.0000 </r>
       <r>   -49.4085     0.0000    28.0000 </r>
       <r>   -49.1803     0.0000    28.0000 </r>
       <r>   -48.9520     0.0000    28.0000 </r>
       <r>   -48.7238     0.0000    28.0000 </r>
       <r>   -48.4956     0.0000    28.0000 </r>
       <r>   -48.2674     0.0000    28.0000 </r>
       <r>   -48.0392     0.0000    28.0000 </r>
       <r>   -47.8110     0.0000    28.0000 </r>
       <r>   -47.5828     0.0000    28.0000 </r>
       <r>   -47.3545     0.0000    28.0000 </r>
       <r>   -47.1263     0.0000    28.0000 </r>
       <r>   -46.8981     0.0000    28.0000 </r>
       <r>   -46.6699     0.0000    28.0000 </r>
       <r>   -46.4417     0.0000    28.0000 </r>
       <r>   -46.2135     0.0000    28.0000 </r>
       <r>   -45.9852     0.0000    28.0000 </r>
       <r>   -45.7570     0.0000    28.0000 </r>
       <r>   -45.5288     0.0000    28.0000 </r>
       <r>   -45.3006     0.0000    28.0000 </r>
       <r>   -45.0724     0.0000    28.0000 </r>
       <r>   -44.8442     0.0000    28.0000 </r>
       <r>   -44.6159     0.0000    28.0000 </r>
       <r>   -44.3877     0.0000    28.0000 </r>
       <r>   -44.1595     0.0000    28.0000 </r>
       <r>   -43.9313     0.0000    28.0000 </r>
       <r>   -43.7031     0.0000    28.0000 </r>
       <r>   -43.4749     0.0000    28.0000 </r>
       <r>   -43.2466     0.0000    28.0000 </r>
       <r>   -43.0184     0.0000    28.0000 </r>
       <r>   -42.7902     0.0000    28.0000 </r>
       <r>   -42.5620     0.0000    28.0000 </r>
       <r>   -42.3338     0.0000    28.0000 </r>
       <r>   -42.1056     0.0000    28.0000 </r>
       <r>   -41.8773     0.0000    28.0000 </r>
       <r>   -41.6491     0.0000    28.0000 </r>
       <r>   -41.4209     0.0000    28.0000 </r>
       <r>   -41.1927     0.0000    28.0000 </r>
       <r>   -40.9645     0.0000    28.0000 </r>
       <r>   -40.7363     0.0000    28.0000 </r>
       <r>   -40.5080     0.0000    28.0000 </r>
       <r>   -40.2798     0.0000    28.0000 </r>
       <r>   -40.0516     0.0000    28.0000 </r>
       <r>   -39.8234     0.0000    28.0000 </r>
       <r>   -39.5952     0.0000    28.0000 </r>
       <r>   -39.3670     0.0000    28.0000 </r>
       <r>   -39.1388     0.0000    28.0000 </r>
       <r>   -38.9105     0.0000    28.0000 </r>
       <r>   -38.6823     0.0000    28.0000 </r>
       <r>   -38.4541     0.0000    28.0000 </r>
       <r>   -38.2259     0.0000    28.0000 </r>
       <r>   -37.9977     0.0000    28.0000 </r>
       <r>   -37.7695     0.0000    28.0000 </r>
       <r>   -37.5412     0.0000    28.0000 </r>
       <r>   -37.3130     0.0000    28.0000 </r>
       <r>   -37.0848     0.0000    28.0000 </r>
       <r>   -36.8566     0.0000    28.0000 </r>
       <r>   -36.6284     0.0000    28.0000 </r>
       <r>   -36.4002     0.0000    28.0000 </r>
       <r>   -36.1719     0.0000    28.0000 </r>
       <r>   -35.9437     0.0000    28.0000 </r>
       <r>   -35.7155     0.0000    28.0000 </r>
       <r>   -35.4873     0.0000    28.0000 </r>
       <r>   -35.2591     0.0000    28.0000 </r>
       <r>   -35.0309     0.0000    28.0000 </r>
       <r>   -34.8026     0.0000    28.0000 </r>
       <r>   -34.5744     0.0000    28.0000 </r>
       <r>   -34.3462     0.0000    28.0000 </r>
       <r>   -34.1180    -0.0000    28.0000 </r>
       <r>   -33.8898    -0.0000    28.0000 </r>
       <r>   -33.6616    -0.0000    28.0000 </r>
       <r>   -33.4333    -0.2955    27.9326 </r>
       <r>   -33.2051     8.9145    29.9670 </r>
       <r>   -32.9769    19.3937    34.3929 </r>
       <r>   -32.7487    71.0936    50.6177 </r>
       <r>   -32.5205   127.7544    79.7733 </r>
       <r>   -32.2923   110.9885   105.1027 </r>
       <r>   -32.0640    27.2763   111.3275 </r>
       <r>   -31.8358     2.9620   112.0035 </r>
       <r>   -31.6076    -0.0154   112.0000 </r>
       <r>   -31.3794    -0.0000   112.0000 </r>
       <r>   -31.1512     0.0000   112.0000 </r>
       <r>   -30.9230     0.0000   112.0000 </r>
       <r>   -30.6948     0.0000   112.0000 </r>
       <r>   -30.4665     0.0000   112.0000 </r>
       <r>   -30.2383     0.0000   112.0000 </r>
       <r>   -30.0101     0.0000   112.0000 </r>
       <r>   -29.7819     0.0000   112.0000 </r>
       <r>   -29.5537     0.0000   112.0000 </r>
       <r>   -29.3255     0.0000   112.0000 </r>
       <r>   -29.0972     0.0000   112.0000 </r>
       <r>   -28.8690     0.0000   112.0000 </r>
       <r>   -28.6408     0.0000   112.0000 </r>
       <r>   -28.4126     0.0000   112.0000 </r>
       <r>   -28.1844     0.0000   112.0000 </r>
       <r>   -27.9562     0.0000   112.0000 </r>
       <r>   -27.7279     0.0000   112.0000 </r>
       <r>   -27.4997     0.0000   112.0000 </r>
       <r>   -27.2715     0.0000   112.0000 </r>
       <r>   -27.0433     0.0000   112.0000 </r>
       <r>   -26.8151     0.0000   112.0000 </r>
       <r>   -26.5869     0.0000   112.0000 </r>
       <r>   -26.3586     0.0000   112.0000 </r>
       <r>   -26.1304     0.0000   112.0000 </r>
       <r>   -25.9022     0.0000   112.0000 </r>
       <r>   -25.6740     0.0000   112.0000 </r>
       <r>   -25.4458     0.0000   112.0000 </r>
       <r>   -25.2176     0.0000   112.0000 </r>
       <r>   -24.9893     0.0000   112.0000 </r>
       <r>   -24.7611     0.0000   112.0000 </r>
       <r>   -24.5329     0.0000   112.0000 </r>
       <r>   -24.3047     0.0000   112.0000 </r>
       <r>   -24.0765     0.0000   112.0000 </r>
       <r>   -23.8483     0.0000   112.0000 </r>
       <r>   -23.6201     0.0000   112.0000 </r>
       <r>   -23.3918     0.0000   112.0000 </r>
       <r>   -23.1636     0.0000   112.0000 </r>
       <r>   -22.9354     0.0000   112.0000 </r>
       <r>   -22.7072     0.0000   112.0000 </r>
       <r>   -22.4790     0.0000   112.0000 </r>
       <r>   -22.2508     0.0000   112.0000 </r>
       <r>   -22.0225     0.0000   112.0000 </r>
       <r>   -21.7943     0.0000   112.0000 </r>
       <r>   -21.5661     0.0000   112.0000 </r>
       <r>   -21.3379     0.0000   112.0000 </r>
       <r>   -21.1097     0.0000   112.0000 </r>
       <r>   -20.8815     0.0000   112.0000 </r>
       <r>   -20.6532     0.0000   112.0000 </r>
       <r>   -20.4250     0.0000   112.0000 </r>
       <r>   -20.1968     0.0000   112.0000 </r>
       <r>   -19.9686     0.0000   112.0000 </r>
       <r>   -19.7404     0.0000   112.0000 </r>
       <r>   -19.5122     0.0000   112.0000 </r>
       <r>   -19.2839     0.0000   112.0000 </r>
       <r>   -19.0557     0.0000   112.0000 </r>
       <r>   -18.8275     0.0000   112.0000 </r>
       <r>   -18.5993     0.0000   112.0000 </r>
       <r>   -18.3711     0.0000   112.0000 </r>
       <r>   -18.1429     0.0000   112.0000 </r>
       <r>   -17.9146     0.0000   112.0000 </r>
       <r>   -17.6864     0.0000   112.0000 </r>
       <r>   -17.4582     0.0000   112.0000 </r>
       <r>   -17.2300     0.0000   112.0000 </r>
       <r>   -17.0018     0.0000   112.0000 </r>
       <r>   -16.7736     0.0000   112.0000 </r>
       <r>   -16.5453     0.0000   112.0000 </r>
       <r>   -16.3171     0.0000   112.0000 </r>
       <r>   -16.0889     0.0000   112.0000 </r>
       <r>   -15.8607     0.0000   112.0000 </r>
       <r>   -15.6325     0.0000   112.0000 </r>
       <r>   -15.4043     0.0000   112.0000 </r>
       <r>   -15.1761    -0.0000   112.0000 </r>
       <r>   -14.9478    -0.0000   112.0000 </r>
       <r>   -14.7196    -0.0000   112.0000 </r>
       <r>   -14.4914    -0.6362   111.8548 </r>
       <r>   -14.2632    35.3531   119.9230 </r>
       <r>   -14.0350    10.4954   122.3182 </r>
       <r>   -13.8068    43.2978   132.1994 </r>
       <r>   -13.5785    -0.8735   132.0001 </r>
       <r>   -13.3503    -0.0005   132.0000 </r>
       <r>   -13.1221    -0.0000   132.0000 </r>
       <r>   -12.8939     0.0000   132.0000 </r>
       <r>   -12.6657     0.0000   132.0000 </r>
       <r>   -12.4375     0.0000   132.0000 </r>
       <r>   -12.2092     0.0000   132.0000 </r>
       <r>   -11.9810     0.0000   132.0000 </r>
       <r>   -11.7528     0.0000   132.0000 </r>
       <r>   -11.5246     0.0000   132.0000 </r>
       <r>   -11.2964     0.0000   132.0000 </r>
       <r>   -11.0682     0.0000   132.0000 </r>
       <r>   -10.8399     0.0000   132.0000 </r>
       <r>   -10.6117     0.0000   132.0000 </r>
       <r>   -10.3835     0.0000   132.0000 </r>
       <r>   -10.1553     0.0000   132.0000 </r>
       <r>    -9.9271     0.0000   132.0000 </r>
       <r>    -9.6989    -0.0000   132.0000 </r>
       <r>    -9.4706    -0.0000   132.0000 </r>
       <r>    -9.2424    -0.0000   132.0000 </r>
       <r>    -9.0142    -0.0007   131.9998 </r>
       <r>    -8.7860     0.1011   132.0229 </r>
       <r>    -8.5578     3.4090   132.8009 </r>
       <r>    -8.3296     1.3178   133.1017 </r>
       <r>    -8.1013     2.5257   133.6781 </r>
       <r>    -7.8731     3.1506   134.3971 </r>
       <r>    -7.6449     2.3380   134.9306 </r>
       <r>    -7.4167     2.4307   135.4854 </r>
       <r>    -7.1885     2.3341   136.0181 </r>
       <r>    -6.9603     4.3316   137.0066 </r>
       <r>    -6.7321     4.3861   138.0076 </r>
       <r>    -6.5038     4.5541   139.0469 </r>
       <r>    -6.2756     5.1926   140.2319 </r>
       <r>    -6.0474     7.4644   141.9354 </r>
       <r>    -5.8192     5.7263   143.2423 </r>
       <r>    -5.5910     7.2989   144.9080 </r>
       <r>    -5.3628     7.1338   146.5360 </r>
       <r>    -5.1345     8.4587   148.4664 </r>
       <r>    -4.9063    10.4273   150.8461 </r>
       <r>    -4.6781     8.4553   152.7758 </r>
       <r>    -4.4499     8.1057   154.6256 </r>
       <r>    -4.2217     8.5578   156.5786 </r>
       <r>    -3.9935     8.5591   158.5320 </r>
       <r>    -3.7652     8.6629   160.5090 </r>
       <r>    -3.5370     6.8657   162.0758 </r>
       <r>    -3.3088    10.2625   164.4179 </r>
       <r>    -3.0806    10.4565   166.8043 </r>
       <r>    -2.8524     9.9453   169.0739 </r>
       <r>    -2.6242     5.5278   170.3355 </r>
       <r>    -2.3959    14.3814   173.6175 </r>
       <r>    -2.1677    12.6953   176.5148 </r>
       <r>    -1.9395    11.4924   179.1376 </r>
       <r>    -1.7113    21.3239   184.0040 </r>
       <r>    -1.4831    16.2149   187.7045 </r>
       <r>    -1.2549    21.0147   192.5004 </r>
       <r>    -1.0266    23.6970   197.9085 </r>
       <r>    -0.7984    24.8357   203.5764 </r>
       <r>    -0.5702    21.2137   208.4177 </r>
       <r>    -0.3420    24.2098   213.9428 </r>
       <r>    -0.1138    29.1282   220.5903 </r>
       <r>     0.1144    32.2530   227.9509 </r>
       <r>     0.3427    36.8543   236.3617 </r>
       <r>     0.5709    32.0683   243.6802 </r>
       <r>     0.7991    39.9589   252.7995 </r>
       <r>     1.0273    38.9985   261.6996 </r>
       <r>     1.2555    34.9252   269.6701 </r>
       <r>     1.4837    37.0982   278.1365 </r>
       <r>     1.7119    41.1274   287.5224 </r>
       <r>     1.9402    35.3547   295.5909 </r>
       <r>     2.1684    30.4206   302.5334 </r>
       <r>     2.3966    42.1180   312.1454 </r>
       <r>     2.6248    38.0450   320.8279 </r>
       <r>     2.8530    33.7102   328.5211 </r>
       <r>     3.0812    29.5774   335.2711 </r>
       <r>     3.3095    25.0808   340.9950 </r>
       <r>     3.5377    19.9642   345.5511 </r>
       <r>     3.7659    21.9813   350.5676 </r>
       <r>     3.9941    19.0425   354.9134 </r>
       <r>     4.2223    18.2740   359.0839 </r>
       <r>     4.4505    24.1633   364.5983 </r>
       <r>     4.6788    28.5845   371.1218 </r>
       <r>     4.9070    23.3967   376.4613 </r>
       <r>     5.1352    22.0798   381.5002 </r>
       <r>     5.3634     9.3259   383.6286 </r>
       <r>     5.5916     1.6641   384.0083 </r>
       <r>     5.8198    -0.0365   384.0000 </r>
       <r>     6.0481    -0.0000   384.0000 </r>
       <r>     6.2763     0.0000   384.0000 </r>
       <r>     6.5045     0.0000   384.0000 </r>
       <r>     6.7327     0.0000   384.0000 </r>
       <r>     6.9609     0.0000   384.0000 </r>
       <r>     7.1891     0.0000   384.0000 </r>
       <r>     7.4174     0.0000   384.0000 </r>
       <r>     7.6456     0.0000   384.0000 </r>
       <r>     7.8738     0.0000   384.0000 </r>
       <r>     8.1020     0.0000   384.0000 </r>
       <r>     8.3302     0.0000   384.0000 </r>
       <r>     8.5584     0.0000   384.0000 </r>
      </set>
     </set>
    </array>
   </total>
  </dos>
 </calculation>
 <structure name="finalpos" >
  <crystal>
   <varray name="basis" >
    <v>       5.60695197       0.00000000       0.00000000 </v>
    <v>       0.00000000       9.96813107       0.00000000 </v>
    <v>       0.00000000      -3.66044708      26.08046983 </v>
   </varray>
   <i name="volume">   1457.65916082 </i>
   <varray name="rec_basis" >
    <v>       0.17835002      -0.00000000      -0.00000000 </v>
    <v>       0.00000000       0.10031971       0.01408008 </v>
    <v>       0.00000000       0.00000000       0.03834287 </v>
   </varray>
  </crystal>
  <varray name="positions" >
   <v>       0.00000000       0.00000000       0.32234779 </v>
   <v>       0.00000000       0.50000000       0.50009993 </v>
   <v>       0.00000000       0.75000000       0.41122386 </v>
   <v>       0.00000000       0.25000000       0.58897600 </v>
   <v>       0.00000000       0.25000000       0.41122386 </v>
   <v>       0.00000000       0.75000000       0.58897600 </v>
   <v>       0.00000000       0.00000000       0.50009993 </v>
   <v>       0.00000000       0.50000000       0.32234779 </v>
   <v>       0.50000000       0.00000000       0.32234779 </v>
   <v>       0.50000000       0.50000000       0.50009993 </v>
   <v>       0.50000000       0.75000000       0.41122386 </v>
   <v>       0.50000000       0.25000000       0.58897600 </v>
   <v>       0.50000000       0.25000000       0.41122386 </v>
   <v>       0.50000000       0.75000000       0.58897600 </v>
   <v>       0.50000000       0.00000000       0.50009993 </v>
   <v>       0.50000000       0.50000000       0.32234779 </v>
   <v>       0.25094688       0.99943783       0.41176033 </v>
   <v>       0.25094688       0.49943783       0.58951247 </v>
   <v>       0.25094688       0.75150905       0.49990007 </v>
   <v>       0.25094688       0.25150905       0.67765221 </v>
   <v>       0.25094688       0.24849095       0.50029978 </v>
   <v>       0.25094688       0.74849095       0.32254764 </v>
   <v>       0.25094688       0.00056217       0.58843952 </v>
   <v>       0.25094688       0.50056217       0.41068738 </v>
   <v>       0.74905312       0.99943783       0.41176033 </v>
   <v>       0.74905312       0.49943783       0.58951247 </v>
   <v>       0.74905312       0.75150905       0.49990007 </v>
   <v>       0.74905312       0.25150905       0.67765221 </v>
   <v>       0.74905312       0.24849095       0.50029978 </v>
   <v>       0.74905312       0.74849095       0.32254764 </v>
   <v>       0.74905312       0.00056217       0.58843952 </v>
   <v>       0.74905312       0.50056217       0.41068738 </v>
  </varray>
 </structure>
</modeling>
