unknown system                          
           1
     5.606952    0.000000    0.000000
     0.000000    9.968131    0.000000
     0.000000   -3.660447   26.080470
   Ga   Ti   Al
     2    14    16
Direct configuration=     1
   0.00000000  0.00000000  0.32234779
   0.00000000  0.50000000  0.50009993
   0.00000000  0.75000000  0.41122386
   0.00000000  0.25000000  0.58897600
   0.00000000  0.25000000  0.41122386
   0.00000000  0.75000000  0.58897600
   0.00000000  0.00000000  0.50009993
   0.00000000  0.50000000  0.32234779
   0.50000000  0.00000000  0.32234779
   0.50000000  0.50000000  0.50009993
   0.50000000  0.75000000  0.41122386
   0.50000000  0.25000000  0.58897600
   0.50000000  0.25000000  0.41122386
   0.50000000  0.75000000  0.58897600
   0.50000000  0.00000000  0.50009993
   0.50000000  0.50000000  0.32234779
   0.25094688  0.99943783  0.41176033
   0.25094688  0.49943783  0.58951247
   0.25094688  0.75150905  0.49990007
   0.25094688  0.25150905  0.67765221
   0.25094688  0.24849095  0.50029978
   0.25094688  0.74849095  0.32254764
   0.25094688  0.00056217  0.58843952
   0.25094688  0.50056217  0.41068738
   0.74905312  0.99943783  0.41176033
   0.74905312  0.49943783  0.58951247
   0.74905312  0.75150905  0.49990007
   0.74905312  0.25150905  0.67765221
   0.74905312  0.24849095  0.50029978
   0.74905312  0.74849095  0.32254764
   0.74905312  0.00056217  0.58843952
   0.74905312  0.50056217  0.41068738
