  16  16   0   0
  0.5503381E+02  0.5645286E-09  0.8109983E-09  0.1923285E-08  0.5000000E-15
  1.000000000000000E-004
  CAR 
 unknown system                          
     10.79292314    -60.38908636  301     -0.06697427      1.00000000
    -60.389  0.0000E+00  0.0000E+00
    -60.152  0.0000E+00  0.0000E+00
    -59.915  0.0000E+00  0.0000E+00
    -59.677  0.0000E+00  0.0000E+00
    -59.440  0.0000E+00  0.0000E+00
    -59.203  0.0000E+00  0.0000E+00
    -58.965  0.0000E+00  0.0000E+00
    -58.728  0.0000E+00  0.0000E+00
    -58.491  0.0000E+00  0.0000E+00
    -58.254  0.0000E+00  0.0000E+00
    -58.016 -0.6923E-31 -0.1643E-31
    -57.779 -0.1313E-15 -0.3116E-16
    -57.542 -0.2853E-05 -0.6769E-06
    -57.305 -0.5325E+00 -0.1264E+00
    -57.067  0.3062E+02  0.7138E+01
    -56.830  0.7622E+01  0.8947E+01
    -56.593  0.3023E+02  0.1612E+02
    -56.355 -0.5063E+00  0.1600E+02
    -56.118 -0.2442E-05  0.1600E+02
    -55.881  0.0000E+00  0.1600E+02
    -55.644  0.0000E+00  0.1600E+02
    -55.406  0.0000E+00  0.1600E+02
    -55.169  0.0000E+00  0.1600E+02
    -54.932  0.0000E+00  0.1600E+02
    -54.695  0.0000E+00  0.1600E+02
    -54.457  0.0000E+00  0.1600E+02
    -54.220  0.0000E+00  0.1600E+02
    -53.983  0.0000E+00  0.1600E+02
    -53.745  0.0000E+00  0.1600E+02
    -53.508  0.0000E+00  0.1600E+02
    -53.271  0.0000E+00  0.1600E+02
    -53.034  0.0000E+00  0.1600E+02
    -52.796  0.0000E+00  0.1600E+02
    -52.559  0.0000E+00  0.1600E+02
    -52.322  0.0000E+00  0.1600E+02
    -52.085  0.0000E+00  0.1600E+02
    -51.847  0.0000E+00  0.1600E+02
    -51.610  0.0000E+00  0.1600E+02
    -51.373  0.0000E+00  0.1600E+02
    -51.135  0.0000E+00  0.1600E+02
    -50.898  0.0000E+00  0.1600E+02
    -50.661  0.0000E+00  0.1600E+02
    -50.424  0.0000E+00  0.1600E+02
    -50.186  0.0000E+00  0.1600E+02
    -49.949  0.0000E+00  0.1600E+02
    -49.712  0.0000E+00  0.1600E+02
    -49.475  0.0000E+00  0.1600E+02
    -49.237  0.0000E+00  0.1600E+02
    -49.000  0.0000E+00  0.1600E+02
    -48.763  0.0000E+00  0.1600E+02
    -48.525  0.0000E+00  0.1600E+02
    -48.288  0.0000E+00  0.1600E+02
    -48.051  0.0000E+00  0.1600E+02
    -47.814  0.0000E+00  0.1600E+02
    -47.576  0.0000E+00  0.1600E+02
    -47.339  0.0000E+00  0.1600E+02
    -47.102  0.0000E+00  0.1600E+02
    -46.865  0.0000E+00  0.1600E+02
    -46.627  0.0000E+00  0.1600E+02
    -46.390  0.0000E+00  0.1600E+02
    -46.153  0.0000E+00  0.1600E+02
    -45.915  0.0000E+00  0.1600E+02
    -45.678  0.0000E+00  0.1600E+02
    -45.441  0.0000E+00  0.1600E+02
    -45.204  0.0000E+00  0.1600E+02
    -44.966  0.0000E+00  0.1600E+02
    -44.729  0.0000E+00  0.1600E+02
    -44.492  0.0000E+00  0.1600E+02
    -44.254  0.0000E+00  0.1600E+02
    -44.017  0.0000E+00  0.1600E+02
    -43.780  0.0000E+00  0.1600E+02
    -43.543  0.0000E+00  0.1600E+02
    -43.305  0.0000E+00  0.1600E+02
    -43.068  0.0000E+00  0.1600E+02
    -42.831  0.0000E+00  0.1600E+02
    -42.594  0.0000E+00  0.1600E+02
    -42.356  0.0000E+00  0.1600E+02
    -42.119  0.0000E+00  0.1600E+02
    -41.882  0.0000E+00  0.1600E+02
    -41.644  0.0000E+00  0.1600E+02
    -41.407  0.0000E+00  0.1600E+02
    -41.170  0.0000E+00  0.1600E+02
    -40.933  0.0000E+00  0.1600E+02
    -40.695  0.0000E+00  0.1600E+02
    -40.458  0.0000E+00  0.1600E+02
    -40.221  0.0000E+00  0.1600E+02
    -39.984  0.0000E+00  0.1600E+02
    -39.746  0.0000E+00  0.1600E+02
    -39.509  0.0000E+00  0.1600E+02
    -39.272  0.0000E+00  0.1600E+02
    -39.034  0.0000E+00  0.1600E+02
    -38.797  0.0000E+00  0.1600E+02
    -38.560  0.0000E+00  0.1600E+02
    -38.323  0.0000E+00  0.1600E+02
    -38.085  0.0000E+00  0.1600E+02
    -37.848  0.0000E+00  0.1600E+02
    -37.611  0.0000E+00  0.1600E+02
    -37.374  0.0000E+00  0.1600E+02
    -37.136  0.0000E+00  0.1600E+02
    -36.899  0.0000E+00  0.1600E+02
    -36.662  0.0000E+00  0.1600E+02
    -36.424  0.0000E+00  0.1600E+02
    -36.187  0.0000E+00  0.1600E+02
    -35.950  0.0000E+00  0.1600E+02
    -35.713  0.0000E+00  0.1600E+02
    -35.475  0.0000E+00  0.1600E+02
    -35.238  0.0000E+00  0.1600E+02
    -35.001  0.0000E+00  0.1600E+02
    -34.764  0.0000E+00  0.1600E+02
    -34.526 -0.4719E-38  0.1600E+02
    -34.289 -0.6847E-21  0.1600E+02
    -34.052 -0.1177E-08  0.1600E+02
    -33.814 -0.2229E-01  0.1599E+02
    -33.577  0.7444E+01  0.1776E+02
    -33.340  0.7163E+02  0.3476E+02
    -33.103  0.4946E+02  0.4649E+02
    -32.865  0.6176E+02  0.6115E+02
    -32.628  0.1226E+02  0.6406E+02
    -32.391 -0.2380E+00  0.6400E+02
    -32.154 -0.9643E-04  0.6400E+02
    -31.916 -0.1209E-12  0.6400E+02
    -31.679  0.0000E+00  0.6400E+02
    -31.442  0.0000E+00  0.6400E+02
    -31.204  0.0000E+00  0.6400E+02
    -30.967  0.0000E+00  0.6400E+02
    -30.730  0.0000E+00  0.6400E+02
    -30.493  0.0000E+00  0.6400E+02
    -30.255  0.0000E+00  0.6400E+02
    -30.018  0.0000E+00  0.6400E+02
    -29.781  0.0000E+00  0.6400E+02
    -29.544  0.0000E+00  0.6400E+02
    -29.306  0.0000E+00  0.6400E+02
    -29.069  0.0000E+00  0.6400E+02
    -28.832  0.0000E+00  0.6400E+02
    -28.594  0.0000E+00  0.6400E+02
    -28.357  0.0000E+00  0.6400E+02
    -28.120  0.0000E+00  0.6400E+02
    -27.883  0.0000E+00  0.6400E+02
    -27.645  0.0000E+00  0.6400E+02
    -27.408  0.0000E+00  0.6400E+02
    -27.171  0.0000E+00  0.6400E+02
    -26.934  0.0000E+00  0.6400E+02
    -26.696  0.0000E+00  0.6400E+02
    -26.459  0.0000E+00  0.6400E+02
    -26.222  0.0000E+00  0.6400E+02
    -25.984  0.0000E+00  0.6400E+02
    -25.747  0.0000E+00  0.6400E+02
    -25.510  0.0000E+00  0.6400E+02
    -25.273  0.0000E+00  0.6400E+02
    -25.035  0.0000E+00  0.6400E+02
    -24.798  0.0000E+00  0.6400E+02
    -24.561  0.0000E+00  0.6400E+02
    -24.324  0.0000E+00  0.6400E+02
    -24.086  0.0000E+00  0.6400E+02
    -23.849  0.0000E+00  0.6400E+02
    -23.612  0.0000E+00  0.6400E+02
    -23.374  0.0000E+00  0.6400E+02
    -23.137  0.0000E+00  0.6400E+02
    -22.900  0.0000E+00  0.6400E+02
    -22.663  0.0000E+00  0.6400E+02
    -22.425  0.0000E+00  0.6400E+02
    -22.188  0.0000E+00  0.6400E+02
    -21.951  0.0000E+00  0.6400E+02
    -21.714  0.0000E+00  0.6400E+02
    -21.476  0.0000E+00  0.6400E+02
    -21.239  0.0000E+00  0.6400E+02
    -21.002  0.0000E+00  0.6400E+02
    -20.764  0.0000E+00  0.6400E+02
    -20.527  0.0000E+00  0.6400E+02
    -20.290  0.0000E+00  0.6400E+02
    -20.053  0.0000E+00  0.6400E+02
    -19.815  0.0000E+00  0.6400E+02
    -19.578  0.0000E+00  0.6400E+02
    -19.341  0.0000E+00  0.6400E+02
    -19.104  0.0000E+00  0.6400E+02
    -18.866  0.0000E+00  0.6400E+02
    -18.629  0.0000E+00  0.6400E+02
    -18.392  0.0000E+00  0.6400E+02
    -18.154  0.0000E+00  0.6400E+02
    -17.917  0.0000E+00  0.6400E+02
    -17.680  0.0000E+00  0.6400E+02
    -17.443  0.0000E+00  0.6400E+02
    -17.205  0.0000E+00  0.6400E+02
    -16.968  0.0000E+00  0.6400E+02
    -16.731  0.0000E+00  0.6400E+02
    -16.494  0.0000E+00  0.6400E+02
    -16.256  0.0000E+00  0.6400E+02
    -16.019  0.0000E+00  0.6400E+02
    -15.782  0.0000E+00  0.6400E+02
    -15.544  0.0000E+00  0.6400E+02
    -15.307 -0.2858E-29  0.6400E+02
    -15.070 -0.2318E-14  0.6400E+02
    -14.833 -0.2065E-04  0.6400E+02
    -14.595 -0.1137E+01  0.6373E+02
    -14.358  0.4288E+02  0.7390E+02
    -14.121  0.4049E+00  0.7400E+02
    -13.884 -0.1881E-02  0.7400E+02
    -13.646 -0.1053E-10  0.7400E+02
    -13.409  0.0000E+00  0.7400E+02
    -13.172  0.0000E+00  0.7400E+02
    -12.934  0.0000E+00  0.7400E+02
    -12.697  0.0000E+00  0.7400E+02
    -12.460  0.0000E+00  0.7400E+02
    -12.223  0.0000E+00  0.7400E+02
    -11.985  0.0000E+00  0.7400E+02
    -11.748  0.0000E+00  0.7400E+02
    -11.511  0.0000E+00  0.7400E+02
    -11.273  0.0000E+00  0.7400E+02
    -11.036  0.0000E+00  0.7400E+02
    -10.799  0.0000E+00  0.7400E+02
    -10.562  0.0000E+00  0.7400E+02
    -10.324  0.0000E+00  0.7400E+02
    -10.087  0.0000E+00  0.7400E+02
     -9.850  0.0000E+00  0.7400E+02
     -9.613  0.0000E+00  0.7400E+02
     -9.375 -0.6419E-36  0.7400E+02
     -9.138 -0.1082E-19  0.7400E+02
     -8.901 -0.1954E-08  0.7400E+02
     -8.663 -0.2798E-02  0.7400E+02
     -8.426  0.2683E+00  0.7406E+02
     -8.189  0.2635E+01  0.7469E+02
     -7.952  0.1676E+01  0.7509E+02
     -7.714  0.2163E+01  0.7560E+02
     -7.477  0.1861E+01  0.7604E+02
     -7.240  0.2897E+01  0.7673E+02
     -7.003  0.2420E+01  0.7730E+02
     -6.765  0.2358E+01  0.7786E+02
     -6.528  0.1311E+01  0.7817E+02
     -6.291  0.1670E+01  0.7857E+02
     -6.053  0.3331E+01  0.7936E+02
     -5.816  0.3937E+01  0.8029E+02
     -5.579  0.3221E+01  0.8106E+02
     -5.342  0.5994E+01  0.8248E+02
     -5.104  0.3522E+01  0.8332E+02
     -4.867  0.4850E+01  0.8447E+02
     -4.630  0.3974E+01  0.8541E+02
     -4.393  0.3119E+01  0.8615E+02
     -4.155  0.3436E+01  0.8696E+02
     -3.918  0.4730E+01  0.8809E+02
     -3.681  0.3403E+01  0.8889E+02
     -3.443  0.2699E+01  0.8954E+02
     -3.206  0.4039E+01  0.9049E+02
     -2.969  0.6451E+01  0.9202E+02
     -2.732  0.5385E+01  0.9330E+02
     -2.494  0.8657E+01  0.9536E+02
     -2.257  0.7968E+01  0.9725E+02
     -2.020  0.7352E+01  0.9899E+02
     -1.783  0.9879E+01  0.1013E+03
     -1.545  0.1245E+02  0.1043E+03
     -1.308  0.1690E+02  0.1083E+03
     -1.071  0.1606E+02  0.1121E+03
     -0.833  0.1197E+02  0.1149E+03
     -0.596  0.1539E+02  0.1186E+03
     -0.359  0.1960E+02  0.1233E+03
     -0.122  0.2048E+02  0.1281E+03
      0.116  0.3331E+02  0.1360E+03
      0.353  0.2013E+02  0.1408E+03
      0.590  0.1516E+02  0.1444E+03
      0.827  0.1375E+02  0.1476E+03
      1.065  0.1384E+02  0.1509E+03
      1.302  0.2544E+02  0.1570E+03
      1.539  0.3400E+02  0.1650E+03
      1.777  0.1948E+02  0.1697E+03
      2.014  0.2498E+02  0.1756E+03
      2.251  0.2520E+02  0.1816E+03
      2.488  0.1600E+02  0.1854E+03
      2.726  0.2006E+02  0.1901E+03
      2.963  0.8498E+01  0.1921E+03
      3.200  0.8449E+01  0.1941E+03
      3.437  0.9923E+01  0.1965E+03
      3.675  0.1100E+02  0.1991E+03
      3.912  0.1191E+02  0.2019E+03
      4.149  0.1373E+02  0.2052E+03
      4.387  0.1599E+02  0.2090E+03
      4.624  0.1594E+02  0.2128E+03
      4.861  0.1533E+02  0.2164E+03
      5.098  0.8992E+01  0.2185E+03
      5.336  0.1326E+02  0.2217E+03
      5.573  0.1820E+02  0.2260E+03
      5.810  0.1622E+02  0.2299E+03
      6.047  0.1743E+02  0.2340E+03
      6.285  0.1665E+02  0.2379E+03
      6.522  0.1969E+02  0.2426E+03
      6.759  0.1925E+02  0.2472E+03
      6.997  0.1438E+02  0.2506E+03
      7.234  0.1709E+02  0.2546E+03
      7.471  0.5184E+01  0.2559E+03
      7.708  0.5388E+00  0.2560E+03
      7.946 -0.1019E-01  0.2560E+03
      8.183 -0.1022E-06  0.2560E+03
      8.420  0.0000E+00  0.2560E+03
      8.657  0.0000E+00  0.2560E+03
      8.895  0.0000E+00  0.2560E+03
      9.132  0.0000E+00  0.2560E+03
      9.369  0.0000E+00  0.2560E+03
      9.607  0.0000E+00  0.2560E+03
      9.844  0.0000E+00  0.2560E+03
     10.081  0.0000E+00  0.2560E+03
     10.318  0.0000E+00  0.2560E+03
     10.556  0.0000E+00  0.2560E+03
     10.793  0.0000E+00  0.2560E+03
