   16   16    1    1
  0.5503381E+02  0.5645286E-09  0.8109982E-09  0.1923285E-08  0.5000000E-15
  1.000000000000000E-004
  CAR 
 unknown system                          
    130     12    128
 
  0.1276756E-14  0.1276756E-14  0.1276756E-14  0.4166667E-01
      1        -57.153540   1.000000
      2        -57.153079   1.000000
      3        -57.097660   1.000000
      4        -57.097261   1.000000
      5        -56.802341   1.000000
      6        -56.801795   1.000000
      7        -56.746077   1.000000
      8        -56.745615   1.000000
      9        -33.572913   1.000000
     10        -33.571375   1.000000
     11        -33.518239   1.000000
     12        -33.517353   1.000000
     13        -33.470422   1.000000
     14        -33.467592   1.000000
     15        -33.458559   1.000000
     16        -33.448001   1.000000
     17        -33.407623   1.000000
     18        -33.398132   1.000000
     19        -33.191030   1.000000
     20        -33.176243   1.000000
     21        -33.169825   1.000000
     22        -33.167722   1.000000
     23        -33.132955   1.000000
     24        -33.121366   1.000000
     25        -33.034170   1.000000
     26        -33.032751   1.000000
     27        -33.013437   1.000000
     28        -33.012968   1.000000
     29        -32.983539   1.000000
     30        -32.982607   1.000000
     31        -32.712422   1.000000
     32        -32.711839   1.000000
     33        -14.463263   1.000000
     34        -14.455777   1.000000
     35        -14.450642   1.000000
     36        -14.442472   1.000000
     37        -14.411019   1.000000
     38         -8.462979   1.000000
     39         -7.125297   1.000000
     40         -6.081691   1.000000
     41         -5.360689   1.000000
     42         -4.491863   1.000000
     43         -4.416665   1.000000
     44         -4.079921   1.000000
     45         -3.809842   1.000000
     46         -3.139034   1.000000
     47         -2.736075   1.000000
     48         -2.691473   1.000000
     49         -2.386572   1.000000
     50         -2.240008   1.000000
     51         -2.170373   1.000000
     52         -1.745779   1.000000
     53         -1.710954   1.000000
     54         -1.440518   1.000000
     55         -1.426855   1.000000
     56         -1.315531   1.000000
     57         -1.314380   1.000000
     58         -1.090852   1.000000
     59         -0.761893   1.000000
     60         -0.567535   1.000000
     61         -0.484447   1.000000
     62         -0.476123   1.000000
     63         -0.330717   1.000613
     64         -0.297777   1.002614
     65         -0.204786   1.032542
     66         -0.143884   0.981712
     67         -0.101678   0.775000
     68          0.156537  -0.003480
     69          0.163080  -0.002694
     70          0.228318  -0.000121
     71          0.620223  -0.000000
     72          0.621744  -0.000000
     73          0.780078  -0.000000
     74          0.831154  -0.000000
     75          1.002429  -0.000000
     76          1.139347  -0.000000
     77          1.153967  -0.000000
     78          1.402319  -0.000000
     79          1.423456  -0.000000
     80          1.470958  -0.000000
     81          1.529970  -0.000000
     82          1.678081  -0.000000
     83          1.739643  -0.000000
     84          1.792452  -0.000000
     85          1.799118  -0.000000
     86          1.800460  -0.000000
     87          1.830802  -0.000000
     88          2.052602   0.000000
     89          2.052689   0.000000
     90          2.069890   0.000000
     91          2.255061   0.000000
     92          2.262784   0.000000
     93          2.522659   0.000000
     94          2.581696   0.000000
     95          2.606747   0.000000
     96          2.744558   0.000000
     97          3.178739   0.000000
     98          3.242533   0.000000
     99          3.446669   0.000000
    100          3.838105   0.000000
    101          3.865495   0.000000
    102          4.160103   0.000000
    103          4.251426   0.000000
    104          4.276169   0.000000
    105          4.553198   0.000000
    106          4.603356   0.000000
    107          4.657887   0.000000
    108          4.953326   0.000000
    109          5.055520   0.000000
    110          5.063187   0.000000
    111          5.439977   0.000000
    112          5.464666   0.000000
    113          5.536348   0.000000
    114          5.726662   0.000000
    115          5.828881   0.000000
    116          5.992014   0.000000
    117          6.031056   0.000000
    118          6.061192   0.000000
    119          6.110844   0.000000
    120          6.184839   0.000000
    121          6.257986   0.000000
    122          6.473334   0.000000
    123          6.509114   0.000000
    124          6.542740   0.000000
    125          6.759743   0.000000
    126          6.778643   0.000000
    127          6.826088   0.000000
    128          6.977641   0.000000
 
  0.1666667E+00  0.1276756E-14  0.1276756E-14  0.8333333E-01
      1        -57.149822   1.000000
      2        -57.149366   1.000000
      3        -57.101429   1.000000
      4        -57.101025   1.000000
      5        -56.798597   1.000000
      6        -56.798059   1.000000
      7        -56.749872   1.000000
      8        -56.749403   1.000000
      9        -33.569167   1.000000
     10        -33.567678   1.000000
     11        -33.521903   1.000000
     12        -33.520970   1.000000
     13        -33.458898   1.000000
     14        -33.448193   1.000000
     15        -33.436920   1.000000
     16        -33.434455   1.000000
     17        -33.411236   1.000000
     18        -33.401596   1.000000
     19        -33.187139   1.000000
     20        -33.172488   1.000000
     21        -33.140072   1.000000
     22        -33.138130   1.000000
     23        -33.136856   1.000000
     24        -33.125056   1.000000
     25        -33.044817   1.000000
     26        -33.044251   1.000000
     27        -33.030510   1.000000
     28        -33.029155   1.000000
     29        -32.987028   1.000000
     30        -32.986059   1.000000
     31        -32.743816   1.000000
     32        -32.743134   1.000000
     33        -14.462374   1.000000
     34        -14.455900   1.000000
     35        -14.450743   1.000000
     36        -14.442413   1.000000
     37        -14.410915   1.000000
     38         -8.333908   1.000000
     39         -7.028813   1.000000
     40         -5.971905   1.000000
     41         -5.363935   1.000000
     42         -5.132703   1.000000
     43         -4.726786   1.000000
     44         -4.346057   1.000000
     45         -3.407898   1.000000
     46         -3.008058   1.000000
     47         -2.869589   1.000000
     48         -2.622270   1.000000
     49         -2.327180   1.000000
     50         -2.248468   1.000000
     51         -2.022481   1.000000
     52         -1.470977   1.000000
     53         -1.397286   1.000000
     54         -1.371169   1.000000
     55         -1.252602   1.000000
     56         -1.242958   1.000000
     57         -1.200137   1.000000
     58         -0.997627   1.000000
     59         -0.873366   1.000000
     60         -0.667630   1.000000
     61         -0.461731   1.000000
     62         -0.385403   1.000032
     63         -0.268426   1.007626
     64         -0.169367   1.027435
     65         -0.159516   1.015556
     66         -0.120761   0.890182
     67         -0.084696   0.647393
     68         -0.054534   0.395623
     69          0.125739  -0.010044
     70          0.184768  -0.001071
     71          0.187107  -0.000963
     72          0.638344  -0.000000
     73          0.781826  -0.000000
     74          1.047213  -0.000000
     75          1.101976  -0.000000
     76          1.191557  -0.000000
     77          1.271924  -0.000000
     78          1.333537  -0.000000
     79          1.429544  -0.000000
     80          1.433113  -0.000000
     81          1.468997  -0.000000
     82          1.482652  -0.000000
     83          1.541234  -0.000000
     84          1.645299  -0.000000
     85          1.755222  -0.000000
     86          1.797565  -0.000000
     87          1.919501  -0.000000
     88          2.014114   0.000000
     89          2.084264   0.000000
     90          2.150009   0.000000
     91          2.295158   0.000000
     92          2.427902   0.000000
     93          2.473202   0.000000
     94          2.498812   0.000000
     95          2.578327   0.000000
     96          2.669093   0.000000
     97          2.745333   0.000000
     98          3.286449   0.000000
     99          3.413528   0.000000
    100          3.670946   0.000000
    101          3.826493   0.000000
    102          3.997211   0.000000
    103          4.259324   0.000000
    104          4.336300   0.000000
    105          4.529631   0.000000
    106          4.543490   0.000000
    107          4.771464   0.000000
    108          4.816564   0.000000
    109          5.056894   0.000000
    110          5.543369   0.000000
    111          5.569713   0.000000
    112          5.623301   0.000000
    113          5.699183   0.000000
    114          5.742728   0.000000
    115          5.791725   0.000000
    116          5.872590   0.000000
    117          6.054192   0.000000
    118          6.147106   0.000000
    119          6.263910   0.000000
    120          6.295476   0.000000
    121          6.303169   0.000000
    122          6.417370   0.000000
    123          6.525810   0.000000
    124          6.577150   0.000000
    125          6.648228   0.000000
    126          6.783724   0.000000
    127          6.939618   0.000000
    128          6.987602   0.000000
 
  0.3333333E+00  0.1276756E-14  0.1276756E-14  0.8333333E-01
      1        -57.139647   1.000000
      2        -57.139202   1.000000
      3        -57.111705   1.000000
      4        -57.111286   1.000000
      5        -56.788353   1.000000
      6        -56.787829   1.000000
      7        -56.760218   1.000000
      8        -56.759732   1.000000
      9        -33.559109   1.000000
     10        -33.557744   1.000000
     11        -33.531874   1.000000
     12        -33.530825   1.000000
     13        -33.448176   1.000000
     14        -33.436937   1.000000
     15        -33.421121   1.000000
     16        -33.411043   1.000000
     17        -33.356322   1.000000
     18        -33.355000   1.000000
     19        -33.176550   1.000000
     20        -33.162490   1.000000
     21        -33.147528   1.000000
     22        -33.135133   1.000000
     23        -33.129371   1.000000
     24        -33.128596   1.000000
     25        -33.058652   1.000000
     26        -33.056964   1.000000
     27        -33.020695   1.000000
     28        -33.019396   1.000000
     29        -32.996466   1.000000
     30        -32.995403   1.000000
     31        -32.828954   1.000000
     32        -32.827981   1.000000
     33        -14.460603   1.000000
     34        -14.456145   1.000000
     35        -14.450944   1.000000
     36        -14.442295   1.000000
     37        -14.410697   1.000000
     38         -7.959317   1.000000
     39         -6.787079   1.000000
     40         -6.294830   1.000000
     41         -5.626689   1.000000
     42         -5.441179   1.000000
     43         -4.870369   1.000000
     44         -4.236854   1.000000
     45         -3.932734   1.000000
     46         -3.627650   1.000000
     47         -2.698794   1.000000
     48         -2.620987   1.000000
     49         -1.910086   1.000000
     50         -1.647370   1.000000
     51         -1.312309   1.000000
     52         -1.281357   1.000000
     53         -1.266838   1.000000
     54         -1.229435   1.000000
     55         -1.181567   1.000000
     56         -1.114844   1.000000
     57         -1.111472   1.000000
     58         -0.999233   1.000000
     59         -0.708373   1.000000
     60         -0.507777   1.000000
     61         -0.375658   1.000057
     62         -0.225326   1.023828
     63         -0.198728   1.034292
     64         -0.152450   1.002760
     65         -0.140000   0.969995
     66         -0.038890   0.272403
     67         -0.011139   0.099549
     68         -0.006911   0.079700
     69          0.018610  -0.002987
     70          0.174699  -0.001666
     71          0.274149  -0.000008
     72          0.587586  -0.000000
     73          0.666466  -0.000000
     74          1.018508  -0.000000
     75          1.118207  -0.000000
     76          1.126722  -0.000000
     77          1.133755  -0.000000
     78          1.309899  -0.000000
     79          1.318021  -0.000000
     80          1.324578  -0.000000
     81          1.340895  -0.000000
     82          1.362600  -0.000000
     83          1.366205  -0.000000
     84          1.418226  -0.000000
     85          1.569837  -0.000000
     86          1.596193  -0.000000
     87          1.694958  -0.000000
     88          1.850595  -0.000000
     89          1.970716   0.000000
     90          2.044705   0.000000
     91          2.066899   0.000000
     92          2.242299   0.000000
     93          2.341110   0.000000
     94          2.371349   0.000000
     95          2.565827   0.000000
     96          2.649413   0.000000
     97          3.196134   0.000000
     98          3.400948   0.000000
     99          3.583365   0.000000
    100          3.819820   0.000000
    101          3.918603   0.000000
    102          4.172368   0.000000
    103          4.336267   0.000000
    104          4.351093   0.000000
    105          4.525784   0.000000
    106          4.551030   0.000000
    107          4.702277   0.000000
    108          5.115289   0.000000
    109          5.121022   0.000000
    110          5.284979   0.000000
    111          5.356956   0.000000
    112          5.471041   0.000000
    113          5.569691   0.000000
    114          5.858100   0.000000
    115          5.956604   0.000000
    116          5.973623   0.000000
    117          6.011827   0.000000
    118          6.070748   0.000000
    119          6.255874   0.000000
    120          6.271273   0.000000
    121          6.355833   0.000000
    122          6.421236   0.000000
    123          6.437078   0.000000
    124          6.631051   0.000000
    125          6.671784   0.000000
    126          6.893388   0.000000
    127          6.903521   0.000000
    128          7.013441   0.000000
 
  0.5000000E+00  0.1276756E-14  0.1276756E-14  0.4166667E-01
      1        -57.125984   1.000000
      2        -57.125552   1.000000
      3        -57.125415   1.000000
      4        -57.124985   1.000000
      5        -56.774598   1.000000
      6        -56.774092   1.000000
      7        -56.774022   1.000000
      8        -56.773519   1.000000
      9        -33.545839   1.000000
     10        -33.545126   1.000000
     11        -33.544572   1.000000
     12        -33.543980   1.000000
     13        -33.434837   1.000000
     14        -33.434396   1.000000
     15        -33.424145   1.000000
     16        -33.423754   1.000000
     17        -33.245368   1.000000
     18        -33.244332   1.000000
     19        -33.241978   1.000000
     20        -33.240940   1.000000
     21        -33.162297   1.000000
     22        -33.161806   1.000000
     23        -33.149046   1.000000
     24        -33.148595   1.000000
     25        -33.009716   1.000000
     26        -33.009414   1.000000
     27        -33.008533   1.000000
     28        -33.008238   1.000000
     29        -32.945516   1.000000
     30        -32.944157   1.000000
     31        -32.941723   1.000000
     32        -32.940393   1.000000
     33        -14.459722   1.000000
     34        -14.456268   1.000000
     35        -14.451044   1.000000
     36        -14.442237   1.000000
     37        -14.410584   1.000000
     38         -7.526424   1.000000
     39         -7.072689   1.000000
     40         -6.302677   1.000000
     41         -6.020996   1.000000
     42         -5.058619   1.000000
     43         -4.938771   1.000000
     44         -4.376056   1.000000
     45         -4.286007   1.000000
     46         -3.362769   1.000000
     47         -3.291852   1.000000
     48         -2.053810   1.000000
     49         -1.995261   1.000000
     50         -1.557180   1.000000
     51         -1.556184   1.000000
     52         -1.248736   1.000000
     53         -1.214461   1.000000
     54         -1.122474   1.000000
     55         -1.042904   1.000000
     56         -1.009280   1.000000
     57         -0.907412   1.000000
     58         -0.499219   1.000000
     59         -0.445421   1.000001
     60         -0.444606   1.000001
     61         -0.359569   1.000140
     62         -0.201221   1.033648
     63         -0.188919   1.035454
     64         -0.053203   0.384673
     65         -0.042918   0.302807
     66         -0.032979   0.229907
     67         -0.018874   0.140517
     68          0.120172  -0.011840
     69          0.120855  -0.011609
     70          0.170356  -0.002001
     71          0.185339  -0.001044
     72          0.664754  -0.000000
     73          0.684325  -0.000000
     74          0.915597  -0.000000
     75          0.951014  -0.000000
     76          1.008545  -0.000000
     77          1.020041  -0.000000
     78          1.109425  -0.000000
     79          1.153705  -0.000000
     80          1.237618  -0.000000
     81          1.243283  -0.000000
     82          1.259303  -0.000000
     83          1.287407  -0.000000
     84          1.423089  -0.000000
     85          1.425484  -0.000000
     86          1.497170  -0.000000
     87          1.526029  -0.000000
     88          1.823921  -0.000000
     89          1.835269  -0.000000
     90          2.016209   0.000000
     91          2.032268   0.000000
     92          2.034287   0.000000
     93          2.127456   0.000000
     94          2.492701   0.000000
     95          2.503347   0.000000
     96          3.121015   0.000000
     97          3.147149   0.000000
     98          3.703360   0.000000
     99          3.767840   0.000000
    100          3.850938   0.000000
    101          3.936777   0.000000
    102          4.144064   0.000000
    103          4.153732   0.000000
    104          4.458307   0.000000
    105          4.780614   0.000000
    106          4.971804   0.000000
    107          4.990242   0.000000
    108          5.117043   0.000000
    109          5.174326   0.000000
    110          5.262166   0.000000
    111          5.307383   0.000000
    112          5.627537   0.000000
    113          5.645804   0.000000
    114          5.677175   0.000000
    115          5.715207   0.000000
    116          5.752601   0.000000
    117          5.844699   0.000000
    118          5.904590   0.000000
    119          5.954873   0.000000
    120          5.967717   0.000000
    121          5.991698   0.000000
    122          6.266356   0.000000
    123          6.337830   0.000000
    124          6.593713   0.000000
    125          6.596308   0.000000
    126          6.958054   0.000000
    127          7.034137   0.000000
    128          7.163474   0.000000
 
  0.1276756E-14  0.2500000E+00  0.1276756E-14  0.8333333E-01
      1        -57.153474   1.000000
      2        -57.153147   1.000000
      3        -57.097603   1.000000
      4        -57.097320   1.000000
      5        -56.802262   1.000000
      6        -56.801876   1.000000
      7        -56.746010   1.000000
      8        -56.745683   1.000000
      9        -33.572696   1.000000
     10        -33.571592   1.000000
     11        -33.518112   1.000000
     12        -33.517482   1.000000
     13        -33.469895   1.000000
     14        -33.467930   1.000000
     15        -33.457136   1.000000
     16        -33.449636   1.000000
     17        -33.406235   1.000000
     18        -33.399524   1.000000
     19        -33.188869   1.000000
     20        -33.178403   1.000000
     21        -33.169527   1.000000
     22        -33.168048   1.000000
     23        -33.131260   1.000000
     24        -33.123065   1.000000
     25        -33.033961   1.000000
     26        -33.032955   1.000000
     27        -33.013373   1.000000
     28        -33.013037   1.000000
     29        -32.983407   1.000000
     30        -32.982747   1.000000
     31        -32.712341   1.000000
     32        -32.711925   1.000000
     33        -14.463262   1.000000
     34        -14.455769   1.000000
     35        -14.450653   1.000000
     36        -14.442495   1.000000
     37        -14.411009   1.000000
     38         -8.347129   1.000000
     39         -7.385631   1.000000
     40         -6.011803   1.000000
     41         -5.478177   1.000000
     42         -4.428431   1.000000
     43         -4.088927   1.000000
     44         -4.022378   1.000000
     45         -3.678877   1.000000
     46         -3.050151   1.000000
     47         -2.885241   1.000000
     48         -2.722949   1.000000
     49         -2.469580   1.000000
     50         -2.354587   1.000000
     51         -2.026632   1.000000
     52         -1.876121   1.000000
     53         -1.793480   1.000000
     54         -1.721020   1.000000
     55         -1.645648   1.000000
     56         -1.318545   1.000000
     57         -1.233422   1.000000
     58         -0.950923   1.000000
     59         -0.743764   1.000000
     60         -0.698619   1.000000
     61         -0.632608   1.000000
     62         -0.588380   1.000000
     63         -0.508373   1.000000
     64         -0.158360   1.013724
     65         -0.069264   0.519371
     66         -0.024299   0.172739
     67          0.076046  -0.030617
     68          0.087579  -0.025584
     69          0.141903  -0.005938
     70          0.304639  -0.000001
     71          0.558450  -0.000000
     72          0.679937  -0.000000
     73          0.817458  -0.000000
     74          1.036155  -0.000000
     75          1.142930  -0.000000
     76          1.212227  -0.000000
     77          1.260391  -0.000000
     78          1.385848  -0.000000
     79          1.394951  -0.000000
     80          1.526080  -0.000000
     81          1.538368  -0.000000
     82          1.722666  -0.000000
     83          1.745104  -0.000000
     84          1.779699  -0.000000
     85          1.831223  -0.000000
     86          1.845970  -0.000000
     87          1.955655   0.000000
     88          2.028251   0.000000
     89          2.030626   0.000000
     90          2.058207   0.000000
     91          2.081120   0.000000
     92          2.221288   0.000000
     93          2.586122   0.000000
     94          2.603237   0.000000
     95          2.622193   0.000000
     96          3.029271   0.000000
     97          3.075358   0.000000
     98          3.270204   0.000000
     99          3.500321   0.000000
    100          3.622971   0.000000
    101          3.632889   0.000000
    102          3.941869   0.000000
    103          3.953514   0.000000
    104          4.233728   0.000000
    105          4.256050   0.000000
    106          4.304374   0.000000
    107          4.838083   0.000000
    108          5.040918   0.000000
    109          5.127650   0.000000
    110          5.245512   0.000000
    111          5.288740   0.000000
    112          5.347160   0.000000
    113          5.450314   0.000000
    114          5.606165   0.000000
    115          5.644302   0.000000
    116          5.694935   0.000000
    117          5.845812   0.000000
    118          6.074626   0.000000
    119          6.288683   0.000000
    120          6.357449   0.000000
    121          6.518820   0.000000
    122          6.532201   0.000000
    123          6.703018   0.000000
    124          6.745341   0.000000
    125          6.782011   0.000000
    126          7.069802   0.000000
    127          7.163395   0.000000
    128          7.190184   0.000000
 
  0.1666667E+00  0.2500000E+00  0.1276756E-14  0.1666667E+00
      1        -57.149756   1.000000
      2        -57.149432   1.000000
      3        -57.101370   1.000000
      4        -57.101084   1.000000
      5        -56.798519   1.000000
      6        -56.798137   1.000000
      7        -56.749803   1.000000
      8        -56.749472   1.000000
      9        -33.568958   1.000000
     10        -33.567886   1.000000
     11        -33.521768   1.000000
     12        -33.521104   1.000000
     13        -33.457278   1.000000
     14        -33.449685   1.000000
     15        -33.436614   1.000000
     16        -33.434895   1.000000
     17        -33.409828   1.000000
     18        -33.403006   1.000000
     19        -33.185000   1.000000
     20        -33.174636   1.000000
     21        -33.139790   1.000000
     22        -33.138428   1.000000
     23        -33.135121   1.000000
     24        -33.126779   1.000000
     25        -33.044733   1.000000
     26        -33.044333   1.000000
     27        -33.030314   1.000000
     28        -33.029349   1.000000
     29        -32.986884   1.000000
     30        -32.986198   1.000000
     31        -32.743715   1.000000
     32        -32.743233   1.000000
     33        -14.462372   1.000000
     34        -14.455890   1.000000
     35        -14.450756   1.000000
     36        -14.442433   1.000000
     37        -14.410904   1.000000
     38         -8.221224   1.000000
     39         -7.275858   1.000000
     40         -5.908844   1.000000
     41         -5.411383   1.000000
     42         -5.148243   1.000000
     43         -4.782407   1.000000
     44         -3.913557   1.000000
     45         -3.335791   1.000000
     46         -2.970710   1.000000
     47         -2.919515   1.000000
     48         -2.615267   1.000000
     49         -2.244738   1.000000
     50         -2.208263   1.000000
     51         -2.152250   1.000000
     52         -1.937566   1.000000
     53         -1.597940   1.000000
     54         -1.546841   1.000000
     55         -1.407674   1.000000
     56         -1.145490   1.000000
     57         -0.992313   1.000000
     58         -0.851808   1.000000
     59         -0.744141   1.000000
     60         -0.678254   1.000000
     61         -0.645727   1.000000
     62         -0.496121   1.000000
     63         -0.424741   1.000003
     64         -0.140167   0.970528
     65         -0.080875   0.616390
     66         -0.019609   0.144714
     67         -0.010309   0.095512
     68          0.052542  -0.035317
     69          0.148187  -0.004752
     70          0.251282  -0.000032
     71          0.521572  -0.000000
     72          0.549167  -0.000000
     73          0.655053  -0.000000
     74          0.979880  -0.000000
     75          1.093783  -0.000000
     76          1.162042  -0.000000
     77          1.180090  -0.000000
     78          1.344786  -0.000000
     79          1.400544  -0.000000
     80          1.465115  -0.000000
     81          1.482540  -0.000000
     82          1.565916  -0.000000
     83          1.601845  -0.000000
     84          1.785359  -0.000000
     85          1.805430  -0.000000
     86          1.891920  -0.000000
     87          1.951036   0.000000
     88          1.978479   0.000000
     89          2.004295   0.000000
     90          2.242917   0.000000
     91          2.281058   0.000000
     92          2.408075   0.000000
     93          2.468191   0.000000
     94          2.490630   0.000000
     95          2.507704   0.000000
     96          2.560579   0.000000
     97          3.242548   0.000000
     98          3.381755   0.000000
     99          3.516150   0.000000
    100          3.558206   0.000000
    101          3.754909   0.000000
    102          3.840140   0.000000
    103          4.042904   0.000000
    104          4.109061   0.000000
    105          4.343976   0.000000
    106          4.429097   0.000000
    107          4.496531   0.000000
    108          4.743323   0.000000
    109          4.822588   0.000000
    110          5.263169   0.000000
    111          5.410670   0.000000
    112          5.470666   0.000000
    113          5.479840   0.000000
    114          5.777673   0.000000
    115          5.820120   0.000000
    116          5.948860   0.000000
    117          5.997585   0.000000
    118          6.224945   0.000000
    119          6.366419   0.000000
    120          6.414511   0.000000
    121          6.456989   0.000000
    122          6.643738   0.000000
    123          6.813451   0.000000
    124          6.902038   0.000000
    125          7.165192   0.000000
    126          7.177593   0.000000
    127          7.258477   0.000000
    128          7.294316   0.000000
 
  0.3333333E+00  0.2500000E+00  0.1276756E-14  0.1666667E+00
      1        -57.139582   1.000000
      2        -57.139266   1.000000
      3        -57.111643   1.000000
      4        -57.111349   1.000000
      5        -56.788276   1.000000
      6        -56.787905   1.000000
      7        -56.760146   1.000000
      8        -56.759804   1.000000
      9        -33.558915   1.000000
     10        -33.557933   1.000000
     11        -33.531724   1.000000
     12        -33.530974   1.000000
     13        -33.446532   1.000000
     14        -33.438581   1.000000
     15        -33.419653   1.000000
     16        -33.412520   1.000000
     17        -33.356126   1.000000
     18        -33.355193   1.000000
     19        -33.174497   1.000000
     20        -33.164547   1.000000
     21        -33.145723   1.000000
     22        -33.136946   1.000000
     23        -33.129256   1.000000
     24        -33.128711   1.000000
     25        -33.058403   1.000000