       N       E                     dE             d eps       ncg     rms          rms(c)
DAV:   1     0.962555869775E+03    0.96256E+03   -0.64354E+04  3072   0.908E+02
DAV:   2     0.587786594224E+01   -0.95668E+03   -0.90213E+03  3392   0.267E+02
DAV:   3    -0.100254744276E+03   -0.10613E+03   -0.10330E+03  6144   0.721E+01
DAV:   4    -0.106060039506E+03   -0.58053E+01   -0.58008E+01  3584   0.168E+01
DAV:   5    -0.106397836171E+03   -0.33780E+00   -0.33776E+00  5376   0.320E+00    0.261E+01
DAV:   6    -0.135678644766E+03   -0.29281E+02   -0.82191E+01  4992   0.336E+01    0.627E+01
DAV:   7    -0.971796606170E+02    0.38499E+02   -0.15096E+02  4480   0.304E+01    0.246E+01
DAV:   8    -0.895458057475E+02    0.76339E+01   -0.26990E+01  4416   0.130E+01    0.110E+01
DAV:   9    -0.868199726482E+02    0.27258E+01   -0.28044E+00  4288   0.607E+00    0.513E+00
DAV:  10    -0.862435656281E+02    0.57641E+00   -0.13187E+00  4352   0.352E+00    0.198E+00
DAV:  11    -0.862344104511E+02    0.91552E-02   -0.31292E-01  4352   0.170E+00    0.166E+00
DAV:  12    -0.862096236537E+02    0.24787E-01   -0.77756E-02  4416   0.860E-01    0.708E-01
DAV:  13    -0.862058916411E+02    0.37320E-02   -0.27099E-02  3840   0.363E-01    0.222E-01
DAV:  14    -0.862071281004E+02   -0.12365E-02   -0.39861E-03  4352   0.156E-01    0.168E-01
DAV:  15    -0.862102485911E+02   -0.31205E-02   -0.23539E-03  4096   0.126E-01    0.110E-01
DAV:  16    -0.862110181541E+02   -0.76956E-03   -0.20262E-03  4288   0.917E-02    0.604E-02
DAV:  17    -0.862115625988E+02   -0.54444E-03   -0.26807E-04  3392   0.370E-02    0.251E-02
DAV:  18    -0.862120077088E+02   -0.44511E-03   -0.17336E-04  4352   0.189E-02    0.155E-02
DAV:  19    -0.862123006593E+02   -0.29295E-03   -0.34963E-05  4160   0.985E-03    0.116E-02
DAV:  20    -0.862126817440E+02   -0.38108E-03   -0.21996E-05  4416   0.642E-03    0.614E-03
DAV:  21    -0.862129254725E+02   -0.24373E-03   -0.92111E-06  4032   0.431E-03    0.340E-03
DAV:  22    -0.862130585837E+02   -0.13311E-03   -0.66002E-06  3648   0.272E-03    0.191E-03
DAV:  23    -0.862130865597E+02   -0.27976E-04   -0.15543E-06  3520   0.124E-03    0.738E-04
DAV:  24    -0.862130935995E+02   -0.70399E-05   -0.47303E-07  3264   0.654E-04
   1 F= -.86213094E+02 E0= -.86208418E+02  d E =-.140260E-01
