<?xml version="1.0" encoding="ISO-8859-1"?>
<modeling>
 <generator>
  <i name="program" type="string">vasp </i>
  <i name="version" type="string">6.5.0  </i>
  <i name="subversion" type="string">16Dec24 (build Apr 17 2025 17:55:45) complex                          parallel </i>
  <i name="platform" type="string">LinuxIFC </i>
  <i name="date" type="string">2025 06 10 </i>
  <i name="time" type="string">11:32:27 </i>
 </generator>
 <incar>
  <i type="int" name="ISTART">     0</i>
  <i type="string" name="PREC">N</i>
  <i type="string" name="ALGO">N</i>
  <i type="int" name="ICHARG">     2</i>
  <i type="int" name="NELM">   500</i>
  <i type="int" name="IBRION">    -1</i>
  <i name="EDIFF">      0.00001000</i>
  <i name="EDIFFG">     -0.01000000</i>
  <i type="int" name="NSW">     0</i>
  <i type="int" name="ISIF">     3</i>
  <i name="ENCUT">    520.00000000</i>
  <i type="logical" name="LREAL"> F  </i>
  <i type="int" name="ISMEAR">     1</i>
  <i name="SIGMA">      0.10000000</i>
  <i type="logical" name="LVTOT"> T  </i>
  <i type="logical" name="LVHAR"> T  </i>
 </incar>
 <primitive_cell>
  <structure name="primitive_cell" >
   <crystal>
    <varray name="basis" >
     <v>       5.64528606       0.00000000       0.00000000 </v>
     <v>       0.00000000       8.10998246       0.00000000 </v>
     <v>       0.00000000       0.00000000      19.23285154 </v>
    </varray>
    <i name="volume">    880.54093007 </i>
    <varray name="rec_basis" >
     <v>       0.17713894      -0.00000000      -0.00000000 </v>
     <v>       0.00000000       0.12330483      -0.00000000 </v>
     <v>       0.00000000       0.00000000       0.05199437 </v>
    </varray>
   </crystal>
   <varray name="positions" >
    <v>       0.00019716       0.00061719       0.38995778 </v>
    <v>       0.00019716       0.49938281       0.38995778 </v>
    <v>       0.49980284       0.00061719       0.38995778 </v>
    <v>       0.49980284       0.49938281       0.38995778 </v>
    <v>       0.00019716       0.00061719       0.53660358 </v>
    <v>       0.00019716       0.49938281       0.53660358 </v>
    <v>       0.49980284       0.00061719       0.53660358 </v>
    <v>       0.49980284       0.49938281       0.53660358 </v>
    <v>       0.25000000       0.25000000       0.46328068 </v>
    <v>       0.25000000       0.75000000       0.46328068 </v>
    <v>       0.75000000       0.25000000       0.46328068 </v>
    <v>       0.75000000       0.75000000       0.46328068 </v>
    <v>       0.25000000       0.25000000       0.61004222 </v>
    <v>       0.25000000       0.75000000       0.61004222 </v>
    <v>       0.75000000       0.25000000       0.61004222 </v>
    <v>       0.75000000       0.75000000       0.61004222 </v>
   </varray>
  </structure>
  <varray name="primitive_index" >
   <v type="int" >        1 </v>
   <v type="int" >        2 </v>
   <v type="int" >        3 </v>
   <v type="int" >        4 </v>
   <v type="int" >        5 </v>
   <v type="int" >        6 </v>
   <v type="int" >        7 </v>
   <v type="int" >        8 </v>
   <v type="int" >        9 </v>
   <v type="int" >       10 </v>
   <v type="int" >       11 </v>
   <v type="int" >       12 </v>
   <v type="int" >       13 </v>
   <v type="int" >       14 </v>
   <v type="int" >       15 </v>
   <v type="int" >       16 </v>
  </varray>
 </primitive_cell>
 <kpoints>
  <generation param="Gamma">
   <v type="int" name="divisions">       6        4        1 </v>
   <v name="usershift">      0.00000000       0.00000000       0.00000000 </v>
   <v name="genvec1">      0.16666667       0.00000000       0.00000000 </v>
   <v name="genvec2">      0.00000000       0.25000000       0.00000000 </v>
   <v name="genvec3">      0.00000000       0.00000000       1.00000000 </v>
   <v name="shift">      0.00000000       0.00000000       0.00000000 </v>
  </generation>
  <varray name="kpointlist" >
   <v>       0.00000000       0.00000000       0.00000000 </v>
   <v>       0.16666667       0.00000000       0.00000000 </v>
   <v>       0.33333333       0.00000000       0.00000000 </v>
   <v>       0.50000000       0.00000000       0.00000000 </v>
   <v>       0.00000000       0.25000000       0.00000000 </v>
   <v>       0.16666667       0.25000000       0.00000000 </v>
   <v>       0.33333333       0.25000000       0.00000000 </v>
   <v>       0.50000000       0.25000000       0.00000000 </v>
   <v>       0.00000000       0.50000000       0.00000000 </v>
   <v>       0.16666667       0.50000000       0.00000000 </v>
   <v>       0.33333333       0.50000000       0.00000000 </v>
   <v>       0.50000000       0.50000000       0.00000000 </v>
  </varray>
  <varray name="weights" >
   <v>       0.04166667 </v>
   <v>       0.08333333 </v>
   <v>       0.08333333 </v>
   <v>       0.04166667 </v>
   <v>       0.08333333 </v>
   <v>       0.16666667 </v>
   <v>       0.16666667 </v>
   <v>       0.08333333 </v>
   <v>       0.04166667 </v>
   <v>       0.08333333 </v>
   <v>       0.08333333 </v>
   <v>       0.04166667 </v>
  </varray>
 </kpoints>
 <parameters>
  <separator name="general" >
   <i type="string" name="SYSTEM">unknown system</i>
   <i type="logical" name="LCOMPAT"> F  </i>
  </separator>
  <separator name="electronic" >
   <i type="string" name="PREC">n</i>
   <i name="ENMAX">    520.00000000</i>
   <i name="ENAUG">    490.69000000</i>
   <i name="EDIFF">      0.00001000</i>
   <i type="int" name="IALGO">    38</i>
   <i type="int" name="IWAVPR">    10</i>
   <i type="int" name="NBANDS">   128</i>
   <i type="int" name="NBANDSLOW">    -1</i>
   <i type="int" name="NBANDSHIGH">    -1</i>
   <i name="NELECT">    130.00000000</i>
   <i type="int" name="TURBO">     0</i>
   <i type="int" name="IRESTART">     0</i>
   <i type="int" name="NREBOOT">     0</i>
   <i type="int" name="NMIN">     0</i>
   <i name="EREF">      0.00000000</i>
   <separator name="electronic smearing" >
    <i type="int" name="ISMEAR">     1</i>
    <i name="SIGMA">      0.10000000</i>
    <i name="KSPACING">      0.50000000</i>
    <i type="logical" name="KGAMMA"> T  </i>
    <i type="logical" name="KBLOWUP"> T  </i>
   </separator>
   <separator name="electronic projectors" >
    <i type="logical" name="LREAL"> F  </i>
    <v name="ROPT">      0.00000000      0.00000000      0.00000000</v>
    <i type="int" name="LMAXPAW">  -100</i>
    <i type="int" name="LMAXMIX">     2</i>
    <i type="logical" name="NLSPLINE"> F  </i>
   </separator>
   <separator name="electronic startup" >
    <i type="int" name="ISTART">     0</i>
    <i type="int" name="ICHARG">     2</i>
    <i type="int" name="INIWAV">     1</i>
   </separator>
   <separator name="electronic spin" >
    <i type="int" name="ISPIN">     1</i>
    <i type="logical" name="LNONCOLLINEAR"> F  </i>
    <v name="MAGMOM">      1.00000000      1.00000000      1.00000000      1.00000000      1.00000000      1.00000000      1.00000000      1.00000000      1.00000000      1.00000000      1.00000000      1.00000000      1.00000000      1.00000000      1.00000000      1.00000000</v>
    <i name="NUPDOWN">     -1.00000000</i>
    <i type="logical" name="LSORBIT"> F  </i>
    <v name="SAXIS">      0.00000000      0.00000000      1.00000000</v>
    <i type="logical" name="LSPIRAL"> F  </i>
    <v name="QSPIRAL">      0.00000000      0.00000000      0.00000000</v>
    <i type="logical" name="LZEROZ"> F  </i>
   </separator>
   <separator name="electronic exchange-correlation" >
    <i type="logical" name="LASPH"> F  </i>
   </separator>
   <separator name="electronic convergence" >
    <i type="int" name="NELM">   500</i>
    <i type="int" name="NELMDL">    -5</i>
    <i type="int" name="NELMIN">     2</i>
    <i name="ENINI">    520.00000000</i>
    <separator name="electronic convergence detail" >
     <i type="logical" name="LDIAG"> T  </i>
     <i type="logical" name="LSUBROT"> F  </i>
     <i name="WEIMIN">      0.00000000</i>
     <i name="EBREAK">      0.00000002</i>
     <i name="DEPER">      0.30000000</i>
     <i type="int" name="NRMM">     4</i>
     <i name="TIME">      0.40000000</i>
    </separator>
   </separator>
   <separator name="electronic mixer" >
    <i name="AMIX">      0.40000000</i>
    <i name="BMIX">      1.00000000</i>
    <i name="AMIN">      0.10000000</i>
    <i name="AMIX_MAG">      1.60000000</i>
    <i name="BMIX_MAG">      1.00000000</i>
    <separator name="electronic mixer details" >
     <i type="int" name="IMIX">     4</i>
     <i type="logical" name="MIXFIRST"> F  </i>
     <i type="int" name="MAXMIX">   -45</i>
     <i name="WC">    100.00000000</i>
     <i type="int" name="INIMIX">     1</i>
     <i type="int" name="MIXPRE">     1</i>
     <i type="int" name="MREMOVE">     5</i>
    </separator>
   </separator>
   <separator name="electronic dipolcorrection" >
    <i type="logical" name="LDIPOL"> F  </i>
    <i type="logical" name="LMONO"> F  </i>
    <i type="int" name="IDIPOL">     0</i>
    <i name="EPSILON">      1.00000000</i>
    <v name="DIPOL">   -100.00000000   -100.00000000   -100.00000000</v>
    <i name="EFIELD">      0.00000000</i>
    <i type="logical" name="LVACPOTAV"> F  </i>
   </separator>
  </separator>
  <separator name="grids" >
   <i type="int" name="NGX">    32</i>
   <i type="int" name="NGY">    48</i>
   <i type="int" name="NGZ">   108</i>
   <i type="int" name="NGXF">    64</i>
   <i type="int" name="NGYF">    96</i>
   <i type="int" name="NGZF">   216</i>
   <i type="logical" name="ADDGRID"> F  </i>
  </separator>
  <separator name="ionic" >
   <i type="int" name="NSW">     0</i>
   <i type="int" name="IBRION">    -1</i>
   <i type="int" name="MDALGO">     0</i>
   <i type="int" name="ISIF">     3</i>
   <i name="PSTRESS">      0.00000000</i>
   <i name="EDIFFG">     -0.01000000</i>
   <i type="int" name="NFREE">     0</i>
   <i name="POTIM">      0.50000000</i>
   <i name="SMASS">     -3.00000000</i>
   <i name="SCALEE">      1.00000000</i>
  </separator>
  <separator name="ionic md" >
   <i name="TEBEG">      0.00010000</i>
   <i name="TEEND">      0.00010000</i>
   <i type="int" name="NBLOCK">     1</i>
   <i type="int" name="KBLOCK">     1</i>
   <i type="int" name="NPACO">   256</i>
   <i name="APACO">     10.00000000</i>
  </separator>
  <separator name="symmetry" >
   <i type="int" name="ISYM">     2</i>
   <i name="SYMPREC">      0.00001000</i>
  </separator>
  <separator name="dos" >
   <i type="int" name="LORBIT">     0</i>
   <v name="RWIGS">     -1.00000000     -1.00000000     -1.00000000</v>
   <i type="int" name="NEDOS">   301</i>
   <i name="EMIN">     10.00000000</i>
   <i name="EMAX">    -10.00000000</i>
   <i name="EFERMI">      0.00000000</i>
  </separator>
  <separator name="writing" >
   <i type="int" name="NWRITE">     2</i>
   <i type="logical" name="LWAVE"> T  </i>
   <i type="logical" name="LDOWNSAMPLE"> F  </i>
   <i type="logical" name="LCHARG"> T  </i>
   <i type="logical" name="LPARD"> F  </i>
   <i type="logical" name="LVTOT"> F  </i>
   <i type="logical" name="LVHAR"> T  </i>
   <i type="logical" name="LELF"> F  </i>
   <i type="logical" name="LOPTICS"> F  </i>
   <v name="STM">      0.00000000      0.00000000      0.00000000      0.00000000      0.00000000      0.00000000      0.00000000</v>
  </separator>
  <separator name="performance" >
   <i type="int" name="NPAR">    64</i>
   <i type="int" name="NSIM">     4</i>
   <i type="int" name="NBLK">    -1</i>
   <i type="logical" name="LPLANE"> T  </i>
   <i type="logical" name="LSCALAPACK"> T  </i>
   <i type="logical" name="LSCAAWARE"> F  </i>
   <i type="logical" name="LSCALU"> F  </i>
   <i type="logical" name="LASYNC"> F  </i>
   <i type="logical" name="LORBITALREAL"> F  </i>
  </separator>
  <separator name="miscellaneous" >
   <i type="int" name="IDIOT">     3</i>
   <i type="int" name="PHON_NSTRUCT">    -1</i>
   <i type="logical" name="LMUSIC"> F  </i>
   <v name="POMASS">     47.88000000     69.72300000     26.98100000</v>
   <v name="DARWINR">      0.00000000      0.00000000      0.00000000</v>
   <v name="DARWINV">      1.00000000      1.00000000      1.00000000</v>
   <i type="logical" name="LCORR"> T  </i>
  </separator>
  <i type="logical" name="GGA_COMPAT"> T  </i>
  <i type="logical" name="LBERRY"> F  </i>
  <i type="int" name="ICORELEVEL">     0</i>
  <i type="logical" name="LDAU"> F  </i>
  <i type="int" name="I_CONSTRAINED_M">     0</i>
  <separator name="electronic exchange-correlation" >
   <i type="string" name="GGA    ">PE</i>
   <i type="string" name="XC_C">1</i>
   <i type="int" name="VOSKOWN">     0</i>
   <i type="logical" name="LHFCALC"> F  </i>
   <i type="string" name="PRECFOCK"></i>
   <i type="logical" name="LSYMGRAD"> F  </i>
   <i type="logical" name="LHFONE"> F  </i>
   <i type="logical" name="LRHFCALC"> F  </i>
   <i type="logical" name="LTHOMAS"> F  </i>
   <i type="logical" name="LMODELHF"> F  </i>
   <i type="logical" name="LFOCKACE"> F  </i>
   <i name="ENCUT4O">     -1.00000000</i>
   <i type="int" name="EXXOEP">     0</i>
   <i type="int" name="FOURORBIT">     0</i>
   <i name="AEXX">      0.00000000</i>
   <i name="HFALPHA">      0.00000000</i>
   <i name="MCALPHA">      0.00000000</i>
   <i name="ALDAX">      1.00000000</i>
   <i name="AGGAX">      1.00000000</i>
   <i name="AMGGAX">      1.00000000</i>
   <i name="ALDAC">      1.00000000</i>
   <i name="AGGAC">      1.00000000</i>
   <i name="AMGGAC">      1.00000000</i>
   <i type="int" name="NKREDX">     1</i>
   <i type="int" name="NKREDY">     1</i>
   <i type="int" name="NKREDZ">     1</i>
   <i type="logical" name="SHIFTRED"> F  </i>
   <i type="logical" name="ODDONLY"> F  </i>
   <i type="logical" name="EVENONLY"> F  </i>
   <i type="int" name="LMAXFOCK">     0</i>
   <i type="int" name="NMAXFOCKAE">     0</i>
   <i type="logical" name="LFOCKAEDFT"> F  </i>
   <i name="HFSCREEN">      0.00000000</i>
   <i name="HFSCREENC">      0.00000000</i>
   <i type="int" name="NBANDSGWLOW">     0</i>
  </separator>
  <separator name="vdW DFT" >
   <i type="logical" name="LUSE_VDW"> F  </i>
   <i type="int" name="IVDW_NL">    -1</i>
   <i type="logical" name="LSPIN_VDW"> F  </i>
   <i name="ZAB_VDW">     -0.84910000</i>
   <i name="GAMMA_VDW">      1.39626340</i>
   <i name="ALPHA_VDW">      0.00000000</i>
   <i name="PARAM1">      0.12340000</i>
   <i name="PARAM2">      1.00000000</i>
   <i name="BPARAM">      6.30000000</i>
   <i name="CPARAM">      0.00930000</i>
  </separator>
  <separator name="model GW" >
   <i type="int" name="MODEL_GW">     0</i>
   <i name="MODEL_EPS0">     33.02028488</i>
   <i name="MODEL_ALPHA">      1.00000000</i>
  </separator>
  <separator name="linear response parameters" >
   <i type="logical" name="LEPSILON"> F  </i>
   <i type="logical" name="LRPA"> F  </i>
   <i type="logical" name="LNABLA"> F  </i>
   <i type="logical" name="LVEL"> F  </i>
   <i name="CSHIFT">      0.10000000</i>
   <i name="OMEGAMAX">     -1.00000000</i>
   <i name="DEG_THRESHOLD">      0.00200000</i>
   <i name="RTIME">     -0.10000000</i>
   <i name="WPLASMAI">      0.00000000</i>
   <v name="DFIELD">      0.00000000      0.00000000      0.00000000</v>
   <v name="WPLASMA">      0.00000000      0.00000000      0.00000000      0.00000000      0.00000000      0.00000000      0.00000000      0.00000000      0.00000000</v>
  </separator>
  <separator name="orbital magnetization" >
   <i type="logical" name="NUCIND"> F  </i>
   <v name="MAGPOS">      0.00000000      0.00000000      0.00000000</v>
   <i type="logical" name="LNICSALL"> T  </i>
   <i type="logical" name="ORBITALMAG"> F  </i>
   <i type="logical" name="LMAGBLOCH"> F  </i>
   <i type="logical" name="LCHIMAG"> F  </i>
   <i type="logical" name="LGAUGE"> T  </i>
   <i type="int" name="MAGATOM">     0</i>
   <v name="MAGDIPOL">      0.00000000      0.00000000      0.00000000</v>
   <v name="AVECCONST">      0.00000000      0.00000000      0.00000000</v>
  </separator>
  <separator name="response functions" >
   <i type="logical" name="LALL_IN_ONE"> F  </i>
   <i type="int" name="IALL_IN_ONE">    -1</i>
   <i type="int" name="NBANDS_WAVE">    -1</i>
   <i type="logical" name="LFINITE_TEMPERATURE"> F  </i>
   <i type="logical" name="LADDER"> F  </i>
   <i type="logical" name="LRPAFORCE"> F  </i>
   <i type="logical" name="LFXC"> F  </i>
   <i type="logical" name="LHARTREE"> T  </i>
   <i type="int" name="IBSE">     2</i>
   <v type="int" name="KPOINT">    -1     0     0     0</v>
   <i type="logical" name="LTCTC"> F  </i>
   <i type="logical" name="LTCTE"> F  </i>
   <i type="logical" name="LTETE"> F  </i>
   <i type="logical" name="LTRIPLET"> F  </i>
   <i type="logical" name="LFXCEPS"> F  </i>
   <i type="logical" name="LFXHEG"> F  </i>
   <i type="int" name="NATURALO">     2</i>
   <i type="logical" name="LHOLEGF"> F  </i>
   <i type="logical" name="L2ORDER"> F  </i>
   <i type="logical" name="LDMP1"> F  </i>
   <i type="logical" name="LMP2LT"> F  </i>
   <i type="logical" name="LSMP2LT"> F  </i>
   <i type="logical" name="LGWLF"> F  </i>
   <i name="ENCUTGW">     -1.60000002</i>
   <i name="ENCUTGWSOFT">     -1.60000002</i>
   <i name="ENCUTLF">     -1.00000000</i>
   <i type="logical" name="ESF_SPLINES"> F  </i>
   <i name="ESF_CONV">      0.01000000</i>
   <i type="int" name="ESF_NINTER">    15</i>
   <i type="int" name="LMAXMP2">    -1</i>
   <i name="SCISSOR">      0.00000000</i>
   <i type="int" name="NOMEGA">     0</i>
   <i type="int" name="NOMEGAR">     0</i>
   <i type="int" name="NBANDSGW">    -1</i>
   <i type="int" name="NBANDSO">    -1</i>
   <i type="int" name="NBANDSV">    -1</i>
   <i type="int" name="NELMGW">     1</i>
   <i type="int" name="NELMHF">     1</i>
   <i type="int" name="DIM">     3</i>
   <i type="int" name="IESPILON">     4</i>
   <i type="int" name="ANTIRES">     0</i>
   <i name="OMEGAMAX">    -30.00000000</i>
   <i name="OMEGAMIN">    -30.00000000</i>
   <i name="OMEGATL">   -200.00000000</i>
   <i type="int" name="OMEGAGRID">     0</i>
   <i name="CSHIFT">     -0.10000000</i>
   <i type="logical" name="LSELFENERGY"> F  </i>
   <i type="logical" name="LSPECTRAL"> F  </i>
   <i type="logical" name="LSPECTRALGW"> F  </i>
   <i type="logical" name="LSINGLES"> F  </i>
   <i type="logical" name="LFERMIGW"> F  </i>
   <i type="logical" name="ODDONLYGW"> F  </i>
   <i type="logical" name="EVENONLYGW"> F  </i>
   <i type="int" name="NKREDLFX">     1</i>
   <i type="int" name="NKREDLFY">     1</i>
   <i type="int" name="NKREDLFZ">     1</i>
   <i type="int" name="MAXMEM">  2800</i>
   <i type="int" name="TELESCOPE">     0</i>
   <i type="int" name="NTAUPAR">    -1</i>
   <i type="int" name="NOMEGAPAR">    -1</i>
   <i name="DAMP_NEWTON">      0.80000001</i>
   <i name="LAMBDA">      1.00000000</i>
  </separator>
  <separator name="External order field" >
   <i name="OFIELD_KAPPA">      0.00000000</i>
   <v name="OFIELD_K">      0.00000000      0.00000000      0.00000000</v>
   <i name="OFIELD_Q6_NEAR">      0.00000000</i>
   <i name="OFIELD_Q6_FAR">      0.00000000</i>
   <i name="OFIELD_A">      0.00000000</i>
  </separator>
  <separator name="optional k-points parameters" >
   <i type="int" name="KPOINTS_OPT_MODE">     1</i>
   <i type="logical" name="LKPOINTS_OPT"> F  </i>
  </separator>
 </parameters>
 <atominfo>
  <atoms>      16 </atoms>
  <types>       3 </types>
  <array name="atoms" >
   <dimension dim="1">ion</dimension>
   <field type="string">element</field>
   <field type="int">atomtype</field>
   <set>
    <rc><c>Ti</c><c>   1</c></rc>
    <rc><c>Ti</c><c>   1</c></rc>
    <rc><c>Ti</c><c>   1</c></rc>
    <rc><c>Ti</c><c>   1</c></rc>
    <rc><c>Ti</c><c>   1</c></rc>
    <rc><c>Ti</c><c>   1</c></rc>
    <rc><c>Ti</c><c>   1</c></rc>
    <rc><c>Ti</c><c>   1</c></rc>
    <rc><c>Ga</c><c>   2</c></rc>
    <rc><c>Al</c><c>   3</c></rc>
    <rc><c>Al</c><c>   3</c></rc>
    <rc><c>Al</c><c>   3</c></rc>
    <rc><c>Al</c><c>   3</c></rc>
    <rc><c>Al</c><c>   3</c></rc>
    <rc><c>Al</c><c>   3</c></rc>
    <rc><c>Al</c><c>   3</c></rc>
   </set>
  </array>
  <array name="atomtypes" >
   <dimension dim="1">type</dimension>
   <field type="int">atomspertype</field>
   <field type="string">element</field>
   <field>mass</field>
   <field>valence</field>
   <field type="string">pseudopotential</field>
   <set>
    <rc><c>   8</c><c>Ti</c><c>     47.88000000</c><c>     12.00000000</c><c>  PAW_PBE Ti_sv 26Sep2005               </c></rc>
    <rc><c>   1</c><c>Ga</c><c>     69.72300000</c><c>     13.00000000</c><c>  PAW_PBE Ga_d 06Jul2010                </c></rc>
    <rc><c>   7</c><c>Al</c><c>     26.98100000</c><c>      3.00000000</c><c>  PAW_PBE Al 04Jan2001                  </c></rc>
   </set>
  </array>
 </atominfo>
 <structure name="initialpos" >
  <crystal>
   <varray name="basis" >
    <v>       5.64528606       0.00000000       0.00000000 </v>
    <v>       0.00000000       8.10998246       0.00000000 </v>
    <v>       0.00000000       0.00000000      19.23285154 </v>
   </varray>
   <i name="volume">    880.54093007 </i>
   <varray name="rec_basis" >
    <v>       0.17713894      -0.00000000      -0.00000000 </v>
    <v>       0.00000000       0.12330483      -0.00000000 </v>
    <v>       0.00000000       0.00000000       0.05199437 </v>
   </varray>
  </crystal>
  <varray name="positions" >
   <v>       0.00019716       0.00061719       0.38995778 </v>
   <v>       0.00019716       0.49938281       0.38995778 </v>
   <v>       0.49980284       0.00061719       0.38995778 </v>
   <v>       0.49980284       0.49938281       0.38995778 </v>
   <v>       0.00019716       0.00061719       0.53660358 </v>
   <v>       0.00019716       0.49938281       0.53660358 </v>
   <v>       0.49980284       0.00061719       0.53660358 </v>
   <v>       0.49980284       0.49938281       0.53660358 </v>
   <v>       0.25000000       0.25000000       0.46328068 </v>
   <v>       0.25000000       0.75000000       0.46328068 </v>
   <v>       0.75000000       0.25000000       0.46328068 </v>
   <v>       0.75000000       0.75000000       0.46328068 </v>
   <v>       0.25000000       0.25000000       0.61004222 </v>
   <v>       0.25000000       0.75000000       0.61004222 </v>
   <v>       0.75000000       0.25000000       0.61004222 </v>
   <v>       0.75000000       0.75000000       0.61004222 </v>
  </varray>
 </structure>
 <calculation>
  <scstep>
   <time name="dav">    2.85    2.85</time>
   <time name="total">    2.88    2.88</time>
   <energy>
    <i name="alphaZ">    112.03316576 </i>
    <i name="ewald">  19091.97182988 </i>
    <i name="hartreedc"> -32058.72847822 </i>
    <i name="XCdc">    349.84196346 </i>
    <i name="pawpsdc">  12183.07835080 </i>
    <i name="pawaedc"> -12136.27052386 </i>
    <i name="eentropy">     -0.00251208 </i>
    <i name="bandstr">  -1807.64423091 </i>
    <i name="atom">  15228.27630495 </i>
    <i name="e_fr_energy">    962.55586978 </i>
    <i name="e_wo_entrp">    962.55838186 </i>
    <i name="e_0_energy">    962.55670714 </i>
   </energy>
  </scstep>
  <scstep>
   <time name="dav">    3.18    3.18</time>
   <time name="total">    3.18    3.18</time>
   <energy>
    <i name="e_fr_energy">      5.87786594 </i>
    <i name="e_wo_entrp">      5.88527421 </i>
    <i name="e_0_energy">      5.88033536 </i>
   </energy>
  </scstep>
  <scstep>
   <time name="dav">    6.71    6.71</time>
   <time name="total">    6.71    6.72</time>
   <energy>
    <i name="e_fr_energy">   -100.25474428 </i>
    <i name="e_wo_entrp">   -100.25010343 </i>
    <i name="e_0_energy">   -100.25319733 </i>
   </energy>
  </scstep>
  <scstep>
   <time name="dav">    3.35    3.36</time>
   <time name="total">    3.36    3.36</time>
   <energy>
    <i name="e_fr_energy">   -106.06003951 </i>
    <i name="e_wo_entrp">   -106.05196553 </i>
    <i name="e_0_energy">   -106.05734818 </i>
   </energy>
  </scstep>
  <scstep>
   <time name="dav">    5.63    5.63</time>
   <time name="total">    5.68    5.68</time>
   <energy>
    <i name="e_fr_energy">   -106.39783617 </i>
    <i name="e_wo_entrp">   -106.38966273 </i>
    <i name="e_0_energy">   -106.39511169 </i>
   </energy>
  </scstep>
  <scstep>
   <time name="dav">    5.25    5.25</time>
   <time name="total">    5.32    5.32</time>
   <energy>
    <i name="e_fr_energy">   -135.67864477 </i>
    <i name="e_wo_entrp">   -135.67117315 </i>
    <i name="e_0_energy">   -135.67615423 </i>
   </energy>
  </scstep>
  <scstep>
   <time name="dav">    4.63    4.64</time>
   <time name="total">    4.72    4.72</time>
   <energy>
    <i name="e_fr_energy">    -97.17966062 </i>
    <i name="e_wo_entrp">    -97.18536429 </i>
    <i name="e_0_energy">    -97.18156184 </i>
   </energy>
  </scstep>
  <scstep>
   <time name="dav">    4.52    4.52</time>
   <time name="total">    4.61    4.61</time>
   <energy>
    <i name="e_fr_energy">    -89.54580575 </i>
    <i name="e_wo_entrp">    -89.53791557 </i>
    <i name="e_0_energy">    -89.54317569 </i>
   </energy>
  </scstep>
  <scstep>
   <time name="dav">    4.35    4.35</time>
   <time name="total">    4.43    4.43</time>
   <energy>
    <i name="e_fr_energy">    -86.81997265 </i>
    <i name="e_wo_entrp">    -86.80921156 </i>
    <i name="e_0_energy">    -86.81638562 </i>
   </energy>
  </scstep>
  <scstep>
   <time name="dav">    4.41    4.41</time>
   <time name="total">    4.48    4.48</time>
   <energy>
    <i name="e_fr_energy">    -86.24356563 </i>
    <i name="e_wo_entrp">    -86.23455391 </i>
    <i name="e_0_energy">    -86.24056172 </i>
   </energy>
  </scstep>
  <scstep>
   <time name="dav">    4.45    4.45</time>
   <time name="total">    4.53    4.53</time>
   <energy>
    <i name="e_fr_energy">    -86.23441045 </i>
    <i name="e_wo_entrp">    -86.22649969 </i>
    <i name="e_0_energy">    -86.23177353 </i>
   </energy>
  </scstep>
  <scstep>
   <time name="dav">    4.54    4.54</time>
   <time name="total">    4.62    4.62</time>
   <energy>
    <i name="e_fr_energy">    -86.20962365 </i>
    <i name="e_wo_entrp">    -86.19589575 </i>
    <i name="e_0_energy">    -86.20504769 </i>
   </energy>
  </scstep>
  <scstep>
   <time name="dav">    3.73    3.73</time>
   <time name="total">    3.81    3.81</time>
   <energy>
    <i name="e_fr_energy">    -86.20589164 </i>
    <i name="e_wo_entrp">    -86.19454075 </i>
    <i name="e_0_energy">    -86.20210801 </i>
   </energy>
  </scstep>
  <scstep>
   <time name="dav">    4.38    4.38</time>
   <time name="total">    4.46    4.46</time>
   <energy>
    <i name="e_fr_energy">    -86.20712810 </i>
    <i name="e_wo_entrp">    -86.19460141 </i>
    <i name="e_0_energy">    -86.20295254 </i>
   </energy>
  </scstep>
  <scstep>
   <time name="dav">    4.03    4.04</time>
   <time name="total">    4.11    4.12</time>
   <energy>
    <i name="e_fr_energy">    -86.21024859 </i>
    <i name="e_wo_entrp">    -86.19732272 </i>
    <i name="e_0_energy">    -86.20593997 </i>
   </energy>
  </scstep>
  <scstep>
   <time name="dav">    4.34    4.34</time>
   <time name="total">    4.42    4.42</time>
   <energy>
    <i name="e_fr_energy">    -86.21101815 </i>
    <i name="e_wo_entrp">    -86.19731467 </i>
    <i name="e_0_energy">    -86.20645033 </i>
   </energy>
  </scstep>
  <scstep>
   <time name="dav">    3.23    3.23</time>
   <time name="total">    3.31    3.31</time>
   <energy>
    <i name="e_fr_energy">    -86.21156260 </i>
    <i name="e_wo_entrp">    -86.19766333 </i>
    <i name="e_0_energy">    -86.20692951 </i>
   </energy>
  </scstep>
  <scstep>
   <time name="dav">    4.59    4.60</time>
   <time name="total">    4.68    4.68</time>
   <energy>
    <i name="e_fr_energy">    -86.21200771 </i>
    <i name="e_wo_entrp">    -86.19804216 </i>
    <i name="e_0_energy">    -86.20735253 </i>
   </energy>
  </scstep>
  <scstep>
   <time name="dav">    4.31    4.31</time>
   <time name="total">    4.39    4.39</time>
   <energy>
    <i name="e_fr_energy">    -86.21230066 </i>
    <i name="e_wo_entrp">    -86.19828079 </i>
    <i name="e_0_energy">    -86.20762737 </i>
   </energy>
  </scstep>
  <scstep>
   <time name="dav">    4.65    4.65</time>
   <time name="total">    4.73    4.73</time>
   <energy>
    <i name="e_fr_energy">    -86.21268174 </i>
    <i name="e_wo_entrp">    -86.19866569 </i>
    <i name="e_0_energy">    -86.20800973 </i>
   </energy>
  </scstep>
  <scstep>
   <time name="dav">    4.22    4.22</time>
   <time name="total">    4.30    4.30</time>
   <energy>
    <i name="e_fr_energy">    -86.21292547 </i>
    <i name="e_wo_entrp">    -86.19890136 </i>
    <i name="e_0_energy">    -86.20825077 </i>
   </energy>
  </scstep>
  <scstep>
   <time name="dav">    3.86    3.86</time>
   <time name="total">    3.94    3.94</time>
   <energy>
    <i name="e_fr_energy">    -86.21305858 </i>
    <i name="e_wo_entrp">    -86.19903238 </i>
    <i name="e_0_energy">    -86.20838318 </i>
   </energy>
  </scstep>
  <scstep>
   <time name="dav">    3.94    3.94</time>
   <time name="total">    4.02    4.02</time>
   <energy>
    <i name="e_fr_energy">    -86.21308656 </i>
    <i name="e_wo_entrp">    -86.19906098 </i>
    <i name="e_0_energy">    -86.20841137 </i>
   </energy>
  </scstep>
  <scstep>
   <time name="dav">    3.53    3.53</time>
   <time name="total">    3.55    3.55</time>
   <energy>
    <i name="alphaZ">    112.03316576 </i>
    <i name="ewald">  19091.97182988 </i>
    <i name="hartreedc"> -32146.20924558 </i>
    <i name="XCdc">    343.06624513 </i>
    <i name="pawpsdc">  14072.75561124 </i>
    <i name="pawaedc"> -13996.66846356 </i>
    <i name="eentropy">     -0.01402597 </i>
    <i name="bandstr">  -2791.42451544 </i>
    <i name="atom">  15228.27630495 </i>
    <i name="e_fr_energy">    -86.21309360 </i>
    <i name="e_wo_entrp">    -86.19906763 </i>
    <i name="e_0_energy">    -86.20841828 </i>
   </energy>
  </scstep>
  <structure>
   <crystal>
    <varray name="basis" >
     <v>       5.64528606       0.00000000       0.00000000 </v>
     <v>       0.00000000       8.10998246       0.00000000 </v>
     <v>       0.00000000       0.00000000      19.23285154 </v>
    </varray>
    <i name="volume">    880.54093007 </i>
    <varray name="rec_basis" >
     <v>       0.17713894      -0.00000000      -0.00000000 </v>
     <v>       0.00000000       0.12330483      -0.00000000 </v>
     <v>       0.00000000       0.00000000       0.05199437 </v>
    </varray>
   </crystal>
   <varray name="positions" >
    <v>       0.00019716       0.00061719       0.38995778 </v>
    <v>       0.00019716       0.49938281       0.38995778 </v>
    <v>       0.49980284       0.00061719       0.38995778 </v>
    <v>       0.49980284       0.49938281       0.38995778 </v>
    <v>       0.00019716       0.00061719       0.53660358 </v>
    <v>       0.00019716       0.49938281       0.53660358 </v>
    <v>       0.49980284       0.00061719       0.53660358 </v>
    <v>       0.49980284       0.49938281       0.53660358 </v>
    <v>       0.25000000       0.25000000       0.46328068 </v>
    <v>       0.25000000       0.75000000       0.46328068 </v>
    <v>       0.75000000       0.25000000       0.46328068 </v>
    <v>       0.75000000       0.75000000       0.46328068 </v>
    <v>       0.25000000       0.25000000       0.61004222 </v>
    <v>       0.25000000       0.75000000       0.61004222 </v>
    <v>       0.75000000       0.25000000       0.61004222 </v>
    <v>       0.75000000       0.75000000       0.61004222 </v>
   </varray>
  </structure>
  <varray name="forces" >
   <v>       0.05934362       0.03878181       0.50754073 </v>
   <v>       0.05934362      -0.03878181       0.50754073 </v>
   <v>      -0.05934362       0.03878181       0.50754073 </v>
   <v>      -0.05934362      -0.03878181       0.50754073 </v>
   <v>      -0.00731585      -0.02740137       0.14145701 </v>
   <v>      -0.00731585       0.02740137       0.14145701 </v>
   <v>       0.00731585      -0.02740137       0.14145701 </v>
   <v>       0.00731585       0.02740137       0.14145701 </v>
   <v>      -0.00000000      -0.00000000      -0.39289975 </v>
   <v>      -0.00000000      -0.00000000      -0.28898066 </v>
   <v>      -0.00000000      -0.00000000      -0.28385968 </v>
   <v>      -0.00000000      -0.00000000      -0.28639036 </v>
   <v>      -0.00000000      -0.00000000      -0.29551705 </v>
   <v>      -0.00000000      -0.00000000      -0.34872296 </v>
   <v>      -0.00000000      -0.00000000      -0.32779280 </v>
   <v>      -0.00000000      -0.00000000      -0.37182767 </v>
  </varray>
  <varray name="stress" >
   <v>     -14.33424342      -0.00000000      -0.00000000 </v>
   <v>      -0.00000000     -30.56140205      -0.00000000 </v>
   <v>      -0.00000000      -0.00000000     -10.73374341 </v>
  </varray>
  <energy>
   <i name="e_fr_energy">    -86.21309360 </i>
   <i name="e_wo_entrp">    -86.19906763 </i>
   <i name="e_0_energy">    -86.20841828 </i>
  </energy>
  <time name="totalsc">  111.41  111.42</time>
  <eigenvalues>
   <array>
    <dimension dim="1">band</dimension>
    <dimension dim="2">kpoint</dimension>
    <dimension dim="3">spin</dimension>
    <field>eigene</field>
    <field>occ</field>
    <set>
     <set comment="spin 1">
      <set comment="kpoint 1">
       <r>  -57.1535    1.0000 </r>
       <r>  -57.1531    1.0000 </r>
       <r>  -57.0977    1.0000 </r>
       <r>  -57.0973    1.0000 </r>
       <r>  -56.8023    1.0000 </r>
       <r>  -56.8018    1.0000 </r>
       <r>  -56.7461    1.0000 </r>
       <r>  -56.7456    1.0000 </r>
       <r>  -33.5729    1.0000 </r>
       <r>  -33.5714    1.0000 </r>
       <r>  -33.5182    1.0000 </r>
       <r>  -33.5174    1.0000 </r>
       <r>  -33.4704    1.0000 </r>
       <r>  -33.4676    1.0000 </r>
       <r>  -33.4586    1.0000 </r>
       <r>  -33.4480    1.0000 </r>
       <r>  -33.4076    1.0000 </r>
       <r>  -33.3981    1.0000 </r>
       <r>  -33.1910    1.0000 </r>
       <r>  -33.1762    1.0000 </r>
       <r>  -33.1698    1.0000 </r>
       <r>  -33.1677    1.0000 </r>
       <r>  -33.1330    1.0000 </r>
       <r>  -33.1214    1.0000 </r>
       <r>  -33.0342    1.0000 </r>
       <r>  -33.0328    1.0000 </r>
       <r>  -33.0134    1.0000 </r>
       <r>  -33.0130    1.0000 </r>
       <r>  -32.9835    1.0000 </r>
       <r>  -32.9826    1.0000 </r>
       <r>  -32.7124    1.0000 </r>
       <r>  -32.7118    1.0000 </r>
       <r>  -14.4633    1.0000 </r>
       <r>  -14.4558    1.0000 </r>
       <r>  -14.4506    1.0000 </r>
       <r>  -14.4425    1.0000 </r>
       <r>  -14.4110    1.0000 </r>
       <r>   -8.4630    1.0000 </r>
       <r>   -7.1253    1.0000 </r>
       <r>   -6.0817    1.0000 </r>
       <r>   -5.3607    1.0000 </r>
       <r>   -4.4919    1.0000 </r>
       <r>   -4.4167    1.0000 </r>
       <r>   -4.0799    1.0000 </r>
       <r>   -3.8098    1.0000 </r>
       <r>   -3.1390    1.0000 </r>
       <r>   -2.7361    1.0000 </r>
       <r>   -2.6915    1.0000 </r>
       <r>   -2.3866    1.0000 </r>
       <r>   -2.2400    1.0000 </r>
       <r>   -2.1704    1.0000 </r>
       <r>   -1.7458    1.0000 </r>
       <r>   -1.7110    1.0000 </r>
       <r>   -1.4405    1.0000 </r>
       <r>   -1.4269    1.0000 </r>
       <r>   -1.3155    1.0000 </r>
       <r>   -1.3144    1.0000 </r>
       <r>   -1.0909    1.0000 </r>
       <r>   -0.7619    1.0000 </r>
       <r>   -0.5675    1.0000 </r>
       <r>   -0.4844    1.0000 </r>
       <r>   -0.4761    1.0000 </r>
       <r>   -0.3307    1.0006 </r>
       <r>   -0.2978    1.0026 </r>
       <r>   -0.2048    1.0325 </r>
       <r>   -0.1439    0.9817 </r>
       <r>   -0.1017    0.7750 </r>
       <r>    0.1565   -0.0035 </r>
       <r>    0.1631   -0.0027 </r>
       <r>    0.2283   -0.0001 </r>
       <r>    0.6202   -0.0000 </r>
       <r>    0.6217   -0.0000 </r>
       <r>    0.7801   -0.0000 </r>
       <r>    0.8312   -0.0000 </r>
       <r>    1.0024   -0.0000 </r>
       <r>    1.1393   -0.0000 </r>
       <r>    1.1540   -0.0000 </r>
       <r>    1.4023   -0.0000 </r>
       <r>    1.4235   -0.0000 </r>
       <r>    1.4710   -0.0000 </r>
       <r>    1.5300   -0.0000 </r>
       <r>    1.6781   -0.0000 </r>
       <r>    1.7396   -0.0000 </r>
       <r>    1.7925   -0.0000 </r>
       <r>    1.7991   -0.0000 </r>
       <r>    1.8005   -0.0000 </r>
       <r>    1.8308   -0.0000 </r>
       <r>    2.0526    0.0000 </r>
       <r>    2.0527    0.0000 </r>
       <r>    2.0699    0.0000 </r>
       <r>    2.2551    0.0000 </r>
       <r>    2.2628    0.0000 </r>
       <r>    2.5227    0.0000 </r>
       <r>    2.5817    0.0000 </r>
       <r>    2.6067    0.0000 </r>
       <r>    2.7446    0.0000 </r>
       <r>    3.1787    0.0000 </r>
       <r>    3.2425    0.0000 </r>
       <r>    3.4467    0.0000 </r>
       <r>    3.8381    0.0000 </r>
       <r>    3.8655    0.0000 </r>
       <r>    4.1601    0.0000 </r>
       <r>    4.2514    0.0000 </r>
       <r>    4.2762    0.0000 </r>
       <r>    4.5532    0.0000 </r>
       <r>    4.6034    0.0000 </r>
       <r>    4.6579    0.0000 </r>
       <r>    4.9533    0.0000 </r>
       <r>    5.0555    0.0000 </r>
       <r>    5.0632    0.0000 </r>
       <r>    5.4400    0.0000 </r>
       <r>    5.4647    0.0000 </r>
       <r>    5.5363    0.0000 </r>
       <r>    5.7267    0.0000 </r>
       <r>    5.8289    0.0000 </r>
       <r>    5.9920    0.0000 </r>
       <r>    6.0311    0.0000 </r>
       <r>    6.0612    0.0000 </r>
       <r>    6.1108    0.0000 </r>
       <r>    6.1848    0.0000 </r>
       <r>    6.2580    0.0000 </r>
       <r>    6.4733    0.0000 </r>
       <r>    6.5091    0.0000 </r>
       <r>    6.5427    0.0000 </r>
       <r>    6.7597    0.0000 </r>
       <r>    6.7786    0.0000 </r>
       <r>    6.8261    0.0000 </r>
       <r>    6.9776    0.0000 </r>
      </set>
      <set comment="kpoint 2">
       <r>  -57.1498    1.0000 </r>
       <r>  -57.1494    1.0000 </r>
       <r>  -57.1014    1.0000 </r>
       <r>  -57.1010    1.0000 </r>
       <r>  -56.7986    1.0000 </r>
       <r>  -56.7981    1.0000 </r>
       <r>  -56.7499    1.0000 </r>
       <r>  -56.7494    1.0000 </r>
       <r>  -33.5692    1.0000 </r>
       <r>  -33.5677    1.0000 </r>
       <r>  -33.5219    1.0000 </r>
       <r>  -33.5210    1.0000 </r>
       <r>  -33.4589    1.0000 </r>
       <r>  -33.4482    1.0000 </r>
       <r>  -33.4369    1.0000 </r>
       <r>  -33.4345    1.0000 </r>
       <r>  -33.4112    1.0000 </r>
       <r>  -33.4016    1.0000 </r>
       <r>  -33.1871    1.0000 </r>
       <r>  -33.1725    1.0000 </r>
       <r>  -33.1401    1.0000 </r>
       <r>  -33.1381    1.0000 </r>
       <r>  -33.1369    1.0000 </r>
       <r>  -33.1251    1.0000 </r>
       <r>  -33.0448    1.0000 </r>
       <r>  -33.0443    1.0000 </r>
       <r>  -33.0305    1.0000 </r>
       <r>  -33.0292    1.0000 </r>
       <r>  -32.9870    1.0000 </r>
       <r>  -32.9861    1.0000 </r>
       <r>  -32.7438    1.0000 </r>
       <r>  -32.7431    1.0000 </r>
       <r>  -14.4624    1.0000 </r>
       <r>  -14.4559    1.0000 </r>
       <r>  -14.4507    1.0000 </r>
       <r>  -14.4424    1.0000 </r>
       <r>  -14.4109    1.0000 </r>
       <r>   -8.3339    1.0000 </r>
       <r>   -7.0288    1.0000 </r>
       <r>   -5.9719    1.0000 </r>
       <r>   -5.3639    1.0000 </r>
       <r>   -5.1327    1.0000 </r>
       <r>   -4.7268    1.0000 </r>
       <r>   -4.3461    1.0000 </r>
       <r>   -3.4079    1.0000 </r>
       <r>   -3.0081    1.0000 </r>
       <r>   -2.8696    1.0000 </r>
       <r>   -2.6223    1.0000 </r>
       <r>   -2.3272    1.0000 </r>
       <r>   -2.2485    1.0000 </r>
       <r>   -2.0225    1.0000 </r>
       <r>   -1.4710    1.0000 </r>
       <r>   -1.3973    1.0000 </r>
       <r>   -1.3712    1.0000 </r>
       <r>   -1.2526    1.0000 </r>
       <r>   -1.2430    1.0000 </r>
       <r>   -1.2001    1.0000 </r>
       <r>   -0.9976    1.0000 </r>
       <r>   -0.8734    1.0000 </r>
       <r>   -0.6676    1.0000 </r>
       <r>   -0.4617    1.0000 </r>
       <r>   -0.3854    1.0000 </r>
       <r>   -0.2684    1.0076 </r>
       <r>   -0.1694    1.0274 </r>
       <r>   -0.1595    1.0156 </r>
       <r>   -0.1208    0.8902 </r>
       <r>   -0.0847    0.6474 </r>
       <r>   -0.0545    0.3956 </r>
       <r>    0.1257   -0.0100 </r>
       <r>    0.1848   -0.0011 </r>
       <r>    0.1871   -0.0010 </r>
       <r>    0.6383   -0.0000 </r>
       <r>    0.7818   -0.0000 </r>
       <r>    1.0472   -0.0000 </r>
       <r>    1.1020   -0.0000 </r>
       <r>    1.1916   -0.0000 </r>
       <r>    1.2719   -0.0000 </r>
       <r>    1.3335   -0.0000 </r>
       <r>    1.4295   -0.0000 </r>
       <r>    1.4331   -0.0000 </r>
       <r>    1.4690   -0.0000 </r>
       <r>    1.4827   -0.0000 </r>
       <r>    1.5412   -0.0000 </r>
       <r>    1.6453   -0.0000 </r>
       <r>    1.7552   -0.0000 </r>
       <r>    1.7976   -0.0000 </r>
       <r>    1.9195   -0.0000 </r>
       <r>    2.0141    0.0000 </r>
       <r>    2.0843    0.0000 </r>
       <r>    2.1500    0.0000 </r>
       <r>    2.2952    0.0000 </r>
       <r>    2.4279    0.0000 </r>
       <r>    2.4732    0.0000 </r>
       <r>    2.4988    0.0000 </r>
       <r>    2.5783    0.0000 </r>
       <r>    2.6691    0.0000 </r>
       <r>    2.7453    0.0000 </r>
       <r>    3.2864    0.0000 </r>
       <r>    3.4135    0.0000 </r>
       <r>    3.6709    0.0000 </r>
       <r>    3.8265    0.0000 </r>
       <r>    3.9972    0.0000 </r>
       <r>    4.2593    0.0000 </r>
       <r>    4.3363    0.0000 </r>
       <r>    4.5296    0.0000 </r>
       <r>    4.5435    0.0000 </r>
       <r>    4.7715    0.0000 </r>
       <r>    4.8166    0.0000 </r>
       <r>    5.0569    0.0000 </r>
       <r>    5.5434    0.0000 </r>
       <r>    5.5697    0.0000 </r>
       <r>    5.6233    0.0000 </r>
       <r>    5.6992    0.0000 </r>
       <r>    5.7427    0.0000 </r>
       <r>    5.7917    0.0000 </r>
       <r>    5.8726    0.0000 </r>
       <r>    6.0542    0.0000 </r>
       <r>    6.1471    0.0000 </r>
       <r>    6.2639    0.0000 </r>
       <r>    6.2955    0.0000 </r>
       <r>    6.3032    0.0000 </r>
       <r>    6.4174    0.0000 </r>
       <r>    6.5258    0.0000 </r>
       <r>    6.5772    0.0000 </r>
       <r>    6.6482    0.0000 </r>
       <r>    6.7837    0.0000 </r>
       <r>    6.9396    0.0000 </r>
       <r>    6.9876    0.0000 </r>
      </set>
      <set comment="kpoint 3">
       <r>  -57.1396    1.0000 </r>
       <r>  -57.1392    1.0000 </r>
       <r>  -57.1117    1.0000 </r>
       <r>  -57.1113    1.0000 </r>
       <r>  -56.7884    1.0000 </r>
       <r>  -56.7878    1.0000 </r>
       <r>  -56.7602    1.0000 </r>
       <r>  -56.7597    1.0000 </r>
       <r>  -33.5591    1.0000 </r>
       <r>  -33.5577    1.0000 </r>
       <r>  -33.5319    1.0000 </r>
       <r>  -33.5308    1.0000 </r>
       <r>  -33.4482    1.0000 </r>
       <r>  -33.4369    1.0000 </r>
       <r>  -33.4211    1.0000 </r>
       <r>  -33.4110    1.0000 </r>
       <r>  -33.3563    1.0000 </r>
       <r>  -33.3550    1.0000 </r>
       <r>  -33.1765    1.0000 </r>
       <r>  -33.1625    1.0000 </r>
       <r>  -33.1475    1.0000 </r>
       <r>  -33.1351    1.0000 </r>
       <r>  -33.1294    1.0000 </r>
       <r>  -33.1286    1.0000 </r>
       <r>  -33.0587    1.0000 </r>
       <r>  -33.0570    1.0000 </r>
       <r>  -33.0207    1.0000 </r>
       <r>  -33.0194    1.0000 </r>
       <r>  -32.9965    1.0000 </r>
       <r>  -32.9954    1.0000 </r>
       <r>  -32.8290    1.0000 </r>
       <r>  -32.8280    1.0000 </r>
       <r>  -14.4606    1.0000 </r>
       <r>  -14.4561    1.0000 </r>
       <r>  -14.4509    1.0000 </r>
       <r>  -14.4423    1.0000 </r>
       <r>  -14.4107    1.0000 </r>
       <r>   -7.9593    1.0000 </r>
       <r>   -6.7871    1.0000 </r>
       <r>   -6.2948    1.0000 </r>
       <r>   -5.6267    1.0000 </r>
       <r>   -5.4412    1.0000 </r>
       <r>   -4.8704    1.0000 </r>
       <r>   -4.2369    1.0000 </r>
       <r>   -3.9327    1.0000 </r>
       <r>   -3.6276    1.0000 </r>
       <r>   -2.6988    1.0000 </r>
       <r>   -2.6210    1.0000 </r>
       <r>   -1.9101    1.0000 </r>
       <r>   -1.6474    1.0000 </r>
       <r>   -1.3123    1.0000 </r>
       <r>   -1.2814    1.0000 </r>
       <r>   -1.2668    1.0000 </r>
       <r>   -1.2294    1.0000 </r>
       <r>   -1.1816    1.0000 </r>
       <r>   -1.1148    1.0000 </r>
       <r>   -1.1115    1.0000 </r>
       <r>   -0.9992    1.0000 </r>
       <r>   -0.7084    1.0000 </r>
       <r>   -0.5078    1.0000 </r>
       <r>   -0.3757    1.0001 </r>
       <r>   -0.2253    1.0238 </r>
       <r>   -0.1987    1.0343 </r>
       <r>   -0.1524    1.0028 </r>
       <r>   -0.1400    0.9700 </r>
       <r>   -0.0389    0.2724 </r>
       <r>   -0.0111    0.0995 </r>
       <r>   -0.0069    0.0797 </r>
       <r>    0.0186   -0.0030 </r>
       <r>    0.1747   -0.0017 </r>
       <r>    0.2741   -0.0000 </r>
       <r>    0.5876   -0.0000 </r>
       <r>    0.6665   -0.0000 </r>
       <r>    1.0185   -0.0000 </r>
       <r>    1.1182   -0.0000 </r>
       <r>    1.1267   -0.0000 </r>
       <r>    1.1338   -0.0000 </r>
       <r>    1.3099   -0.0000 </r>
       <r>    1.3180   -0.0000 </r>
       <r>    1.3246   -0.0000 </r>
       <r>    1.3409   -0.0000 </r>
       <r>    1.3626   -0.0000 </r>
       <r>    1.3662   -0.0000 </r>
       <r>    1.4182   -0.0000 </r>
       <r>    1.5698   -0.0000 </r>
       <r>    1.5962   -0.0000 </r>
       <r>    1.6950   -0.0000 </r>
       <r>    1.8506   -0.0000 </r>
       <r>    1.9707    0.0000 </r>
       <r>    2.0447    0.0000 </r>
       <r>    2.0669    0.0000 </r>
       <r>    2.2423    0.0000 </r>
       <r>    2.3411    0.0000 </r>
       <r>    2.3713    0.0000 </r>
       <r>    2.5658    0.0000 </r>
       <r>    2.6494    0.0000 </r>
       <r>    3.1961    0.0000 </r>
       <r>    3.4009    0.0000 </r>
       <r>    3.5834    0.0000 </r>
       <r>    3.8198    0.0000 </r>
       <r>    3.9186    0.0000 </r>
       <r>    4.1724    0.0000 </r>
       <r>    4.3363    0.0000 </r>
       <r>    4.3511    0.0000 </r>
       <r>    4.5258    0.0000 </r>
       <r>    4.5510    0.0000 </r>
       <r>    4.7023    0.0000 </r>
       <r>    5.1153    0.0000 </r>
       <r>    5.1210    0.0000 </r>
       <r>    5.2850    0.0000 </r>
       <r>    5.3570    0.0000 </r>
       <r>    5.4710    0.0000 </r>
       <r>    5.5697    0.0000 </r>
       <r>    5.8581    0.0000 </r>
       <r>    5.9566    0.0000 </r>
       <r>    5.9736    0.0000 </r>
       <r>    6.0118    0.0000 </r>
       <r>    6.0707    0.0000 </r>
       <r>    6.2559    0.0000 </r>
       <r>    6.2713    0.0000 </r>
       <r>    6.3558    0.0000 </r>
       <r>    6.4212    0.0000 </r>
       <r>    6.4371    0.0000 </r>
       <r>    6.6311    0.0000 </r>
       <r>    6.6718    0.0000 </r>
       <r>    6.8934    0.0000 </r>
       <r>    6.9035    0.0000 </r>
       <r>    7.0134    0.0000 </r>
      </set>
      <set comment="kpoint 4">
       <r>  -57.1260    1.0000 </r>
       <r>  -57.1256    1.0000 </r>
       <r>  -57.1254    1.0000 </r>
       <r>  -57.1250    1.0000 </r>
       <r>  -56.7746    1.0000 </r>
       <r>  -56.7741    1.0000 </r>
       <r>  -56.7740    1.0000 </r>
       <r>  -56.7735    1.0000 </r>
       <r>  -33.5458    1.0000 </r>
       <r>  -33.5451    1.0000 </r>
       <r>  -33.5446    1.0000 </r>
       <r>  -33.5440    1.0000 </r>
       <r>  -33.4348    1.0000 </r>
       <r>  -33.4344    1.0000 </r>
       <r>  -33.4241    1.0000 </r>
       <r>  -33.4238    1.0000 </r>
       <r>  -33.2454    1.0000 </r>
       <r>  -33.2443    1.0000 </r>
       <r>  -33.2420    1.0000 </r>
       <r>  -33.2409    1.0000 </r>
       <r>  -33.1623    1.0000 </r>
       <r>  -33.1618    1.0000 </r>
       <r>  -33.1490    1.0000 </r>
       <r>  -33.1486    1.0000 </r>
       <r>  -33.0097    1.0000 </r>
       <r>  -33.0094    1.0000 </r>
       <r>  -33.0085    1.0000 </r>
       <r>  -33.0082    1.0000 </r>
       <r>  -32.9455    1.0000 </r>
       <r>  -32.9442    1.0000 </r>
       <r>  -32.9417    1.0000 </r>
       <r>  -32.9404    1.0000 </r>
       <r>  -14.4597    1.0000 </r>
       <r>  -14.4563    1.0000 </r>
       <r>  -14.4510    1.0000 </r>
       <r>  -14.4422    1.0000 </r>
       <r>  -14.4106    1.0000 </r>
       <r>   -7.5264    1.0000 </r>
       <r>   -7.0727    1.0000 </r>
       <r>   -6.3027    1.0000 </r>
       <r>   -6.0210    1.0000 </r>
       <r>   -5.0586    1.0000 </r>
       <r>   -4.9388    1.0000 </r>
       <r>   -4.3761    1.0000 </r>
       <r>   -4.2860    1.0000 </r>
       <r>   -3.3628    1.0000 </r>
       <r>   -3.2919    1.0000 </r>
       <r>   -2.0538    1.0000 </r>
       <r>   -1.9953    1.0000 </r>
       <r>   -1.5572    1.0000 </r>
       <r>   -1.5562    1.0000 </r>
       <r>   -1.2487    1.0000 </r>
       <r>   -1.2145    1.0000 </r>
       <r>   -1.1225    1.0000 </r>
       <r>   -1.0429    1.0000 </r>
       <r>   -1.0093    1.0000 </r>
       <r>   -0.9074    1.0000 </r>
       <r>   -0.4992    1.0000 </r>
       <r>   -0.4454    1.0000 </r>
       <r>   -0.4446    1.0000 </r>
       <r>   -0.3596    1.0001 </r>
       <r>   -0.2012    1.0336 </r>
       <r>   -0.1889    1.0355 </r>
       <r>   -0.0532    0.3847 </r>
       <r>   -0.0429    0.3028 </r>
       <r>   -0.0330    0.2299 </r>
       <r>   -0.0189    0.1405 </r>
       <r>    0.1202   -0.0118 </r>
       <r>    0.1209   -0.0116 </r>
       <r>    0.1704   -0.0020 </r>
       <r>    0.1853   -0.0010 </r>
       <r>    0.6648   -0.0000 </r>
       <r>    0.6843   -0.0000 </r>
       <r>    0.9156   -0.0000 </r>
       <r>    0.9510   -0.0000 </r>
       <r>    1.0085   -0.0000 </r>
       <r>    1.0200   -0.0000 </r>
       <r>    1.1094   -0.0000 </r>
       <r>    1.1537   -0.0000 </r>
       <r>    1.2376   -0.0000 </r>
       <r>    1.2433   -0.0000 </r>
       <r>    1.2593   -0.0000 </r>
       <r>    1.2874   -0.0000 </r>
       <r>    1.4231   -0.0000 </r>
       <r>    1.4255   -0.0000 </r>
       <r>    1.4972   -0.0000 </r>
       <r>    1.5260   -0.0000 </r>
       <r>    1.8239   -0.0000 </r>
       <r>    1.8353   -0.0000 </r>
       <r>    2.0162    0.0000 </r>
       <r>    2.0323    0.0000 </r>
       <r>    2.0343    0.0000 </r>
       <r>    2.1275    0.0000 </r>
       <r>    2.4927    0.0000 </r>
       <r>    2.5033    0.0000 </r>
       <r>    3.1210    0.0000 </r>
       <r>    3.1471    0.0000 </r>
       <r>    3.7034    0.0000 </r>
       <r>    3.7678    0.0000 </r>
       <r>    3.8509    0.0000 </r>
       <r>    3.9368    0.0000 </r>
       <r>    4.1441    0.0000 </r>
       <r>    4.1537    0.0000 </r>
       <r>    4.4583    0.0000 </r>
       <r>    4.7806    0.0000 </r>
       <r>    4.9718    0.0000 </r>
       <r>    4.9902    0.0000 </r>
       <r>    5.1170    0.0000 </r>
       <r>    5.1743    0.0000 </r>
       <r>    5.2622    0.0000 </r>
       <r>    5.3074    0.0000 </r>
       <r>    5.6275    0.0000 </r>
       <r>    5.6458    0.0000 </r>
       <r>    5.6772    0.0000 </r>
       <r>    5.7152    0.0000 </r>
       <r>    5.7526    0.0000 </r>
       <r>    5.8447    0.0000 </r>
       <r>    5.9046    0.0000 </r>
       <r>    5.9549    0.0000 </r>
       <r>    5.9677    0.0000 </r>
       <r>    5.9917    0.0000 </r>
       <r>    6.2664    0.0000 </r>
       <r>    6.3378    0.0000 </r>
       <r>    6.5937    0.0000 </r>
       <r>    6.5963    0.0000 </r>
       <r>    6.9581    0.0000 </r>
       <r>    7.0341    0.0000 </r>
       <r>    7.1635    0.0000 </r>
      </set>
      <set comment="kpoint 5">
       <r>  -57.1535    1.0000 </r>
       <r>  -57.1531    1.0000 </r>
       <r>  -57.0976    1.0000 </r>
       <r>  -57.0973    1.0000 </r>
       <r>  -56.8023    1.0000 </r>
       <r>  -56.8019    1.0000 </r>
       <r>  -56.7460    1.0000 </r>
       <r>  -56.7457    1.0000 </r>
       <r>  -33.5727    1.0000 </r>
       <r>  -33.5716    1.0000 </r>
       <r>  -33.5181    1.0000 </r>
       <r>  -33.5175    1.0000 </r>
       <r>  -33.4699    1.0000 </r>
       <r>  -33.4679    1.0000 </r>
       <r>  -33.4571    1.0000 </r>
       <r>  -33.4496    1.0000 </r>
       <r>  -33.4062    1.0000 </r>
       <r>  -33.3995    1.0000 </r>
       <r>  -33.1889    1.0000 </r>
       <r>  -33.1784    1.0000 </r>
       <r>  -33.1695    1.0000 </r>
       <r>  -33.1680    1.0000 </r>
       <r>  -33.1313    1.0000 </r>
       <r>  -33.1231    1.0000 </r>
       <r>  -33.0340    1.0000 </r>
       <r>  -33.0330    1.0000 </r>
       <r>  -33.0134    1.0000 </r>
       <r>  -33.0130    1.0000 </r>
       <r>  -32.9834    1.0000 </r>
       <r>  -32.9827    1.0000 </r>
       <r>  -32.7123    1.0000 </r>
       <r>  -32.7119    1.0000 </r>
       <r>  -14.4633    1.0000 </r>
       <r>  -14.4558    1.0000 </r>
       <r>  -14.4507    1.0000 </r>
       <r>  -14.4425    1.0000 </r>
       <r>  -14.4110    1.0000 </r>
       <r>   -8.3471    1.0000 </r>
       <r>   -7.3856    1.0000 </r>
       <r>   -6.0118    1.0000 </r>
       <r>   -5.4782    1.0000 </r>
       <r>   -4.4284    1.0000 </r>
       <r>   -4.0889    1.0000 </r>
       <r>   -4.0224    1.0000 </r>
       <r>   -3.6789    1.0000 </r>
       <r>   -3.0502    1.0000 </r>
       <r>   -2.8852    1.0000 </r>
       <r>   -2.7229    1.0000 </r>
       <r>   -2.4696    1.0000 </r>
       <r>   -2.3546    1.0000 </r>
       <r>   -2.0266    1.0000 </r>
       <r>   -1.8761    1.0000 </r>
       <r>   -1.7935    1.0000 </r>
       <r>   -1.7210    1.0000 </r>
       <r>   -1.6456    1.0000 </r>
       <r>   -1.3185    1.0000 </r>
       <r>   -1.2334    1.0000 </r>
       <r>   -0.9509    1.0000 </r>
       <r>   -0.7438    1.0000 </r>
       <r>   -0.6986    1.0000 </r>
       <r>   -0.6326    1.0000 </r>
       <r>   -0.5884    1.0000 </r>
       <r>   -0.5084    1.0000 </r>
       <r>   -0.1584    1.0137 </r>
       <r>   -0.0693    0.5194 </r>
       <r>   -0.0243    0.1727 </r>
       <r>    0.0760   -0.0306 </r>
       <r>    0.0876   -0.0256 </r>
       <r>    0.1419   -0.0059 </r>
       <r>    0.3046   -0.0000 </r>
       <r>    0.5584   -0.0000 </r>
       <r>    0.6799   -0.0000 </r>
       <r>    0.8175   -0.0000 </r>
       <r>    1.0362   -0.0000 </r>
       <r>    1.1429   -0.0000 </r>
       <r>    1.2122   -0.0000 </r>
       <r>    1.2604   -0.0000 </r>
       <r>    1.3858   -0.0000 </r>
       <r>    1.3950   -0.0000 </r>
       <r>    1.5261   -0.0000 </r>
       <r>    1.5384   -0.0000 </r>
       <r>    1.7227   -0.0000 </r>
       <r>    1.7451   -0.0000 </r>
       <r>    1.7797   -0.0000 </r>
       <r>    1.8312   -0.0000 </r>
       <r>    1.8460   -0.0000 </r>
       <r>    1.9557    0.0000 </r>
       <r>    2.0283    0.0000 </r>
       <r>    2.0306    0.0000 </r>
       <r>    2.0582    0.0000 </r>
       <r>    2.0811    0.0000 </r>
       <r>    2.2213    0.0000 </r>
       <r>    2.5861    0.0000 </r>
       <r>    2.6032    0.0000 </r>
       <r>    2.6222    0.0000 </r>
       <r>    3.0293    0.0000 </r>
       <r>    3.0754    0.0000 </r>
       <r>    3.2702    0.0000 </r>
       <r>    3.5003    0.0000 </r>
       <r>    3.6230    0.0000 </r>
       <r>    3.6329    0.0000 </r>
       <r>    3.9419    0.0000 </r>
       <r>    3.9535    0.0000 </r>
       <r>    4.2337    0.0000 </r>
       <r>    4.2560    0.0000 </r>
       <r>    4.3044    0.0000 </r>
       <r>    4.8381    0.0000 </r>
       <r>    5.0409    0.0000 </r>
       <r>    5.1277    0.0000 </r>
       <r>    5.2455    0.0000 </r>
       <r>    5.2887    0.0000 </r>
       <r>    5.3472    0.0000 </r>
       <r>    5.4503    0.0000 </r>
       <r>    5.6062    0.0000 </r>
       <r>    5.6443    0.0000 </r>
       <r>    5.6949    0.0000 </r>
       <r>    5.8458    0.0000 </r>
       <r>    6.0746    0.0000 </r>
       <r>    6.2887    0.0000 </r>
       <r>    6.3574    0.0000 </r>
       <r>    6.5188    0.0000 </r>
       <r>    6.5322    0.0000 </r>
       <r>    6.7030    0.0000 </r>
       <r>    6.7453    0.0000 </r>
       <r>    6.7820    0.0000 </r>
       <r>    7.0698    0.0000 </r>
       <r>    7.1634    0.0000 </r>
       <r>    7.1902    0.0000 </r>
      </set>
      <set comment="kpoint 6">
       <r>  -57.1498    1.0000 </r>
       <r>  -57.1494    1.0000 </r>
       <r>  -57.1014    1.0000 </r>
       <r>  -57.1011    1.0000 </r>
       <r>  -56.7985    1.0000 </r>
       <r>  -56.7981    1.0000 </r>
       <r>  -56.7498    1.0000 </r>
       <r>  -56.7495    1.0000 </r>
       <r>  -33.5690    1.0000 </r>
       <r>  -33.5679    1.0000 </r>
       <r>  -33.5218    1.0000 </r>
       <r>  -33.5211    1.0000 </r>
       <r>  -33.4573    1.0000 </r>
       <r>  -33.4497    1.0000 </r>
       <r>  -33.4366    1.0000 </r>
       <r>  -33.4349    1.0000 </r>
       <r>  -33.4098    1.0000 </r>
       <r>  -33.4030    1.0000 </r>
       <r>  -33.1850    1.0000 </r>
       <r>  -33.1746    1.0000 </r>
       <r>  -33.1398    1.0000 </r>
       <r>  -33.1384    1.0000 </r>
       <r>  -33.1351    1.0000 </r>
       <r>  -33.1268    1.0000 </r>
       <r>  -33.0447    1.0000 </r>
       <r>  -33.0443    1.0000 </r>
       <r>  -33.0303    1.0000 </r>
       <r>  -33.0293    1.0000 </r>
       <r>  -32.9869    1.0000 </r>
       <r>  -32.9862    1.0000 </r>
       <r>  -32.7437    1.0000 </r>
       <r>  -32.7432    1.0000 </r>
       <r>  -14.4624    1.0000 </r>
       <r>  -14.4559    1.0000 </r>
       <r>  -14.4508    1.0000 </r>
       <r>  -14.4424    1.0000 </r>
       <r>  -14.4109    1.0000 </r>
       <r>   -8.2212    1.0000 </r>
       <r>   -7.2759    1.0000 </r>
       <r>   -5.9088    1.0000 </r>
       <r>   -5.4114    1.0000 </r>
       <r>   -5.1482    1.0000 </r>
       <r>   -4.7824    1.0000 </r>
       <r>   -3.9136    1.0000 </r>
       <r>   -3.3358    1.0000 </r>
       <r>   -2.9707    1.0000 </r>
       <r>   -2.9195    1.0000 </r>
       <r>   -2.6153    1.0000 </r>
       <r>   -2.2447    1.0000 </r>
       <r>   -2.2083    1.0000 </r>
       <r>   -2.1522    1.0000 </r>
       <r>   -1.9376    1.0000 </r>
       <r>   -1.5979    1.0000 </r>
       <r>   -1.5468    1.0000 </r>
       <r>   -1.4077    1.0000 </r>
       <r>   -1.1455    1.0000 </r>
       <r>   -0.9923    1.0000 </r>
       <r>   -0.8518    1.0000 </r>
       <r>   -0.7441    1.0000 </r>
       <r>   -0.6783    1.0000 </r>
       <r>   -0.6457    1.0000 </r>
       <r>   -0.4961    1.0000 </r>
       <r>   -0.4247    1.0000 </r>
       <r>   -0.1402    0.9705 </r>
       <r>   -0.0809    0.6164 </r>
       <r>   -0.0196    0.1447 </r>
       <r>   -0.0103    0.0955 </r>
       <r>    0.0525   -0.0353 </r>
       <r>    0.1482   -0.0048 </r>
       <r>    0.2513   -0.0000 </r>
       <r>    0.5216   -0.0000 </r>
       <r>    0.5492   -0.0000 </r>
       <r>    0.6551   -0.0000 </r>
       <r>    0.9799   -0.0000 </r>
       <r>    1.0938   -0.0000 </r>
       <r>    1.1620   -0.0000 </r>
       <r>    1.1801   -0.0000 </r>
       <r>    1.3448   -0.0000 </r>
       <r>    1.4005   -0.0000 </r>
       <r>    1.4651   -0.0000 </r>
       <r>    1.4825   -0.0000 </r>
       <r>    1.5659   -0.0000 </r>
       <r>    1.6018   -0.0000 </r>
       <r>    1.7854   -0.0000 </r>
       <r>    1.8054   -0.0000 </r>
       <r>    1.8919   -0.0000 </r>
       <r>    1.9510    0.0000 </r>
       <r>    1.9785    0.0000 </r>
       <r>    2.0043    0.0000 </r>
       <r>    2.2429    0.0000 </r>
       <r>    2.2811    0.0000 </r>
       <r>    2.4081    0.0000 </r>
       <r>    2.4682    0.0000 </r>
       <r>    2.4906    0.0000 </r>
       <r>    2.5077    0.0000 </r>
       <r>    2.5606    0.0000 </r>
       <r>    3.2425    0.0000 </r>
       <r>    3.3818    0.0000 </r>
       <r>    3.5162    0.0000 </r>
       <r>    3.5582    0.0000 </r>
       <r>    3.7549    0.0000 </r>
       <r>    3.8401    0.0000 </r>
       <r>    4.0429    0.0000 </r>
       <r>    4.1091    0.0000 </r>
       <r>    4.3440    0.0000 </r>
       <r>    4.4291    0.0000 </r>
       <r>    4.4965    0.0000 </r>
       <r>    4.7433    0.0000 </r>
       <r>    4.8226    0.0000 </r>
       <r>    5.2632    0.0000 </r>
       <r>    5.4107    0.0000 </r>
       <r>    5.4707    0.0000 </r>
       <r>    5.4798    0.0000 </r>
       <r>    5.7777    0.0000 </r>
       <r>    5.8201    0.0000 </r>
       <r>    5.9489    0.0000 </r>
       <r>    5.9976    0.0000 </r>
       <r>    6.2249    0.0000 </r>
       <r>    6.3664    0.0000 </r>
       <r>    6.4145    0.0000 </r>
       <r>    6.4570    0.0000 </r>
       <r>    6.6437    0.0000 </r>
       <r>    6.8135    0.0000 </r>
       <r>    6.9020    0.0000 </r>
       <r>    7.1652    0.0000 </r>
       <r>    7.1776    0.0000 </r>
       <r>    7.2585    0.0000 </r>
       <r>    7.2943    0.0000 </r>
      </set>
      <set comment="kpoint 7">
       <r>  -57.1396    1.0000 </r>
       <r>  -57.1393    1.0000 </r>
       <r>  -57.1116    1.0000 </r>
       <r>  -57.1113    1.0000 </r>
       <r>  -56.7883    1.0000 </r>
       <r>  -56.7879    1.0000 </r>
       <r>  -56.7601    1.0000 </r>
       <r>  -56.7598    1.0000 </r>
       <r>  -33.5589    1.0000 </r>
       <r>  -33.5579    1.0000 </r>
       <r>  -33.5317    1.0000 </r>
       <r>  -33.5310    1.0000 </r>
       <r>  -33.4465    1.0000 </r>
       <r>  -33.4386    1.0000 </r>
       <r>  -33.4197    1.0000 </r>
       <r>  -33.4125    1.0000 </r>
       <r>  -33.3561    1.0000 </r>
       <r>  -33.3552    1.0000 </r>
       <r>  -33.1745    1.0000 </r>
       <r>  -33.1645    1.0000 </r>
       <r>  -33.1457    1.0000 </r>
       <r>  -33.1369    1.0000 </r>
       <r>  -33.1293    1.0000 </r>
       <r>  -33.1287    1.0000 </r>
       <r>  -33.0584    1.0000 </r>
       <r>  -33.0572    1.0000 </r>
       <r>  -33.0205    1.0000 </r>
       <r>  -33.0196    1.0000 </r>
       <r>  -32.9963    1.0000 </r>
       <r>  -32.9956    1.0000 </r>
       <r>  -32.8288    1.0000 </r>
       <r>  -32.8281    1.0000 </r>
       <r>  -14.4606    1.0000 </r>
       <r>  -14.4561    1.0000 </r>
       <r>  -14.4510    1.0000 </r>
       <r>  -14.4423    1.0000 </r>
       <r>  -14.4107    1.0000 </r>
       <r>   -7.8579    1.0000 </r>
       <r>   -6.9670    1.0000 </r>
       <r>   -6.2590    1.0000 </r>
       <r>   -5.6682    1.0000 </r>
       <r>   -5.4560    1.0000 </r>
       <r>   -4.9913    1.0000 </r>
       <r>   -4.1709    1.0000 </r>
       <r>   -3.7372    1.0000 </r>
       <r>   -3.5397    1.0000 </r>
       <r>   -2.5345    1.0000 </r>
       <r>   -2.4821    1.0000 </r>
       <r>   -1.8149    1.0000 </r>
       <r>   -1.7446    1.0000 </r>
       <r>   -1.6225    1.0000 </r>
       <r>   -1.5056    1.0000 </r>
       <r>   -1.4845    1.0000 </r>
       <r>   -1.4430    1.0000 </r>
       <r>   -1.2002    1.0000 </r>
       <r>   -1.0658    1.0000 </r>
       <r>   -0.9114    1.0000 </r>
       <r>   -0.8302    1.0000 </r>
       <r>   -0.5879    1.0000 </r>
       <r>   -0.4057    1.0000 </r>
       <r>   -0.3758    1.0001 </r>
       <r>   -0.2834    1.0045 </r>
       <r>   -0.2570    1.0109 </r>
       <r>   -0.1874    1.0354 </r>
       <r>   -0.0955    0.7310 </r>
       <r>   -0.0725    0.5470 </r>
       <r>   -0.0549    0.3990 </r>
       <r>    0.0506   -0.0351 </r>
       <r>    0.1574   -0.0034 </r>
       <r>    0.1763   -0.0016 </r>
       <r>    0.4591   -0.0000 </r>
       <r>    0.4887   -0.0000 </r>
       <r>    0.5607   -0.0000 </r>
       <r>    0.7784   -0.0000 </r>
       <r>    0.7839   -0.0000 </r>
       <r>    0.9771   -0.0000 </r>
       <r>    1.0423   -0.0000 </r>
       <r>    1.1882   -0.0000 </r>
       <r>    1.2177   -0.0000 </r>
       <r>    1.3071   -0.0000 </r>
       <r>    1.3554   -0.0000 </r>
       <r>    1.3876   -0.0000 </r>
       <r>    1.4131   -0.0000 </r>
       <r>    1.5033   -0.0000 </r>
       <r>    1.6467   -0.0000 </r>
       <r>    1.7854   -0.0000 </r>
       <r>    1.8166   -0.0000 </r>
       <r>    1.8986   -0.0000 </r>
       <r>    2.1498    0.0000 </r>
       <r>    2.1691    0.0000 </r>
       <r>    2.1901    0.0000 </r>
       <r>    2.3338    0.0000 </r>
       <r>    2.3520    0.0000 </r>
       <r>    2.6295    0.0000 </r>
       <r>    2.7129    0.0000 </r>
       <r>    2.8533    0.0000 </r>
       <r>    3.1336    0.0000 </r>
       <r>    3.3604    0.0000 </r>
       <r>    3.5545    0.0000 </r>
       <r>    3.6857    0.0000 </r>
       <r>    3.8925    0.0000 </r>
       <r>    4.0739    0.0000 </r>
       <r>    4.2293    0.0000 </r>
       <r>    4.2984    0.0000 </r>
       <r>    4.3415    0.0000 </r>
       <r>    4.4113    0.0000 </r>
       <r>    4.4972    0.0000 </r>
       <r>    4.6649    0.0000 </r>
       <r>    4.7893    0.0000 </r>
       <r>    5.0297    0.0000 </r>
       <r>    5.3333    0.0000 </r>
       <r>    5.4903    0.0000 </r>
       <r>    5.5414    0.0000 </r>
       <r>    5.7002    0.0000 </r>
       <r>    5.8122    0.0000 </r>
       <r>    5.9880    0.0000 </r>
       <r>    6.0813    0.0000 </r>
       <r>    6.1233    0.0000 </r>
       <r>    6.2454    0.0000 </r>
       <r>    6.3160    0.0000 </r>
       <r>    6.5480    0.0000 </r>
       <r>    6.6452    0.0000 </r>
       <r>    6.7822    0.0000 </r>
       <r>    6.8416    0.0000 </r>
       <r>    6.9540    0.0000 </r>
       <r>    7.0208    0.0000 </r>
       <r>    7.1007    0.0000 </r>
       <r>    7.1933    0.0000 </r>
      </set>
      <set comment="kpoint 8">
       <r>  -57.1259    1.0000 </r>
       <r>  -57.1256    1.0000 </r>
       <r>  -57.1254    1.0000 </r>
       <r>  -57.1250    1.0000 </r>
       <r>  -56.7745    1.0000 </r>
       <r>  -56.7742    1.0000 </r>
       <r>  -56.7739    1.0000 </r>
       <r>  -56.7736    1.0000 </r>
       <r>  -33.5457    1.0000 </r>
       <r>  -33.5450    1.0000 </r>
       <r>  -33.5447    1.0000 </r>
       <r>  -33.5441    1.0000 </r>
       <r>  -33.4333    1.0000 </r>
       <r>  -33.4328    1.0000 </r>
       <r>  -33.4257    1.0000 </r>
       <r>  -33.4253    1.0000 </r>
       <r>  -33.2452    1.0000 </r>
       <r>  -33.2445    1.0000 </r>
       <r>  -33.2418    1.0000 </r>
       <r>  -33.2411    1.0000 </r>
       <r>  -33.1604    1.0000 </r>
       <r>  -33.1599    1.0000 </r>
       <r>  -33.1510    1.0000 </r>
       <r>  -33.1505    1.0000 </r>
       <r>  -33.0095    1.0000 </r>
       <r>  -33.0092    1.0000 </r>
       <r>  -33.0087    1.0000 </r>
       <r>  -33.0084    1.0000 </r>
       <r>  -32.9453    1.0000 </r>
       <r>  -32.9444    1.0000 </r>
       <r>  -32.9415    1.0000 </r>
       <r>  -32.9406    1.0000 </r>
       <r>  -14.4597    1.0000 </r>
       <r>  -14.4563    1.0000 </r>
       <r>  -14.4511    1.0000 </r>
       <r>  -14.4422    1.0000 </r>
       <r>  -14.4106    1.0000 </r>
       <r>   -7.4556    1.0000 </r>
       <r>   -6.9586    1.0000 </r>
       <r>   -6.4535    1.0000 </r>
       <r>   -6.2363    1.0000 </r>
       <r>   -4.9992    1.0000 </r>
       <r>   -4.8605    1.0000 </r>
       <r>   -4.4852    1.0000 </r>
       <r>   -4.4047    1.0000 </r>
       <r>   -3.0484    1.0000 </r>
       <r>   -2.9717    1.0000 </r>
       <r>   -1.9826    1.0000 </r>
       <r>   -1.9210    1.0000 </r>
       <r>   -1.5609    1.0000 </r>
       <r>   -1.5354    1.0000 </r>
       <r>   -1.4087    1.0000 </r>
       <r>   -1.4060    1.0000 </r>
       <r>   -1.3380    1.0000 </r>
       <r>   -1.3190    1.0000 </r>
       <r>   -0.6495    1.0000 </r>
       <r>   -0.6193    1.0000 </r>
       <r>   -0.5970    1.0000 </r>
       <r>   -0.5577    1.0000 </r>
       <r>   -0.4297    1.0000 </r>
       <r>   -0.3654    1.0001 </r>
       <r>   -0.2971    1.0027 </r>
       <r>   -0.2719    1.0068 </r>
       <r>   -0.0422    0.2970 </r>
       <r>   -0.0157    0.1228 </r>
       <r>   -0.0105    0.0963 </r>
       <r>    0.0028    0.0410 </r>
       <r>    0.1556   -0.0036 </r>
       <r>    0.1561   -0.0035 </r>
       <r>    0.2699   -0.0000 </r>
       <r>    0.2993   -0.0000 </r>
       <r>    0.4388   -0.0000 </r>
       <r>    0.4423   -0.0000 </r>
       <r>    0.5867   -0.0000 </r>
       <r>    0.6126   -0.0000 </r>
       <r>    0.9245   -0.0000 </r>
       <r>    0.9657   -0.0000 </r>
       <r>    1.0323   -0.0000 </r>
       <r>    1.0718   -0.0000 </r>
       <r>    1.1879   -0.0000 </r>
       <r>    1.2166   -0.0000 </r>
       <r>    1.3181   -0.0000 </r>
       <r>    1.3294   -0.0000 </r>
       <r>    1.3646   -0.0000 </r>
       <r>    1.3865   -0.0000 </r>
       <r>    1.7779   -0.0000 </r>
       <r>    1.7843   -0.0000 </r>
       <r>    1.9271   -0.0000 </r>
       <r>    1.9423    0.0000 </r>
       <r>    2.1116    0.0000 </r>
       <r>    2.1284    0.0000 </r>
       <r>    2.5066    0.0000 </r>
       <r>    2.5147    0.0000 </r>
       <r>    2.6412    0.0000 </r>
       <r>    2.7048    0.0000 </r>
       <r>    3.0875    0.0000 </r>
       <r>    3.1290    0.0000 </r>
       <r>    3.2769    0.0000 </r>
       <r>    3.3300    0.0000 </r>
       <r>    3.9050    0.0000 </r>
       <r>    3.9890    0.0000 </r>
       <r>    4.2878    0.0000 </r>
       <r>    4.2956    0.0000 </r>
       <r>    4.4817    0.0000 </r>
       <r>    4.6821    0.0000 </r>
       <r>    4.7426    0.0000 </r>
       <r>    4.8001    0.0000 </r>
       <r>    5.0311    0.0000 </r>
       <r>    5.0588    0.0000 </r>
       <r>    5.1298    0.0000 </r>
       <r>    5.1638    0.0000 </r>
       <r>    5.2226    0.0000 </r>
       <r>    5.2829    0.0000 </r>
       <r>    5.3570    0.0000 </r>
       <r>    5.3684    0.0000 </r>
       <r>    5.6384    0.0000 </r>
       <r>    5.7766    0.0000 </r>
       <r>    5.9308    0.0000 </r>
       <r>    5.9673    0.0000 </r>
       <r>    6.1117    0.0000 </r>
       <r>    6.1909    0.0000 </r>
       <r>    6.4873    0.0000 </r>
       <r>    6.5005    0.0000 </r>
       <r>    6.7169    0.0000 </r>
       <r>    6.7275    0.0000 </r>
       <r>    7.0016    0.0000 </r>
       <r>    7.0119    0.0000 </r>
       <r>    7.1957    0.0000 </r>
      </set>
      <set comment="kpoint 9">
       <r>  -57.1533    1.0000 </r>
       <r>  -57.1533    1.0000 </r>
       <r>  -57.0975    1.0000 </r>
       <r>  -57.0975    1.0000 </r>
       <r>  -56.8021    1.0000 </r>
       <r>  -56.8021    1.0000 </r>
       <r>  -56.7459    1.0000 </r>
       <r>  -56.7458    1.0000 </r>
       <r>  -33.5723    1.0000 </r>
       <r>  -33.5720    1.0000 </r>
       <r>  -33.5178    1.0000 </r>
       <r>  -33.5177    1.0000 </r>
       <r>  -33.4688    1.0000 </r>
       <r>  -33.4688    1.0000 </r>
       <r>  -33.4536    1.0000 </r>
       <r>  -33.4534    1.0000 </r>
       <r>  -33.4030    1.0000 </r>
       <r>  -33.4028    1.0000 </r>
       <r>  -33.1839    1.0000 </r>
       <r>  -33.1834    1.0000 </r>
       <r>  -33.1688    1.0000 </r>
       <r>  -33.1688    1.0000 </r>
       <r>  -33.1273    1.0000 </r>
       <r>  -33.1270    1.0000 </r>
       <r>  -33.0335    1.0000 </r>
       <r>  -33.0334    1.0000 </r>
       <r>  -33.0132    1.0000 </r>
       <r>  -33.0132    1.0000 </r>
       <r>  -32.9831    1.0000 </r>
       <r>  -32.9831    1.0000 </r>
       <r>  -32.7121    1.0000 </r>
       <r>  -32.7121    1.0000 </r>
       <r>  -14.4633    1.0000 </r>
       <r>  -14.4558    1.0000 </r>
       <r>  -14.4507    1.0000 </r>
       <r>  -14.4425    1.0000 </r>
       <r>  -14.4110    1.0000 </r>
       <r>   -8.1456    1.0000 </r>
       <r>   -7.7092    1.0000 </r>
       <r>   -5.8797    1.0000 </r>
       <r>   -5.6509    1.0000 </r>
       <r>   -4.4174    1.0000 </r>
       <r>   -4.0827    1.0000 </r>
       <r>   -3.3729    1.0000 </r>
       <r>   -3.2617    1.0000 </r>
       <r>   -3.2025    1.0000 </r>
       <r>   -3.1766    1.0000 </r>
       <r>   -2.6685    1.0000 </r>
       <r>   -2.6186    1.0000 </r>
       <r>   -2.5309    1.0000 </r>
       <r>   -2.5042    1.0000 </r>
       <r>   -1.7927    1.0000 </r>
       <r>   -1.7496    1.0000 </r>
       <r>   -1.5420    1.0000 </r>
       <r>   -1.5347    1.0000 </r>
       <r>   -1.5022    1.0000 </r>
       <r>   -1.4941    1.0000 </r>
       <r>   -0.8620    1.0000 </r>
       <r>   -0.8386    1.0000 </r>
       <r>   -0.8206    1.0000 </r>
       <r>   -0.7931    1.0000 </r>
       <r>   -0.5674    1.0000 </r>
       <r>   -0.5446    1.0000 </r>
       <r>   -0.0340    0.2372 </r>
       <r>    0.0151    0.0047 </r>
       <r>    0.0242   -0.0134 </r>
       <r>    0.0311   -0.0231 </r>
       <r>    0.3298   -0.0000 </r>
       <r>    0.3324   -0.0000 </r>
       <r>    0.3785   -0.0000 </r>
       <r>    0.3966   -0.0000 </r>
       <r>    0.5658   -0.0000 </r>
       <r>    0.5722   -0.0000 </r>
       <r>    1.0766   -0.0000 </r>
       <r>    1.1183   -0.0000 </r>
       <r>    1.2657   -0.0000 </r>
       <r>    1.3132   -0.0000 </r>
       <r>    1.6236   -0.0000 </r>
       <r>    1.6237   -0.0000 </r>
       <r>    1.6710   -0.0000 </r>
       <r>    1.6761   -0.0000 </r>
       <r>    1.6783   -0.0000 </r>
       <r>    1.7532   -0.0000 </r>
       <r>    1.7720   -0.0000 </r>
       <r>    1.7805   -0.0000 </r>
       <r>    1.9292   -0.0000 </r>
       <r>    1.9525    0.0000 </r>
       <r>    2.1419    0.0000 </r>
       <r>    2.1453    0.0000 </r>
       <r>    2.1523    0.0000 </r>
       <r>    2.2445    0.0000 </r>
       <r>    2.4780    0.0000 </r>
       <r>    2.5947    0.0000 </r>
       <r>    2.5948    0.0000 </r>
       <r>    2.6251    0.0000 </r>
       <r>    2.7792    0.0000 </r>
       <r>    2.8160    0.0000 </r>
       <r>    2.9783    0.0000 </r>
       <r>    3.0161    0.0000 </r>
       <r>    3.5167    0.0000 </r>
       <r>    3.5448    0.0000 </r>
       <r>    3.9540    0.0000 </r>
       <r>    3.9715    0.0000 </r>
       <r>    4.1277    0.0000 </r>
       <r>    4.4669    0.0000 </r>
       <r>    4.6191    0.0000 </r>
       <r>    4.6288    0.0000 </r>
       <r>    4.8072    0.0000 </r>
       <r>    4.9129    0.0000 </r>
       <r>    4.9314    0.0000 </r>
       <r>    4.9485    0.0000 </r>
       <r>    5.2695    0.0000 </r>
       <r>    5.3033    0.0000 </r>
       <r>    5.3958    0.0000 </r>
       <r>    5.5547    0.0000 </r>
       <r>    6.0630    0.0000 </r>
       <r>    6.0832    0.0000 </r>
       <r>    6.2787    0.0000 </r>
       <r>    6.2800    0.0000 </r>
       <r>    6.5834    0.0000 </r>
       <r>    6.6085    0.0000 </r>
       <r>    6.6102    0.0000 </r>
       <r>    6.7065    0.0000 </r>
       <r>    6.9548    0.0000 </r>
       <r>    6.9742    0.0000 </r>
       <r>    7.0659    0.0000 </r>
       <r>    7.0828    0.0000 </r>
       <r>    7.5574    0.0000 </r>
      </set>
      <set comment="kpoint 10">
       <r>  -57.1496    1.0000 </r>
       <r>  -57.1496    1.0000 </r>
       <r>  -57.1012    1.0000 </r>
       <r>  -57.1012    1.0000 </r>
       <r>  -56.7983    1.0000 </r>
       <r>  -56.7983    1.0000 </r>
       <r>  -56.7496    1.0000 </r>
       <r>  -56.7496    1.0000 </r>
       <r>  -33.5686    1.0000 </r>
       <r>  -33.5683    1.0000 </r>
       <r>  -33.5215    1.0000 </r>
       <r>  -33.5214    1.0000 </r>
       <r>  -33.4535    1.0000 </r>
       <r>  -33.4533    1.0000 </r>
       <r>  -33.4359    1.0000 </r>
       <r>  -33.4358    1.0000 </r>
       <r>  -33.4065    1.0000 </r>
       <r>  -33.4063    1.0000 </r>
       <r>  -33.1800    1.0000 </r>
       <r>  -33.1796    1.0000 </r>
       <r>  -33.1391    1.0000 </r>
       <r>  -33.1391    1.0000 </r>
       <r>  -33.1311    1.0000 </r>
       <r>  -33.1308    1.0000 </r>
       <r>  -33.0445    1.0000 </r>
       <r>  -33.0445    1.0000 </r>
       <r>  -33.0299    1.0000 </r>
       <r>  -33.0298    1.0000 </r>
       <r>  -32.9866    1.0000 </r>
       <r>  -32.9865    1.0000 </r>
       <r>  -32.7435    1.0000 </r>
       <r>  -32.7435    1.0000 </r>
       <r>  -14.4624    1.0000 </r>
       <r>  -14.4559    1.0000 </r>
       <r>  -14.4508    1.0000 </r>
       <r>  -14.4425    1.0000 </r>
       <r>  -14.4109    1.0000 </r>
       <r>   -8.0284    1.0000 </r>
       <r>   -7.5838    1.0000 </r>
       <r>   -5.7967    1.0000 </r>
       <r>   -5.5335    1.0000 </r>
       <r>   -5.1082    1.0000 </r>
       <r>   -4.8570    1.0000 </r>
       <r>   -3.2264    1.0000 </r>
       <r>   -3.1096    1.0000 </r>
       <r>   -3.0811    1.0000 </r>
       <r>   -3.0516    1.0000 </r>
       <r>   -2.5660    1.0000 </r>
       <r>   -2.4596    1.0000 </r>
       <r>   -2.4091    1.0000 </r>
       <r>   -2.3775    1.0000 </r>
       <r>   -1.8753    1.0000 </r>
       <r>   -1.8428    1.0000 </r>
       <r>   -1.4494    1.0000 </r>
       <r>   -1.4431    1.0000 </r>
       <r>   -1.1647    1.0000 </r>
       <r>   -1.0991    1.0000 </r>
       <r>   -0.7912    1.0000 </r>
       <r>   -0.7877    1.0000 </r>
       <r>   -0.7355    1.0000 </r>
       <r>   -0.7083    1.0000 </r>
       <r>   -0.4729    1.0000 </r>
       <r>   -0.4517    1.0000 </r>
       <r>   -0.1018    0.7759 </r>
       <r>   -0.0447    0.3167 </r>
       <r>    0.0411   -0.0316 </r>
       <r>    0.0531   -0.0354 </r>
       <r>    0.3309   -0.0000 </r>
       <r>    0.3337   -0.0000 </r>
       <r>    0.3387   -0.0000 </r>
       <r>    0.3419   -0.0000 </r>
       <r>    0.5306   -0.0000 </r>
       <r>    0.5403   -0.0000 </r>
       <r>    0.8317   -0.0000 </r>
       <r>    0.8445   -0.0000 </r>
       <r>    1.1605   -0.0000 </r>
       <r>    1.1982   -0.0000 </r>
       <r>    1.4408   -0.0000 </r>
       <r>    1.4426   -0.0000 </r>
       <r>    1.5557   -0.0000 </r>
       <r>    1.5616   -0.0000 </r>
       <r>    1.6539   -0.0000 </r>
       <r>    1.6893   -0.0000 </r>
       <r>    1.7985   -0.0000 </r>
       <r>    1.8829   -0.0000 </r>
       <r>    1.8842   -0.0000 </r>
       <r>    1.9135   -0.0000 </r>
       <r>    2.1365    0.0000 </r>
       <r>    2.1541    0.0000 </r>
       <r>    2.1692    0.0000 </r>
       <r>    2.2183    0.0000 </r>
       <r>    2.4899    0.0000 </r>
       <r>    2.4906    0.0000 </r>
       <r>    2.7485    0.0000 </r>
       <r>    2.8142    0.0000 </r>
       <r>    2.8457    0.0000 </r>
       <r>    2.9190    0.0000 </r>
       <r>    2.9254    0.0000 </r>
       <r>    2.9433    0.0000 </r>
       <r>    3.6159    0.0000 </r>
       <r>    3.6627    0.0000 </r>
       <r>    3.8854    0.0000 </r>
       <r>    4.1118    0.0000 </r>
       <r>    4.1295    0.0000 </r>
       <r>    4.1587    0.0000 </r>
       <r>    4.4287    0.0000 </r>
       <r>    4.4981    0.0000 </r>
       <r>    4.7367    0.0000 </r>
       <r>    4.7369    0.0000 </r>
       <r>    4.8001    0.0000 </r>
       <r>    4.8144    0.0000 </r>
       <r>    5.3756    0.0000 </r>
       <r>    5.4175    0.0000 </r>
       <r>    5.7696    0.0000 </r>
       <r>    5.8172    0.0000 </r>
       <r>    6.3340    0.0000 </r>
       <r>    6.3387    0.0000 </r>
       <r>    6.4115    0.0000 </r>
       <r>    6.4157    0.0000 </r>
       <r>    6.5731    0.0000 </r>
       <r>    6.6265    0.0000 </r>
       <r>    6.7035    0.0000 </r>
       <r>    6.7219    0.0000 </r>
       <r>    7.1446    0.0000 </r>
       <r>    7.1564    0.0000 </r>
       <r>    7.1786    0.0000 </r>
       <r>    7.1945    0.0000 </r>
       <r>    7.2428    0.0000 </r>
      </set>
      <set comment="kpoint 11">
       <r>  -57.1394    1.0000 </r>
       <r>  -57.1394    1.0000 </r>
       <r>  -57.1115    1.0000 </r>
       <r>  -57.1115    1.0000 </r>
       <r>  -56.7881    1.0000 </r>
       <r>  -56.7881    1.0000 </r>
[...]
       <r>   -4.6310    1.0000 </r>
       <r>   -2.4030    1.0000 </r>
       <r>   -2.3289    1.0000 </r>
       <r>   -2.3039    1.0000 </r>
       <r>   -2.2926    1.0000 </r>
       <r>   -1.6700    1.0000 </r>
       <r>   -1.6094    1.0000 </r>
       <r>   -1.6030    1.0000 </r>
       <r>   -1.5990    1.0000 </r>
       <r>   -1.0111    1.0000 </r>
       <r>   -0.9924    1.0000 </r>
       <r>   -0.9819    1.0000 </r>
       <r>   -0.9690    1.0000 </r>
       <r>   -0.4212    1.0000 </r>
       <r>   -0.3800    1.0000 </r>
       <r>   -0.3736    1.0001 </r>
       <r>   -0.3140    1.0013 </r>
       <r>   -0.2046    1.0326 </r>
       <r>   -0.2005    1.0339 </r>
       <r>   -0.1724    1.0298 </r>
       <r>   -0.1627    1.0201 </r>
       <r>    0.0381   -0.0297 </r>
       <r>    0.0420   -0.0321 </r>
       <r>    0.0429   -0.0326 </r>
       <r>    0.0498   -0.0349 </r>
       <r>    0.3104   -0.0000 </r>
       <r>    0.3150   -0.0000 </r>
       <r>    0.3249   -0.0000 </r>
       <r>    0.3505   -0.0000 </r>
       <r>    0.5915   -0.0000 </r>
       <r>    0.6028   -0.0000 </r>
       <r>    0.6534   -0.0000 </r>
       <r>    0.6574   -0.0000 </r>
       <r>    1.0428   -0.0000 </r>
       <r>    1.0596   -0.0000 </r>
       <r>    1.0605   -0.0000 </r>
       <r>    1.1159   -0.0000 </r>
       <r>    1.3936   -0.0000 </r>
       <r>    1.3986   -0.0000 </r>
       <r>    1.4036   -0.0000 </r>
       <r>    1.4241   -0.0000 </r>
       <r>    2.0523    0.0000 </r>
       <r>    2.0638    0.0000 </r>
       <r>    2.0646    0.0000 </r>
       <r>    2.0805    0.0000 </r>
       <r>    2.3420    0.0000 </r>
       <r>    2.3528    0.0000 </r>
       <r>    2.3737    0.0000 </r>
       <r>    2.3772    0.0000 </r>
       <r>    2.8594    0.0000 </r>
       <r>    2.8692    0.0000 </r>
       <r>    2.8700    0.0000 </r>
       <r>    2.9629    0.0000 </r>
       <r>    3.5562    0.0000 </r>
       <r>    3.7048    0.0000 </r>
       <r>    3.7082    0.0000 </r>
       <r>    3.7142    0.0000 </r>
       <r>    4.2687    0.0000 </r>
       <r>    4.4041    0.0000 </r>
       <r>    4.4066    0.0000 </r>
       <r>    4.4131    0.0000 </r>
       <r>    4.6901    0.0000 </r>
       <r>    4.7112    0.0000 </r>
       <r>    4.7332    0.0000 </r>
       <r>    4.7370    0.0000 </r>
       <r>    5.1980    0.0000 </r>
       <r>    5.2249    0.0000 </r>
       <r>    5.2434    0.0000 </r>
       <r>    5.2824    0.0000 </r>
       <r>    5.4574    0.0000 </r>
       <r>    5.5233    0.0000 </r>
       <r>    5.5696    0.0000 </r>
       <r>    5.5703    0.0000 </r>
       <r>    5.6974    0.0000 </r>
       <r>    5.8882    0.0000 </r>
       <r>    5.9095    0.0000 </r>
       <r>    5.9238    0.0000 </r>
       <r>    6.2973    0.0000 </r>
       <r>    6.3125    0.0000 </r>
       <r>    6.3369    0.0000 </r>
       <r>    6.3787    0.0000 </r>
       <r>    7.3290    0.0000 </r>
       <r>    7.3425    0.0000 </r>
       <r>    7.3426    0.0000 </r>
      </set>
     </set>
    </set>
   </array>
  </eigenvalues>
  <separator name="orbital magnetization" >
   <v name="MAGDIPOLOUT">      0.00000000      0.00000000      0.00000000</v>
  </separator>
  <dos>
   <i name="efermi">     -0.06697427 </i>
   <total>
    <array>
     <dimension dim="1">gridpoints</dimension>
     <dimension dim="2">spin</dimension>
     <field>energy</field>
     <field>total</field>
     <field>integrated</field>
     <set>
      <set comment="spin 1">
       <r>   -60.3891     0.0000     0.0000 </r>
       <r>   -60.1518     0.0000     0.0000 </r>
       <r>   -59.9145     0.0000     0.0000 </r>
       <r>   -59.6773     0.0000     0.0000 </r>
       <r>   -59.4400     0.0000     0.0000 </r>
       <r>   -59.2027     0.0000     0.0000 </r>
       <r>   -58.9654     0.0000     0.0000 </r>
       <r>   -58.7282     0.0000     0.0000 </r>
       <r>   -58.4909     0.0000     0.0000 </r>
       <r>   -58.2536     0.0000     0.0000 </r>
       <r>   -58.0164    -0.0000    -0.0000 </r>
       <r>   -57.7791    -0.0000    -0.0000 </r>
       <r>   -57.5418    -0.0000    -0.0000 </r>
       <r>   -57.3045    -0.5325    -0.1264 </r>
       <r>   -57.0673    30.6178     7.1384 </r>
       <r>   -56.8300     7.6225     8.9470 </r>
       <r>   -56.5927    30.2313    16.1201 </r>
       <r>   -56.3554    -0.5063    16.0000 </r>
       <r>   -56.1182    -0.0000    16.0000 </r>
       <r>   -55.8809     0.0000    16.0000 </r>
       <r>   -55.6436     0.0000    16.0000 </r>
       <r>   -55.4063     0.0000    16.0000 </r>
       <r>   -55.1691     0.0000    16.0000 </r>
       <r>   -54.9318     0.0000    16.0000 </r>
       <r>   -54.6945     0.0000    16.0000 </r>
       <r>   -54.4573     0.0000    16.0000 </r>
       <r>   -54.2200     0.0000    16.0000 </r>
       <r>   -53.9827     0.0000    16.0000 </r>
       <r>   -53.7454     0.0000    16.0000 </r>
       <r>   -53.5082     0.0000    16.0000 </r>
       <r>   -53.2709     0.0000    16.0000 </r>
       <r>   -53.0336     0.0000    16.0000 </r>
       <r>   -52.7963     0.0000    16.0000 </r>
       <r>   -52.5591     0.0000    16.0000 </r>
       <r>   -52.3218     0.0000    16.0000 </r>
       <r>   -52.0845     0.0000    16.0000 </r>
       <r>   -51.8472     0.0000    16.0000 </r>
       <r>   -51.6100     0.0000    16.0000 </r>
       <r>   -51.3727     0.0000    16.0000 </r>
       <r>   -51.1354     0.0000    16.0000 </r>
       <r>   -50.8982     0.0000    16.0000 </r>
       <r>   -50.6609     0.0000    16.0000 </r>
       <r>   -50.4236     0.0000    16.0000 </r>
       <r>   -50.1863     0.0000    16.0000 </r>
       <r>   -49.9491     0.0000    16.0000 </r>
       <r>   -49.7118     0.0000    16.0000 </r>
       <r>   -49.4745     0.0000    16.0000 </r>
       <r>   -49.2372     0.0000    16.0000 </r>
       <r>   -49.0000     0.0000    16.0000 </r>
       <r>   -48.7627     0.0000    16.0000 </r>
       <r>   -48.5254     0.0000    16.0000 </r>
       <r>   -48.2881     0.0000    16.0000 </r>
       <r>   -48.0509     0.0000    16.0000 </r>
       <r>   -47.8136     0.0000    16.0000 </r>
       <r>   -47.5763     0.0000    16.0000 </r>
       <r>   -47.3391     0.0000    16.0000 </r>
       <r>   -47.1018     0.0000    16.0000 </r>
       <r>   -46.8645     0.0000    16.0000 </r>
       <r>   -46.6272     0.0000    16.0000 </r>
       <r>   -46.3900     0.0000    16.0000 </r>
       <r>   -46.1527     0.0000    16.0000 </r>
       <r>   -45.9154     0.0000    16.0000 </r>
       <r>   -45.6781     0.0000    16.0000 </r>
       <r>   -45.4409     0.0000    16.0000 </r>
       <r>   -45.2036     0.0000    16.0000 </r>
       <r>   -44.9663     0.0000    16.0000 </r>
       <r>   -44.7290     0.0000    16.0000 </r>
       <r>   -44.4918     0.0000    16.0000 </r>
       <r>   -44.2545     0.0000    16.0000 </r>
       <r>   -44.0172     0.0000    16.0000 </r>
       <r>   -43.7800     0.0000    16.0000 </r>
       <r>   -43.5427     0.0000    16.0000 </r>
       <r>   -43.3054     0.0000    16.0000 </r>
       <r>   -43.0681     0.0000    16.0000 </r>
       <r>   -42.8309     0.0000    16.0000 </r>
       <r>   -42.5936     0.0000    16.0000 </r>
       <r>   -42.3563     0.0000    16.0000 </r>
       <r>   -42.1190     0.0000    16.0000 </r>
       <r>   -41.8818     0.0000    16.0000 </r>
       <r>   -41.6445     0.0000    16.0000 </r>
       <r>   -41.4072     0.0000    16.0000 </r>
       <r>   -41.1699     0.0000    16.0000 </r>
       <r>   -40.9327     0.0000    16.0000 </r>
       <r>   -40.6954     0.0000    16.0000 </r>
       <r>   -40.4581     0.0000    16.0000 </r>
       <r>   -40.2209     0.0000    16.0000 </r>
       <r>   -39.9836     0.0000    16.0000 </r>
       <r>   -39.7463     0.0000    16.0000 </r>
       <r>   -39.5090     0.0000    16.0000 </r>
       <r>   -39.2718     0.0000    16.0000 </r>
       <r>   -39.0345     0.0000    16.0000 </r>
       <r>   -38.7972     0.0000    16.0000 </r>
       <r>   -38.5599     0.0000    16.0000 </r>
       <r>   -38.3227     0.0000    16.0000 </r>
       <r>   -38.0854     0.0000    16.0000 </r>
       <r>   -37.8481     0.0000    16.0000 </r>
       <r>   -37.6108     0.0000    16.0000 </r>
       <r>   -37.3736     0.0000    16.0000 </r>
       <r>   -37.1363     0.0000    16.0000 </r>
       <r>   -36.8990     0.0000    16.0000 </r>
       <r>   -36.6617     0.0000    16.0000 </r>
       <r>   -36.4245     0.0000    16.0000 </r>
       <r>   -36.1872     0.0000    16.0000 </r>
       <r>   -35.9499     0.0000    16.0000 </r>
       <r>   -35.7127     0.0000    16.0000 </r>
       <r>   -35.4754     0.0000    16.0000 </r>
       <r>   -35.2381     0.0000    16.0000 </r>
       <r>   -35.0008     0.0000    16.0000 </r>
       <r>   -34.7636     0.0000    16.0000 </r>
       <r>   -34.5263    -0.0000    16.0000 </r>
       <r>   -34.2890    -0.0000    16.0000 </r>
       <r>   -34.0517    -0.0000    16.0000 </r>
       <r>   -33.8145    -0.0223    15.9947 </r>
       <r>   -33.5772     7.4438    17.7609 </r>
       <r>   -33.3399    71.6282    34.7564 </r>
       <r>   -33.1026    49.4631    46.4927 </r>
       <r>   -32.8654    61.7644    61.1477 </r>
       <r>   -32.6281    12.2593    64.0565 </r>
       <r>   -32.3908    -0.2380    64.0000 </r>
       <r>   -32.1536    -0.0001    64.0000 </r>
       <r>   -31.9163    -0.0000    64.0000 </r>
       <r>   -31.6790     0.0000    64.0000 </r>
       <r>   -31.4417     0.0000    64.0000 </r>
       <r>   -31.2045     0.0000    64.0000 </r>
       <r>   -30.9672     0.0000    64.0000 </r>
       <r>   -30.7299     0.0000    64.0000 </r>
       <r>   -30.4926     0.0000    64.0000 </r>
       <r>   -30.2554     0.0000    64.0000 </r>
       <r>   -30.0181     0.0000    64.0000 </r>
       <r>   -29.7808     0.0000    64.0000 </r>
       <r>   -29.5435     0.0000    64.0000 </r>
       <r>   -29.3063     0.0000    64.0000 </r>
       <r>   -29.0690     0.0000    64.0000 </r>
       <r>   -28.8317     0.0000    64.0000 </r>
       <r>   -28.5945     0.0000    64.0000 </r>
       <r>   -28.3572     0.0000    64.0000 </r>
       <r>   -28.1199     0.0000    64.0000 </r>
       <r>   -27.8826     0.0000    64.0000 </r>
       <r>   -27.6454     0.0000    64.0000 </r>
       <r>   -27.4081     0.0000    64.0000 </r>
       <r>   -27.1708     0.0000    64.0000 </r>
       <r>   -26.9335     0.0000    64.0000 </r>
       <r>   -26.6963     0.0000    64.0000 </r>
       <r>   -26.4590     0.0000    64.0000 </r>
       <r>   -26.2217     0.0000    64.0000 </r>
       <r>   -25.9844     0.0000    64.0000 </r>
       <r>   -25.7472     0.0000    64.0000 </r>
       <r>   -25.5099     0.0000    64.0000 </r>
       <r>   -25.2726     0.0000    64.0000 </r>
       <r>   -25.0354     0.0000    64.0000 </r>
       <r>   -24.7981     0.0000    64.0000 </r>
       <r>   -24.5608     0.0000    64.0000 </r>
       <r>   -24.3235     0.0000    64.0000 </r>
       <r>   -24.0863     0.0000    64.0000 </r>
       <r>   -23.8490     0.0000    64.0000 </r>
       <r>   -23.6117     0.0000    64.0000 </r>
       <r>   -23.3744     0.0000    64.0000 </r>
       <r>   -23.1372     0.0000    64.0000 </r>
       <r>   -22.8999     0.0000    64.0000 </r>
       <r>   -22.6626     0.0000    64.0000 </r>
       <r>   -22.4253     0.0000    64.0000 </r>
       <r>   -22.1881     0.0000    64.0000 </r>
       <r>   -21.9508     0.0000    64.0000 </r>
       <r>   -21.7135     0.0000    64.0000 </r>
       <r>   -21.4763     0.0000    64.0000 </r>
       <r>   -21.2390     0.0000    64.0000 </r>
       <r>   -21.0017     0.0000    64.0000 </r>
       <r>   -20.7644     0.0000    64.0000 </r>
       <r>   -20.5272     0.0000    64.0000 </r>
       <r>   -20.2899     0.0000    64.0000 </r>
       <r>   -20.0526     0.0000    64.0000 </r>
       <r>   -19.8153     0.0000    64.0000 </r>
       <r>   -19.5781     0.0000    64.0000 </r>
       <r>   -19.3408     0.0000    64.0000 </r>
       <r>   -19.1035     0.0000    64.0000 </r>
       <r>   -18.8662     0.0000    64.0000 </r>
       <r>   -18.6290     0.0000    64.0000 </r>
       <r>   -18.3917     0.0000    64.0000 </r>
       <r>   -18.1544     0.0000    64.0000 </r>
       <r>   -17.9172     0.0000    64.0000 </r>
       <r>   -17.6799     0.0000    64.0000 </r>
       <r>   -17.4426     0.0000    64.0000 </r>
       <r>   -17.2053     0.0000    64.0000 </r>
       <r>   -16.9681     0.0000    64.0000 </r>
       <r>   -16.7308     0.0000    64.0000 </r>
       <r>   -16.4935     0.0000    64.0000 </r>
       <r>   -16.2562     0.0000    64.0000 </r>
       <r>   -16.0190     0.0000    64.0000 </r>
       <r>   -15.7817     0.0000    64.0000 </r>
       <r>   -15.5444     0.0000    64.0000 </r>
       <r>   -15.3071    -0.0000    64.0000 </r>
       <r>   -15.0699    -0.0000    64.0000 </r>
       <r>   -14.8326    -0.0000    64.0000 </r>
       <r>   -14.5953    -1.1368    63.7303 </r>
       <r>   -14.3581    42.8792    73.9044 </r>
       <r>   -14.1208     0.4049    74.0004 </r>
       <r>   -13.8835    -0.0019    74.0000 </r>
       <r>   -13.6462    -0.0000    74.0000 </r>
       <r>   -13.4090     0.0000    74.0000 </r>
       <r>   -13.1717     0.0000    74.0000 </r>
       <r>   -12.9344     0.0000    74.0000 </r>
       <r>   -12.6971     0.0000    74.0000 </r>
       <r>   -12.4599     0.0000    74.0000 </r>
       <r>   -12.2226     0.0000    74.0000 </r>
       <r>   -11.9853     0.0000    74.0000 </r>
       <r>   -11.7480     0.0000    74.0000 </r>
       <r>   -11.5108     0.0000    74.0000 </r>
       <r>   -11.2735     0.0000    74.0000 </r>
       <r>   -11.0362     0.0000    74.0000 </r>
       <r>   -10.7990     0.0000    74.0000 </r>
       <r>   -10.5617     0.0000    74.0000 </r>
       <r>   -10.3244     0.0000    74.0000 </r>
       <r>   -10.0871     0.0000    74.0000 </r>
       <r>    -9.8499     0.0000    74.0000 </r>
       <r>    -9.6126     0.0000    74.0000 </r>
       <r>    -9.3753    -0.0000    74.0000 </r>
       <r>    -9.1380    -0.0000    74.0000 </r>
       <r>    -8.9008    -0.0000    74.0000 </r>
       <r>    -8.6635    -0.0028    73.9993 </r>
       <r>    -8.4262     0.2683    74.0630 </r>
       <r>    -8.1889     2.6345    74.6881 </r>
       <r>    -7.9517     1.6763    75.0858 </r>
       <r>    -7.7144     2.1634    75.5992 </r>
       <r>    -7.4771     1.8615    76.0408 </r>
       <r>    -7.2399     2.8975    76.7283 </r>
       <r>    -7.0026     2.4199    77.3025 </r>
       <r>    -6.7653     2.3577    77.8620 </r>
       <r>    -6.5280     1.3112    78.1731 </r>
       <r>    -6.2908     1.6700    78.5693 </r>
       <r>    -6.0535     3.3308    79.3596 </r>
       <r>    -5.8162     3.9367    80.2937 </r>
       <r>    -5.5789     3.2205    81.0578 </r>
       <r>    -5.3417     5.9943    82.4801 </r>
       <r>    -5.1044     3.5221    83.3158 </r>
       <r>    -4.8671     4.8503    84.4667 </r>
       <r>    -4.6298     3.9738    85.4095 </r>
       <r>    -4.3926     3.1187    86.1495 </r>
       <r>    -4.1553     3.4360    86.9648 </r>
       <r>    -3.9180     4.7299    88.0871 </r>
       <r>    -3.6808     3.4032    88.8946 </r>
       <r>    -3.4435     2.6993    89.5351 </r>
       <r>    -3.2062     4.0392    90.4934 </r>
       <r>    -2.9689     6.4514    92.0242 </r>
       <r>    -2.7317     5.3846    93.3018 </r>
       <r>    -2.4944     8.6574    95.3560 </r>
       <r>    -2.2571     7.9677    97.2465 </r>
       <r>    -2.0198     7.3524    98.9911 </r>
       <r>    -1.7826     9.8791   101.3351 </r>
       <r>    -1.5453    12.4454   104.2881 </r>
       <r>    -1.3080    16.8953   108.2969 </r>
       <r>    -1.0707    16.0639   112.1084 </r>
       <r>    -0.8335    11.9743   114.9496 </r>
       <r>    -0.5962    15.3858   118.6002 </r>
       <r>    -0.3589    19.5974   123.2501 </r>
       <r>    -0.1217    20.4767   128.1087 </r>
       <r>     0.1156    33.3053   136.0112 </r>
       <r>     0.3529    20.1255   140.7864 </r>
       <r>     0.5902    15.1616   144.3839 </r>
       <r>     0.8274    13.7545   147.6475 </r>
       <r>     1.0647    13.8399   150.9313 </r>
       <r>     1.3020    25.4415   156.9679 </r>
       <r>     1.5393    33.9985   165.0348 </r>
       <r>     1.7765    19.4781   169.6565 </r>
       <r>     2.0138    24.9820   175.5840 </r>
       <r>     2.2511    25.2039   181.5642 </r>
       <r>     2.4884    15.9994   185.3605 </r>
       <r>     2.7256    20.0642   190.1212 </r>
       <r>     2.9629     8.4981   192.1375 </r>
       <r>     3.2002     8.4485   194.1421 </r>
       <r>     3.4374     9.9227   196.4965 </r>
       <r>     3.6747    11.0031   199.1073 </r>
       <r>     3.9120    11.9102   201.9333 </r>
       <r>     4.1493    13.7345   205.1921 </r>
       <r>     4.3865    15.9904   208.9862 </r>
       <r>     4.6238    15.9430   212.7690 </r>
       <r>     4.8611    15.3290   216.4062 </r>
       <r>     5.0984     8.9918   218.5397 </r>
       <r>     5.3356    13.2598   221.6859 </r>
       <r>     5.5729    18.1991   226.0041 </r>
       <r>     5.8102    16.2195   229.8525 </r>
       <r>     6.0475    17.4256   233.9872 </r>
       <r>     6.2847    16.6470   237.9371 </r>
       <r>     6.5220    19.6912   242.6093 </r>
       <r>     6.7593    19.2518   247.1772 </r>
       <r>     6.9965    14.3828   250.5898 </r>
       <r>     7.2338    17.0888   254.6446 </r>
       <r>     7.4711     5.1839   255.8746 </r>
       <r>     7.7084     0.5388   256.0024 </r>
       <r>     7.9456    -0.0102   256.0000 </r>
       <r>     8.1829    -0.0000   256.0000 </r>
       <r>     8.4202     0.0000   256.0000 </r>
       <r>     8.6575     0.0000   256.0000 </r>
       <r>     8.8947     0.0000   256.0000 </r>
       <r>     9.1320     0.0000   256.0000 </r>
       <r>     9.3693     0.0000   256.0000 </r>
       <r>     9.6066     0.0000   256.0000 </r>
       <r>     9.8438     0.0000   256.0000 </r>
       <r>    10.0811     0.0000   256.0000 </r>
       <r>    10.3184     0.0000   256.0000 </r>
       <r>    10.5556     0.0000   256.0000 </r>
       <r>    10.7929     0.0000   256.0000 </r>
      </set>
     </set>
    </array>
   </total>
  </dos>
 </calculation>
 <structure name="finalpos" >
  <crystal>
   <varray name="basis" >
    <v>       5.64528606       0.00000000       0.00000000 </v>
    <v>       0.00000000       8.10998246       0.00000000 </v>
    <v>       0.00000000       0.00000000      19.23285154 </v>
   </varray>
   <i name="volume">    880.54093007 </i>
   <varray name="rec_basis" >
    <v>       0.17713894      -0.00000000      -0.00000000 </v>
    <v>       0.00000000       0.12330483      -0.00000000 </v>
    <v>       0.00000000       0.00000000       0.05199437 </v>
   </varray>
  </crystal>
  <varray name="positions" >
   <v>       0.00019716       0.00061719       0.38995778 </v>
   <v>       0.00019716       0.49938281       0.38995778 </v>
   <v>       0.49980284       0.00061719       0.38995778 </v>
   <v>       0.49980284       0.49938281       0.38995778 </v>
   <v>       0.00019716       0.00061719       0.53660358 </v>
   <v>       0.00019716       0.49938281       0.53660358 </v>
   <v>       0.49980284       0.00061719       0.53660358 </v>
   <v>       0.49980284       0.49938281       0.53660358 </v>
   <v>       0.25000000       0.25000000       0.46328068 </v>
   <v>       0.25000000       0.75000000       0.46328068 </v>
   <v>       0.75000000       0.25000000       0.46328068 </v>
   <v>       0.75000000       0.75000000       0.46328068 </v>
   <v>       0.25000000       0.25000000       0.61004222 </v>
   <v>       0.25000000       0.75000000       0.61004222 </v>
   <v>       0.75000000       0.25000000       0.61004222 </v>
   <v>       0.75000000       0.75000000       0.61004222 </v>
  </varray>
 </structure>
</modeling>
