  16  16   1   0
  0.1619388E+02  0.5606952E-09  0.5606952E-09  0.8241707E-09  0.5000000E-15
  1.000000000000000E-004
  CAR 
 unknown system                          
     25.41336074    -51.99252520 1000      8.26689080      1.00000000
    -51.993  0.0000E+00  0.0000E+00
    -51.915  0.0000E+00  0.0000E+00
    -51.838  0.0000E+00  0.0000E+00
    -51.760  0.0000E+00  0.0000E+00
    -51.683  0.0000E+00  0.0000E+00
    -51.605  0.0000E+00  0.0000E+00
    -51.528  0.0000E+00  0.0000E+00
    -51.450  0.0000E+00  0.0000E+00
    -51.373  0.0000E+00  0.0000E+00
    -51.295  0.0000E+00  0.0000E+00
    -51.218  0.0000E+00  0.0000E+00
    -51.140  0.0000E+00  0.0000E+00
    -51.063  0.0000E+00  0.0000E+00
    -50.985  0.0000E+00  0.0000E+00
    -50.908  0.0000E+00  0.0000E+00
    -50.830  0.0000E+00  0.0000E+00
    -50.753  0.0000E+00  0.0000E+00
    -50.675  0.0000E+00  0.0000E+00
    -50.598  0.0000E+00  0.0000E+00
    -50.520  0.0000E+00  0.0000E+00
    -50.443  0.0000E+00  0.0000E+00
    -50.365  0.0000E+00  0.0000E+00
    -50.288  0.0000E+00  0.0000E+00
    -50.210  0.0000E+00  0.0000E+00
    -50.133  0.0000E+00  0.0000E+00
    -50.055  0.0000E+00  0.0000E+00
    -49.978  0.0000E+00  0.0000E+00
    -49.900  0.0000E+00  0.0000E+00
    -49.823  0.0000E+00  0.0000E+00
    -49.746  0.0000E+00  0.0000E+00
    -49.668  0.0000E+00  0.0000E+00
    -49.591  0.0000E+00  0.0000E+00
    -49.513  0.0000E+00  0.0000E+00
    -49.436  0.0000E+00  0.0000E+00
    -49.358  0.0000E+00  0.0000E+00
    -49.281 -0.9440E-27 -0.7315E-28
    -49.203 -0.1414E-21 -0.1096E-22
    -49.126 -0.6379E-17 -0.4943E-18
    -49.048 -0.8450E-13 -0.6548E-14
    -48.971 -0.3383E-09 -0.2622E-10
    -48.893 -0.4044E-06 -0.3136E-07
    -48.816 -0.1417E-03 -0.1101E-04
    -48.738 -0.1413E-01 -0.1106E-02
    -48.661 -0.3721E+00 -0.2994E-01
    -48.583 -0.1838E+01 -0.1724E+00
    -48.506  0.6760E+01  0.3514E+00
    -48.428  0.4092E+02  0.3522E+01
    -48.351  0.5895E+02  0.8089E+01
    -48.273  0.3107E+02  0.1050E+02
    -48.196  0.2359E+02  0.1233E+02
    -48.118  0.2019E+02  0.1389E+02
    -48.041  0.2568E+01  0.1409E+02
    -47.963 -0.9929E+00  0.1401E+02
    -47.886 -0.1445E+00  0.1400E+02
    -47.808 -0.4351E-02  0.1400E+02
    -47.731 -0.3516E-04  0.1400E+02
    -47.653 -0.8081E-07  0.1400E+02
    -47.576 -0.5399E-10  0.1400E+02
    -47.498 -0.1099E-13  0.1400E+02
    -47.421  0.0000E+00  0.1400E+02
    -47.344  0.0000E+00  0.1400E+02
    -47.266  0.0000E+00  0.1400E+02
    -47.189  0.0000E+00  0.1400E+02
    -47.111  0.0000E+00  0.1400E+02
    -47.034  0.0000E+00  0.1400E+02
    -46.956  0.0000E+00  0.1400E+02
    -46.879  0.0000E+00  0.1400E+02
    -46.801  0.0000E+00  0.1400E+02
    -46.724  0.0000E+00  0.1400E+02
    -46.646  0.0000E+00  0.1400E+02
    -46.569  0.0000E+00  0.1400E+02
    -46.491  0.0000E+00  0.1400E+02
    -46.414  0.0000E+00  0.1400E+02
    -46.336  0.0000E+00  0.1400E+02
    -46.259  0.0000E+00  0.1400E+02
    -46.181  0.0000E+00  0.1400E+02
    -46.104  0.0000E+00  0.1400E+02
    -46.026  0.0000E+00  0.1400E+02
    -45.949  0.0000E+00  0.1400E+02
    -45.871  0.0000E+00  0.1400E+02
    -45.794  0.0000E+00  0.1400E+02
    -45.716  0.0000E+00  0.1400E+02
    -45.639  0.0000E+00  0.1400E+02
    -45.561  0.0000E+00  0.1400E+02
    -45.484  0.0000E+00  0.1400E+02
    -45.406  0.0000E+00  0.1400E+02
    -45.329  0.0000E+00  0.1400E+02
    -45.251  0.0000E+00  0.1400E+02
    -45.174  0.0000E+00  0.1400E+02
    -45.097  0.0000E+00  0.1400E+02
    -45.019  0.0000E+00  0.1400E+02
    -44.942  0.0000E+00  0.1400E+02
    -44.864  0.0000E+00  0.1400E+02
    -44.787  0.0000E+00  0.1400E+02
    -44.709  0.0000E+00  0.1400E+02
    -44.632  0.0000E+00  0.1400E+02
    -44.554  0.0000E+00  0.1400E+02
    -44.477  0.0000E+00  0.1400E+02
    -44.399  0.0000E+00  0.1400E+02
    -44.322  0.0000E+00  0.1400E+02
    -44.244  0.0000E+00  0.1400E+02
    -44.167  0.0000E+00  0.1400E+02
    -44.089  0.0000E+00  0.1400E+02
    -44.012  0.0000E+00  0.1400E+02
    -43.934  0.0000E+00  0.1400E+02
    -43.857  0.0000E+00  0.1400E+02
    -43.779  0.0000E+00  0.1400E+02
    -43.702  0.0000E+00  0.1400E+02
    -43.624  0.0000E+00  0.1400E+02
    -43.547  0.0000E+00  0.1400E+02
    -43.469  0.0000E+00  0.1400E+02
    -43.392  0.0000E+00  0.1400E+02
    -43.314  0.0000E+00  0.1400E+02
    -43.237  0.0000E+00  0.1400E+02
    -43.159  0.0000E+00  0.1400E+02
    -43.082  0.0000E+00  0.1400E+02
    -43.004  0.0000E+00  0.1400E+02
    -42.927  0.0000E+00  0.1400E+02
    -42.849  0.0000E+00  0.1400E+02
    -42.772  0.0000E+00  0.1400E+02
    -42.695  0.0000E+00  0.1400E+02
    -42.617  0.0000E+00  0.1400E+02
    -42.540  0.0000E+00  0.1400E+02
    -42.462  0.0000E+00  0.1400E+02
    -42.385  0.0000E+00  0.1400E+02
    -42.307  0.0000E+00  0.1400E+02
    -42.230  0.0000E+00  0.1400E+02
    -42.152  0.0000E+00  0.1400E+02
    -42.075  0.0000E+00  0.1400E+02
    -41.997  0.0000E+00  0.1400E+02
    -41.920  0.0000E+00  0.1400E+02
    -41.842  0.0000E+00  0.1400E+02
    -41.765  0.0000E+00  0.1400E+02
    -41.687  0.0000E+00  0.1400E+02
    -41.610  0.0000E+00  0.1400E+02
    -41.532  0.0000E+00  0.1400E+02
    -41.455  0.0000E+00  0.1400E+02
    -41.377  0.0000E+00  0.1400E+02
    -41.300  0.0000E+00  0.1400E+02
    -41.222  0.0000E+00  0.1400E+02
    -41.145  0.0000E+00  0.1400E+02
    -41.067  0.0000E+00  0.1400E+02
    -40.990  0.0000E+00  0.1400E+02
    -40.912  0.0000E+00  0.1400E+02
    -40.835  0.0000E+00  0.1400E+02
    -40.757  0.0000E+00  0.1400E+02
    -40.680  0.0000E+00  0.1400E+02
    -40.602  0.0000E+00  0.1400E+02
    -40.525  0.0000E+00  0.1400E+02
    -40.448  0.0000E+00  0.1400E+02
    -40.370  0.0000E+00  0.1400E+02
    -40.293  0.0000E+00  0.1400E+02
    -40.215  0.0000E+00  0.1400E+02
    -40.138  0.0000E+00  0.1400E+02
    -40.060  0.0000E+00  0.1400E+02
    -39.983  0.0000E+00  0.1400E+02
    -39.905  0.0000E+00  0.1400E+02
    -39.828  0.0000E+00  0.1400E+02
    -39.750  0.0000E+00  0.1400E+02
    -39.673  0.0000E+00  0.1400E+02
    -39.595  0.0000E+00  0.1400E+02
    -39.518  0.0000E+00  0.1400E+02
    -39.440  0.0000E+00  0.1400E+02
    -39.363  0.0000E+00  0.1400E+02
    -39.285  0.0000E+00  0.1400E+02
    -39.208  0.0000E+00  0.1400E+02
    -39.130  0.0000E+00  0.1400E+02
    -39.053  0.0000E+00  0.1400E+02
    -38.975  0.0000E+00  0.1400E+02
    -38.898  0.0000E+00  0.1400E+02
    -38.820  0.0000E+00  0.1400E+02
    -38.743  0.0000E+00  0.1400E+02
    -38.665  0.0000E+00  0.1400E+02
    -38.588  0.0000E+00  0.1400E+02
    -38.510  0.0000E+00  0.1400E+02
    -38.433  0.0000E+00  0.1400E+02
    -38.355  0.0000E+00  0.1400E+02
    -38.278  0.0000E+00  0.1400E+02
    -38.200  0.0000E+00  0.1400E+02
    -38.123  0.0000E+00  0.1400E+02
    -38.046  0.0000E+00  0.1400E+02
    -37.968  0.0000E+00  0.1400E+02
    -37.891  0.0000E+00  0.1400E+02
    -37.813  0.0000E+00  0.1400E+02
    -37.736  0.0000E+00  0.1400E+02
    -37.658  0.0000E+00  0.1400E+02
    -37.581  0.0000E+00  0.1400E+02
    -37.503  0.0000E+00  0.1400E+02
    -37.426  0.0000E+00  0.1400E+02
    -37.348  0.0000E+00  0.1400E+02
    -37.271  0.0000E+00  0.1400E+02
    -37.193  0.0000E+00  0.1400E+02
    -37.116  0.0000E+00  0.1400E+02
    -37.038  0.0000E+00  0.1400E+02
    -36.961  0.0000E+00  0.1400E+02
    -36.883  0.0000E+00  0.1400E+02
    -36.806  0.0000E+00  0.1400E+02
    -36.728  0.0000E+00  0.1400E+02
    -36.651  0.0000E+00  0.1400E+02
    -36.573  0.0000E+00  0.1400E+02
    -36.496  0.0000E+00  0.1400E+02
    -36.418  0.0000E+00  0.1400E+02
    -36.341  0.0000E+00  0.1400E+02
    -36.263  0.0000E+00  0.1400E+02
    -36.186  0.0000E+00  0.1400E+02
    -36.108  0.0000E+00  0.1400E+02
    -36.031  0.0000E+00  0.1400E+02
    -35.953  0.0000E+00  0.1400E+02
    -35.876  0.0000E+00  0.1400E+02
    -35.799  0.0000E+00  0.1400E+02
    -35.721  0.0000E+00  0.1400E+02
    -35.644  0.0000E+00  0.1400E+02
    -35.566  0.0000E+00  0.1400E+02
    -35.489  0.0000E+00  0.1400E+02
    -35.411  0.0000E+00  0.1400E+02
    -35.334  0.0000E+00  0.1400E+02
    -35.256  0.0000E+00  0.1400E+02
    -35.179  0.0000E+00  0.1400E+02
    -35.101  0.0000E+00  0.1400E+02
    -35.024  0.0000E+00  0.1400E+02
    -34.946  0.0000E+00  0.1400E+02
    -34.869  0.0000E+00  0.1400E+02
    -34.791  0.0000E+00  0.1400E+02
    -34.714  0.0000E+00  0.1400E+02
    -34.636  0.0000E+00  0.1400E+02
    -34.559  0.0000E+00  0.1400E+02
    -34.481  0.0000E+00  0.1400E+02
    -34.404  0.0000E+00  0.1400E+02
    -34.326  0.0000E+00  0.1400E+02
    -34.249  0.0000E+00  0.1400E+02
    -34.171  0.0000E+00  0.1400E+02
    -34.094  0.0000E+00  0.1400E+02
    -34.016  0.0000E+00  0.1400E+02
    -33.939  0.0000E+00  0.1400E+02
    -33.861  0.0000E+00  0.1400E+02
    -33.784  0.0000E+00  0.1400E+02
    -33.706  0.0000E+00  0.1400E+02
    -33.629  0.0000E+00  0.1400E+02
    -33.551  0.0000E+00  0.1400E+02
    -33.474  0.0000E+00  0.1400E+02
    -33.397  0.0000E+00  0.1400E+02
    -33.319  0.0000E+00  0.1400E+02
    -33.242  0.0000E+00  0.1400E+02
    -33.164  0.0000E+00  0.1400E+02
    -33.087  0.0000E+00  0.1400E+02
    -33.009  0.0000E+00  0.1400E+02
    -32.932  0.0000E+00  0.1400E+02
    -32.854  0.0000E+00  0.1400E+02
    -32.777  0.0000E+00  0.1400E+02
    -32.699  0.0000E+00  0.1400E+02
    -32.622  0.0000E+00  0.1400E+02
    -32.544  0.0000E+00  0.1400E+02
    -32.467  0.0000E+00  0.1400E+02
    -32.389  0.0000E+00  0.1400E+02
    -32.312  0.0000E+00  0.1400E+02
    -32.234  0.0000E+00  0.1400E+02
    -32.157  0.0000E+00  0.1400E+02
    -32.079  0.0000E+00  0.1400E+02
    -32.002  0.0000E+00  0.1400E+02
    -31.924  0.0000E+00  0.1400E+02
    -31.847  0.0000E+00  0.1400E+02
    -31.769  0.0000E+00  0.1400E+02
    -31.692  0.0000E+00  0.1400E+02
    -31.614  0.0000E+00  0.1400E+02
    -31.537  0.0000E+00  0.1400E+02
    -31.459  0.0000E+00  0.1400E+02
    -31.382  0.0000E+00  0.1400E+02
    -31.304  0.0000E+00  0.1400E+02
    -31.227  0.0000E+00  0.1400E+02
    -31.149  0.0000E+00  0.1400E+02
    -31.072  0.0000E+00  0.1400E+02
    -30.995  0.0000E+00  0.1400E+02
    -30.917  0.0000E+00  0.1400E+02
    -30.840  0.0000E+00  0.1400E+02
    -30.762  0.0000E+00  0.1400E+02
    -30.685  0.0000E+00  0.1400E+02
    -30.607  0.0000E+00  0.1400E+02
    -30.530  0.0000E+00  0.1400E+02
    -30.452  0.0000E+00  0.1400E+02
    -30.375  0.0000E+00  0.1400E+02
    -30.297  0.0000E+00  0.1400E+02
    -30.220  0.0000E+00  0.1400E+02
    -30.142  0.0000E+00  0.1400E+02
    -30.065  0.0000E+00  0.1400E+02
    -29.987  0.0000E+00  0.1400E+02
    -29.910  0.0000E+00  0.1400E+02
    -29.832  0.0000E+00  0.1400E+02
    -29.755  0.0000E+00  0.1400E+02
    -29.677  0.0000E+00  0.1400E+02
    -29.600  0.0000E+00  0.1400E+02
    -29.522  0.0000E+00  0.1400E+02
    -29.445  0.0000E+00  0.1400E+02
    -29.367  0.0000E+00  0.1400E+02
    -29.290  0.0000E+00  0.1400E+02
    -29.212  0.0000E+00  0.1400E+02
    -29.135  0.0000E+00  0.1400E+02
    -29.057  0.0000E+00  0.1400E+02
    -28.980  0.0000E+00  0.1400E+02
    -28.902  0.0000E+00  0.1400E+02
    -28.825  0.0000E+00  0.1400E+02
    -28.748  0.0000E+00  0.1400E+02
    -28.670  0.0000E+00  0.1400E+02
    -28.593  0.0000E+00  0.1400E+02
    -28.515  0.0000E+00  0.1400E+02
    -28.438  0.0000E+00  0.1400E+02
    -28.360  0.0000E+00  0.1400E+02
    -28.283  0.0000E+00  0.1400E+02
    -28.205  0.0000E+00  0.1400E+02
    -28.128  0.0000E+00  0.1400E+02
    -28.050  0.0000E+00  0.1400E+02
    -27.973  0.0000E+00  0.1400E+02
    -27.895  0.0000E+00  0.1400E+02
    -27.818  0.0000E+00  0.1400E+02
    -27.740  0.0000E+00  0.1400E+02
    -27.663  0.0000E+00  0.1400E+02
    -27.585  0.0000E+00  0.1400E+02
    -27.508  0.0000E+00  0.1400E+02
    -27.430  0.0000E+00  0.1400E+02
    -27.353  0.0000E+00  0.1400E+02
    -27.275  0.0000E+00  0.1400E+02
    -27.198  0.0000E+00  0.1400E+02
    -27.120  0.0000E+00  0.1400E+02
    -27.043  0.0000E+00  0.1400E+02
    -26.965  0.0000E+00  0.1400E+02
    -26.888  0.0000E+00  0.1400E+02
    -26.810  0.0000E+00  0.1400E+02
    -26.733  0.0000E+00  0.1400E+02
    -26.655  0.0000E+00  0.1400E+02
    -26.578  0.0000E+00  0.1400E+02
    -26.500  0.0000E+00  0.1400E+02
    -26.423  0.0000E+00  0.1400E+02
    -26.346  0.0000E+00  0.1400E+02
    -26.268  0.0000E+00  0.1400E+02
    -26.191  0.0000E+00  0.1400E+02
    -26.113  0.0000E+00  0.1400E+02
    -26.036  0.0000E+00  0.1400E+02
    -25.958  0.0000E+00  0.1400E+02
    -25.881  0.0000E+00  0.1400E+02
    -25.803  0.0000E+00  0.1400E+02
    -25.726 -0.4630E-30  0.1400E+02
    -25.648 -0.1301E-24  0.1400E+02
    -25.571 -0.1082E-19  0.1400E+02
    -25.493 -0.2696E-15  0.1400E+02
    -25.416 -0.1952E-11  0.1400E+02
    -25.338 -0.4349E-08  0.1400E+02
    -25.261 -0.2923E-05  0.1400E+02
    -25.183 -0.5991E-03  0.1400E+02
    -25.106 -0.3822E-01  0.1400E+02
    -25.028 -0.7647E+00  0.1394E+02
    -24.951 -0.3852E+01  0.1364E+02
    -24.873  0.1197E+02  0.1457E+02
    -24.796  0.9628E+02  0.2203E+02
    -24.718  0.1359E+03  0.3256E+02
    -24.641  0.7511E+02  0.3838E+02
    -24.563  0.5821E+02  0.4289E+02
    -24.486  0.4051E+02  0.4602E+02
    -24.408  0.3507E+02  0.4874E+02
    -24.331  0.4446E+02  0.5219E+02
    -24.253  0.3565E+02  0.5495E+02
    -24.176  0.1426E+02  0.5605E+02
    -24.099  0.1040E+00  0.5606E+02
    -24.021 -0.7296E+00  0.5601E+02
    -23.944 -0.7330E-01  0.5600E+02
    -23.866 -0.1829E-02  0.5600E+02
    -23.789 -0.1308E-04  0.5600E+02
    -23.711 -0.2769E-07  0.5600E+02
    -23.634 -0.1747E-10  0.5600E+02
    -23.556 -0.3184E-14  0.5600E+02
    -23.479  0.0000E+00  0.5600E+02
    -23.401  0.0000E+00  0.5600E+02
    -23.324  0.0000E+00  0.5600E+02
    -23.246  0.0000E+00  0.5600E+02
    -23.169  0.0000E+00  0.5600E+02
    -23.091  0.0000E+00  0.5600E+02
    -23.014  0.0000E+00  0.5600E+02
    -22.936  0.0000E+00  0.5600E+02
    -22.859  0.0000E+00  0.5600E+02
    -22.781  0.0000E+00  0.5600E+02
    -22.704  0.0000E+00  0.5600E+02
    -22.626  0.0000E+00  0.5600E+02
    -22.549  0.0000E+00  0.5600E+02
    -22.471  0.0000E+00  0.5600E+02
    -22.394  0.0000E+00  0.5600E+02
    -22.316  0.0000E+00  0.5600E+02
    -22.239  0.0000E+00  0.5600E+02
    -22.161  0.0000E+00  0.5600E+02
    -22.084  0.0000E+00  0.5600E+02
    -22.006  0.0000E+00  0.5600E+02
    -21.929  0.0000E+00  0.5600E+02
    -21.851  0.0000E+00  0.5600E+02
    -21.774  0.0000E+00  0.5600E+02
    -21.697  0.0000E+00  0.5600E+02
    -21.619  0.0000E+00  0.5600E+02
    -21.542  0.0000E+00  0.5600E+02
    -21.464  0.0000E+00  0.5600E+02
    -21.387  0.0000E+00  0.5600E+02
    -21.309  0.0000E+00  0.5600E+02
    -21.232  0.0000E+00  0.5600E+02
    -21.154  0.0000E+00  0.5600E+02
    -21.077  0.0000E+00  0.5600E+02
    -20.999  0.0000E+00  0.5600E+02
    -20.922  0.0000E+00  0.5600E+02
    -20.844  0.0000E+00  0.5600E+02
    -20.767  0.0000E+00  0.5600E+02
    -20.689  0.0000E+00  0.5600E+02
    -20.612  0.0000E+00  0.5600E+02
    -20.534  0.0000E+00  0.5600E+02
    -20.457  0.0000E+00  0.5600E+02
    -20.379  0.0000E+00  0.5600E+02
    -20.302  0.0000E+00  0.5600E+02
    -20.224  0.0000E+00  0.5600E+02
    -20.147  0.0000E+00  0.5600E+02
    -20.069  0.0000E+00  0.5600E+02
    -19.992  0.0000E+00  0.5600E+02
    -19.914  0.0000E+00  0.5600E+02
    -19.837  0.0000E+00  0.5600E+02
    -19.759  0.0000E+00  0.5600E+02
    -19.682  0.0000E+00  0.5600E+02
    -19.604  0.0000E+00  0.5600E+02
    -19.527  0.0000E+00  0.5600E+02
    -19.450  0.0000E+00  0.5600E+02
    -19.372  0.0000E+00  0.5600E+02
    -19.295  0.0000E+00  0.5600E+02
    -19.217  0.0000E+00  0.5600E+02
    -19.140  0.0000E+00  0.5600E+02
    -19.062  0.0000E+00  0.5600E+02
    -18.985  0.0000E+00  0.5600E+02
    -18.907  0.0000E+00  0.5600E+02
    -18.830  0.0000E+00  0.5600E+02
    -18.752  0.0000E+00  0.5600E+02
    -18.675  0.0000E+00  0.5600E+02
    -18.597  0.0000E+00  0.5600E+02
    -18.520  0.0000E+00  0.5600E+02
    -18.442  0.0000E+00  0.5600E+02
    -18.365  0.0000E+00  0.5600E+02
    -18.287  0.0000E+00  0.5600E+02
    -18.210  0.0000E+00  0.5600E+02
    -18.132  0.0000E+00  0.5600E+02
    -18.055  0.0000E+00  0.5600E+02
    -17.977  0.0000E+00  0.5600E+02
    -17.900  0.0000E+00  0.5600E+02
    -17.822  0.0000E+00  0.5600E+02
    -17.745  0.0000E+00  0.5600E+02
    -17.667  0.0000E+00  0.5600E+02
    -17.590  0.0000E+00  0.5600E+02
    -17.512  0.0000E+00  0.5600E+02
    -17.435  0.0000E+00  0.5600E+02
    -17.357  0.0000E+00  0.5600E+02
    -17.280  0.0000E+00  0.5600E+02
    -17.202  0.0000E+00  0.5600E+02
    -17.125  0.0000E+00  0.5600E+02
    -17.048  0.0000E+00  0.5600E+02
    -16.970  0.0000E+00  0.5600E+02
    -16.893  0.0000E+00  0.5600E+02
    -16.815  0.0000E+00  0.5600E+02
    -16.738  0.0000E+00  0.5600E+02
    -16.660  0.0000E+00  0.5600E+02
    -16.583  0.0000E+00  0.5600E+02
    -16.505  0.0000E+00  0.5600E+02
    -16.428  0.0000E+00  0.5600E+02
    -16.350  0.0000E+00  0.5600E+02
    -16.273  0.0000E+00  0.5600E+02
    -16.195  0.0000E+00  0.5600E+02
    -16.118  0.0000E+00  0.5600E+02
    -16.040  0.0000E+00  0.5600E+02
    -15.963  0.0000E+00  0.5600E+02
    -15.885  0.0000E+00  0.5600E+02
    -15.808  0.0000E+00  0.5600E+02
    -15.730  0.0000E+00  0.5600E+02
    -15.653  0.0000E+00  0.5600E+02
    -15.575  0.0000E+00  0.5600E+02
    -15.498  0.0000E+00  0.5600E+02
    -15.420  0.0000E+00  0.5600E+02
    -15.343  0.0000E+00  0.5600E+02
    -15.265  0.0000E+00  0.5600E+02
    -15.188  0.0000E+00  0.5600E+02
    -15.110  0.0000E+00  0.5600E+02
    -15.033  0.0000E+00  0.5600E+02
    -14.955  0.0000E+00  0.5600E+02
    -14.878  0.0000E+00  0.5600E+02
    -14.801  0.0000E+00  0.5600E+02
    -14.723  0.0000E+00  0.5600E+02
    -14.646  0.0000E+00  0.5600E+02
    -14.568  0.0000E+00  0.5600E+02
    -14.491  0.0000E+00  0.5600E+02
    -14.413  0.0000E+00  0.5600E+02
    -14.336  0.0000E+00  0.5600E+02
    -14.258  0.0000E+00  0.5600E+02
    -14.181  0.0000E+00  0.5600E+02
    -14.103  0.0000E+00  0.5600E+02
    -14.026  0.0000E+00  0.5600E+02
    -13.948  0.0000E+00  0.5600E+02
    -13.871  0.0000E+00  0.5600E+02
    -13.793  0.0000E+00  0.5600E+02
    -13.716  0.0000E+00  0.5600E+02
    -13.638  0.0000E+00  0.5600E+02
    -13.561  0.0000E+00  0.5600E+02
    -13.483  0.0000E+00  0.5600E+02
    -13.406  0.0000E+00  0.5600E+02
    -13.328  0.0000E+00  0.5600E+02
    -13.251  0.0000E+00  0.5600E+02
    -13.173  0.0000E+00  0.5600E+02
    -13.096  0.0000E+00  0.5600E+02
    -13.018  0.0000E+00  0.5600E+02
    -12.941  0.0000E+00  0.5600E+02
    -12.863  0.0000E+00  0.5600E+02
    -12.786  0.0000E+00  0.5600E+02
    -12.708  0.0000E+00  0.5600E+02
    -12.631  0.0000E+00  0.5600E+02
    -12.553  0.0000E+00  0.5600E+02
    -12.476  0.0000E+00  0.5600E+02
    -12.399  0.0000E+00  0.5600E+02
    -12.321  0.0000E+00  0.5600E+02
    -12.244  0.0000E+00  0.5600E+02
    -12.166  0.0000E+00  0.5600E+02
    -12.089  0.0000E+00  0.5600E+02
    -12.011  0.0000E+00  0.5600E+02
    -11.934  0.0000E+00  0.5600E+02
    -11.856  0.0000E+00  0.5600E+02
    -11.779  0.0000E+00  0.5600E+02
    -11.701  0.0000E+00  0.5600E+02
    -11.624  0.0000E+00  0.5600E+02
    -11.546  0.0000E+00  0.5600E+02
    -11.469  0.0000E+00  0.5600E+02
    -11.391  0.0000E+00  0.5600E+02
    -11.314  0.0000E+00  0.5600E+02
    -11.236  0.0000E+00  0.5600E+02
    -11.159  0.0000E+00  0.5600E+02
    -11.081  0.0000E+00  0.5600E+02
    -11.004  0.0000E+00  0.5600E+02
    -10.926  0.0000E+00  0.5600E+02
    -10.849  0.0000E+00  0.5600E+02
    -10.771  0.0000E+00  0.5600E+02
    -10.694  0.0000E+00  0.5600E+02
    -10.616  0.0000E+00  0.5600E+02
    -10.539  0.0000E+00  0.5600E+02
    -10.461  0.0000E+00  0.5600E+02
    -10.384  0.0000E+00  0.5600E+02
    -10.306  0.0000E+00  0.5600E+02
    -10.229  0.0000E+00  0.5600E+02
    -10.152  0.0000E+00  0.5600E+02
    -10.074  0.0000E+00  0.5600E+02
     -9.997  0.0000E+00  0.5600E+02
     -9.919  0.0000E+00  0.5600E+02
     -9.842  0.0000E+00  0.5600E+02
     -9.764  0.0000E+00  0.5600E+02
     -9.687  0.0000E+00  0.5600E+02
     -9.609  0.0000E+00  0.5600E+02
     -9.532  0.0000E+00  0.5600E+02
     -9.454  0.0000E+00  0.5600E+02
     -9.377  0.0000E+00  0.5600E+02
     -9.299  0.0000E+00  0.5600E+02
     -9.222  0.0000E+00  0.5600E+02
     -9.144  0.0000E+00  0.5600E+02
     -9.067  0.0000E+00  0.5600E+02
     -8.989  0.0000E+00  0.5600E+02
     -8.912  0.0000E+00  0.5600E+02
     -8.834  0.0000E+00  0.5600E+02
     -8.757  0.0000E+00  0.5600E+02
     -8.679  0.0000E+00  0.5600E+02
     -8.602  0.0000E+00  0.5600E+02
     -8.524  0.0000E+00  0.5600E+02
     -8.447  0.0000E+00  0.5600E+02
     -8.369  0.0000E+00  0.5600E+02
     -8.292  0.0000E+00  0.5600E+02
     -8.214  0.0000E+00  0.5600E+02
     -8.137  0.0000E+00  0.5600E+02
     -8.059  0.0000E+00  0.5600E+02
     -7.982  0.0000E+00  0.5600E+02
     -7.904  0.0000E+00  0.5600E+02
     -7.827  0.0000E+00  0.5600E+02
     -7.750  0.0000E+00  0.5600E+02
     -7.672  0.0000E+00  0.5600E+02
     -7.595  0.0000E+00  0.5600E+02
     -7.517  0.0000E+00  0.5600E+02
     -7.440  0.0000E+00  0.5600E+02
     -7.362 -0.7110E-26  0.5600E+02
     -7.285 -0.9841E-21  0.5600E+02
     -7.207 -0.4063E-16  0.5600E+02
     -7.130 -0.4845E-12  0.5600E+02
     -7.052 -0.1747E-08  0.5600E+02
     -6.975 -0.1850E-05  0.5600E+02
     -6.897 -0.5667E-03  0.5600E+02
     -6.820 -0.4859E-01  0.5600E+02
     -6.742 -0.1055E+01  0.5591E+02
     -6.665 -0.3018E+01  0.5568E+02
     -6.587  0.2558E+02  0.5766E+02
     -6.510  0.7424E+02  0.6342E+02
     -6.432  0.3635E+02  0.6623E+02
     -6.355 -0.1321E+01  0.6613E+02
     -6.277 -0.1561E+01  0.6601E+02
     -6.200 -0.1091E+00  0.6600E+02
     -6.122 -0.1965E-02  0.6600E+02
     -6.045 -0.1028E-04  0.6600E+02
     -5.967 -0.1603E-07  0.6600E+02
     -5.890 -0.7475E-11  0.6600E+02
     -5.812  0.0000E+00  0.6600E+02
     -5.735  0.0000E+00  0.6600E+02
     -5.657  0.0000E+00  0.6600E+02
     -5.580  0.0000E+00  0.6600E+02
     -5.503  0.0000E+00  0.6600E+02
     -5.425  0.0000E+00  0.6600E+02
     -5.348  0.0000E+00  0.6600E+02
     -5.270  0.0000E+00  0.6600E+02
     -5.193  0.0000E+00  0.6600E+02
     -5.115  0.0000E+00  0.6600E+02
     -5.038  0.0000E+00  0.6600E+02
     -4.960  0.0000E+00  0.6600E+02
     -4.883  0.0000E+00  0.6600E+02
     -4.805  0.0000E+00  0.6600E+02
     -4.728  0.0000E+00  0.6600E+02
     -4.650  0.0000E+00  0.6600E+02
     -4.573  0.0000E+00  0.6600E+02
     -4.495  0.0000E+00  0.6600E+02
     -4.418  0.0000E+00  0.6600E+02
     -4.340  0.0000E+00  0.6600E+02
     -4.263  0.0000E+00  0.6600E+02
     -4.185  0.0000E+00  0.6600E+02
     -4.108  0.0000E+00  0.6600E+02
     -4.030  0.0000E+00  0.6600E+02
     -3.953  0.0000E+00  0.6600E+02
     -3.875  0.0000E+00  0.6600E+02
     -3.798  0.0000E+00  0.6600E+02
     -3.720  0.0000E+00  0.6600E+02
     -3.643  0.0000E+00  0.6600E+02
     -3.565  0.0000E+00  0.6600E+02
     -3.488  0.0000E+00  0.6600E+02
     -3.410  0.0000E+00  0.6600E+02
     -3.333  0.0000E+00  0.6600E+02
     -3.255  0.0000E+00  0.6600E+02
     -3.178  0.0000E+00  0.6600E+02
     -3.101  0.0000E+00  0.6600E+02
     -3.023  0.0000E+00  0.6600E+02
     -2.946  0.0000E+00  0.6600E+02
     -2.868  0.0000E+00  0.6600E+02
     -2.791  0.0000E+00  0.6600E+02
     -2.713  0.0000E+00  0.6600E+02
     -2.636  0.0000E+00  0.6600E+02
     -2.558  0.0000E+00  0.6600E+02
     -2.481  0.0000E+00  0.6600E+02
     -2.403  0.0000E+00  0.6600E+02
     -2.326  0.0000E+00  0.6600E+02
     -2.248  0.0000E+00  0.6600E+02
     -2.171 -0.3802E-28  0.6600E+02
     -2.093 -0.4807E-23  0.6600E+02
     -2.016 -0.1809E-18  0.6600E+02
     -1.938 -0.1959E-14  0.6600E+02
     -1.861 -0.6388E-11  0.6600E+02
     -1.783 -0.6077E-08  0.6600E+02
     -1.706 -0.1656E-05  0.6600E+02
     -1.628 -0.1242E-03  0.6600E+02
     -1.551 -0.2306E-02  0.6600E+02
     -1.473 -0.6235E-02  0.6600E+02
     -1.396  0.2673E-01  0.6600E+02
     -1.318  0.1488E+00  0.6601E+02
     -1.241  0.5139E+00  0.6605E+02
     -1.163  0.9638E+00  0.6613E+02
     -1.086  0.1431E+01  0.6624E+02
     -1.008  0.1347E+01  0.6634E+02
     -0.931  0.1156E+01  0.6643E+02
     -0.854  0.1047E+01  0.6651E+02
     -0.776  0.1765E+01  0.6665E+02
     -0.699  0.2299E+01  0.6683E+02
     -0.621  0.2280E+01  0.6700E+02
     -0.544  0.1431E+01  0.6712E+02
     -0.466  0.1478E+01  0.6723E+02
     -0.389  0.2213E+01  0.6740E+02
     -0.311  0.2687E+01  0.6761E+02
     -0.234  0.1826E+01  0.6775E+02
     -0.156  0.1120E+01  0.6784E+02
     -0.079  0.1443E+01  0.6795E+02
     -0.001  0.1408E+01  0.6806E+02
      0.076  0.1356E+01  0.6816E+02
      0.154  0.1816E+01  0.6830E+02
      0.231  0.2054E+01  0.6846E+02
      0.309  0.1216E+01  0.6856E+02
      0.386  0.9819E+00  0.6863E+02
      0.464  0.2188E+01  0.6880E+02
      0.541  0.3283E+01  0.6906E+02
      0.619  0.2694E+01  0.6927E+02
      0.696  0.9468E+00  0.6934E+02
      0.774  0.1262E+01  0.6944E+02
      0.851  0.3378E+01  0.6970E+02
      0.929  0.4444E+01  0.7004E+02
      1.006  0.3773E+01  0.7034E+02
      1.084  0.3072E+01  0.7057E+02
      1.161  0.2913E+01  0.7080E+02
      1.239  0.2592E+01  0.7100E+02
      1.316  0.4223E+01  0.7133E+02
      1.394  0.4574E+01  0.7168E+02
      1.471  0.1887E+01  0.7183E+02
      1.548  0.7062E+00  0.7188E+02
      1.626  0.2615E+01  0.7209E+02
      1.703  0.5274E+01  0.7249E+02
      1.781  0.3728E+01  0.7278E+02
      1.858  0.2166E+01  0.7295E+02
      1.936  0.4592E+01  0.7331E+02
      2.013  0.4002E+01  0.7362E+02
      2.091  0.1359E+01  0.7372E+02
      2.168  0.2367E+01  0.7391E+02
      2.246  0.3264E+01  0.7416E+02
      2.323  0.2181E+01  0.7433E+02
      2.401  0.4201E+01  0.7465E+02
      2.478  0.5143E+01  0.7505E+02
      2.556  0.2840E+01  0.7527E+02
      2.633  0.3606E+01  0.7555E+02
      2.711  0.3837E+01  0.7585E+02
      2.788  0.4410E+01  0.7619E+02
      2.866  0.4586E+01  0.7655E+02
      2.943  0.3708E+01  0.7683E+02
      3.021  0.4184E+01  0.7716E+02
      3.098  0.4284E+01  0.7749E+02
      3.176  0.3055E+01  0.7773E+02
      3.253  0.2610E+01  0.7793E+02
      3.331  0.4423E+01  0.7827E+02
      3.408  0.5681E+01  0.7871E+02
      3.486  0.3765E+01  0.7900E+02
      3.563  0.3204E+01  0.7925E+02
      3.641  0.5082E+01  0.7965E+02
      3.718  0.6877E+01  0.8018E+02
      3.796  0.5891E+01  0.8063E+02
      3.873  0.4573E+01  0.8099E+02
      3.950  0.5812E+01  0.8144E+02
      4.028  0.3856E+01  0.8174E+02
      4.105  0.2022E+01  0.8189E+02
      4.183  0.2209E+01  0.8207E+02
      4.260  0.2780E+01  0.8228E+02
      4.338  0.3655E+01  0.8256E+02
      4.415  0.4055E+01  0.8288E+02
      4.493  0.5517E+01  0.8331E+02
      4.570  0.5742E+01  0.8375E+02
      4.648  0.4325E+01  0.8409E+02
      4.725  0.4312E+01  0.8442E+02
      4.803  0.5704E+01  0.8486E+02
      4.880  0.6221E+01  0.8534E+02
      4.958  0.5270E+01  0.8575E+02
      5.035  0.5521E+01  0.8618E+02
      5.113  0.6502E+01  0.8668E+02
      5.190  0.7208E+01  0.8724E+02
      5.268  0.6858E+01  0.8777E+02
      5.345  0.7890E+01  0.8839E+02
      5.423  0.5872E+01  0.8884E+02
      5.500  0.2767E+01  0.8905E+02
      5.578  0.5567E+01  0.8949E+02
      5.655  0.9495E+01  0.9022E+02
      5.733  0.7991E+01  0.9084E+02
      5.810  0.8559E+01  0.9150E+02
      5.888  0.1095E+02  0.9235E+02
      5.965  0.1075E+02  0.9319E+02
      6.043  0.1056E+02  0.9400E+02
      6.120  0.1004E+02  0.9478E+02
      6.197  0.9121E+01  0.9549E+02
      6.275  0.7837E+01  0.9610E+02
      6.352  0.1046E+02  0.9691E+02
      6.430  0.1155E+02  0.9780E+02
      6.507  0.1143E+02  0.9869E+02
      6.585  0.1593E+02  0.9992E+02
      6.662  0.1624E+02  0.1012E+03
      6.740  0.1087E+02  0.1020E+03
      6.817  0.9644E+01  0.1028E+03
      6.895  0.1215E+02  0.1037E+03
      6.972  0.1300E+02  0.1047E+03
      7.050  0.1123E+02  0.1056E+03
      7.127  0.1102E+02  0.1064E+03
      7.205  0.9708E+01  0.1072E+03
      7.282  0.7568E+01  0.1078E+03
      7.360  0.8576E+01  0.1084E+03
      7.437  0.1028E+02  0.1092E+03
      7.515  0.1154E+02  0.1101E+03
      7.592  0.1181E+02  0.1110E+03
      7.670  0.1377E+02  0.1121E+03
      7.747  0.1745E+02  0.1135E+03
      7.825  0.1903E+02  0.1149E+03
      7.902  0.1849E+02  0.1164E+03
      7.980  0.1675E+02  0.1177E+03
      8.057  0.1403E+02  0.1188E+03
      8.135  0.1057E+02  0.1196E+03
      8.212  0.9707E+01  0.1203E+03
      8.290  0.1243E+02  0.1213E+03
      8.367  0.1317E+02  0.1223E+03
      8.445  0.1324E+02  0.1233E+03
      8.522  0.9585E+01  0.1241E+03
      8.599  0.8053E+01  0.1247E+03
      8.677  0.9277E+01  0.1254E+03
      8.754  0.9515E+01  0.1262E+03
      8.832  0.1285E+02  0.1272E+03
      8.909  0.1588E+02  0.1284E+03
      8.987  0.1266E+02  0.1294E+03
      9.064  0.1003E+02  0.1301E+03
      9.142  0.9301E+01  0.1309E+03
      9.219  0.1099E+02  0.1317E+03
      9.297  0.1219E+02  0.1327E+03
      9.374  0.1188E+02  0.1336E+03
      9.452  0.1649E+02  0.1349E+03
      9.529  0.1785E+02  0.1362E+03
      9.607  0.1396E+02  0.1373E+03
      9.684  0.1367E+02  0.1384E+03
      9.762  0.1345E+02  0.1394E+03
      9.839  0.1523E+02  0.1406E+03
      9.917  0.1691E+02  0.1419E+03
      9.994  0.2347E+02  0.1437E+03
     10.072  0.2506E+02  0.1457E+03
     10.149  0.2277E+02  0.1474E+03
     10.227  0.2442E+02  0.1493E+03
     10.304  0.2454E+02  0.1512E+03
     10.382  0.1903E+02  0.1527E+03
     10.459  0.1772E+02  0.1541E+03
     10.537  0.2025E+02  0.1557E+03
     10.614  0.1873E+02  0.1571E+03
     10.692  0.1651E+02  0.1584E+03
     10.769  0.1449E+02  0.1595E+03
     10.846  0.1349E+02  0.1606E+03
     10.924  0.8501E+01  0.1612E+03
     11.001  0.1049E+02  0.1620E+03
     11.079  0.1224E+02  0.1630E+03
     11.156  0.7990E+01  0.1636E+03
     11.234  0.7448E+01  0.1642E+03
     11.311  0.1085E+02  0.1650E+03
     11.389  0.1164E+02  0.1659E+03
     11.466  0.1136E+02  0.1668E+03
     11.544  0.1274E+02  0.1678E+03
     11.621  0.8216E+01  0.1684E+03
     11.699  0.7762E+01  0.1690E+03
     11.776  0.1163E+02  0.1699E+03
     11.854  0.1112E+02  0.1708E+03
     11.931  0.1003E+02  0.1716E+03