   16   16    1    1
  0.1619388E+02  0.5606952E-09  0.5606952E-09  0.8241707E-09  0.5000000E-15
  1.000000000000000E-004
  CAR 
 unknown system                          
    121     30    128
 
  0.1276756E-14  0.1276756E-14  0.1276756E-14  0.6944444E-02
      1        -48.474076   1.000000
      2        -48.449519   1.000000
      3        -48.385778   1.000000
      4        -48.370216   1.000000
      5        -48.362413   1.000000
      6        -48.226501   1.000000
      7        -48.169853   1.000000
      8        -24.875106   1.000000
      9        -24.875106   1.000000
     10        -24.824393   1.000000
     11        -24.808063   1.000000
     12        -24.808063   1.000000
     13        -24.798488   1.000000
     14        -24.787314   1.000000
     15        -24.780952   1.000000
     16        -24.780952   1.000000
     17        -24.765862   1.000000
     18        -24.733039   1.000000
     19        -24.733039   1.000000
     20        -24.718850   1.000000
     21        -24.588576   1.000000
     22        -24.561932   1.000000
     23        -24.379255   1.000000
     24        -24.379255   1.000000
     25        -24.291850   1.000000
     26        -24.291850   1.000000
     27        -24.230284   1.000000
     28        -24.230284   1.000000
     29         -6.554890   1.000000
     30         -6.554380   1.000000
     31         -6.554380   1.000000
     32         -6.545735   1.000000
     33         -6.510422   1.000000
     34         -1.367359   1.000000
     35          0.407278   1.000000
     36          1.423647   1.000000
     37          3.421326   1.000000
     38          3.421326   1.000000
     39          3.447867   1.000000
     40          3.447867   1.000000
     41          3.460096   1.000000
     42          3.753443   1.000000
     43          4.823938   1.000000
     44          5.231862   1.000000
     45          5.235480   1.000000
     46          5.682958   1.000000
     47          6.074990   1.000000
     48          6.134003   1.000000
     49          6.134003   1.000000
     50          6.423242   1.000000
     51          6.423242   1.000000
     52          6.576468   1.000000
     53          6.752366   1.000000
     54          6.752366   1.000000
     55          7.127241   1.000000
     56          7.281501   1.000000
     57          7.464350   1.000000
     58          7.691532   1.000000
     59          7.691532   1.000000
     60          7.765253   1.000000
     61          7.782493   1.000000
     62          8.247059   0.664224
     63          8.324660   0.090248
     64          8.324660   0.090248
     65          8.949873  -0.000000
     66          9.354468  -0.000000
     67          9.630909  -0.000000
     68          9.915710  -0.000000
     69         10.023092  -0.000000
     70         10.053870  -0.000000
     71         10.054996  -0.000000
     72         10.118209  -0.000000
     73         10.226624  -0.000000
     74         10.226624  -0.000000
     75         10.501868   0.000000
     76         10.501868   0.000000
     77         10.524576   0.000000
     78         10.736614   0.000000
     79         10.736614   0.000000
     80         10.915508   0.000000
     81         11.244289   0.000000
     82         11.418416   0.000000
     83         11.418416   0.000000
     84         11.604823   0.000000
     85         11.604823   0.000000
     86         11.641698   0.000000
     87         12.222241   0.000000
     88         12.479951   0.000000
     89         12.511051   0.000000
     90         12.532961   0.000000
     91         12.852066   0.000000
     92         12.852066   0.000000
     93         12.939169   0.000000
     94         13.153001   0.000000
     95         13.199959   0.000000
     96         13.199959   0.000000
     97         13.568934   0.000000
     98         13.590919   0.000000
     99         14.158947   0.000000
    100         14.348837   0.000000
    101         15.622353   0.000000
    102         15.622353   0.000000
    103         16.008867   0.000000
    104         16.253803   0.000000
    105         16.340873   0.000000
    106         16.416298   0.000000
    107         16.416298   0.000000
    108         17.220027   0.000000
    109         17.226590   0.000000
    110         17.527659   0.000000
    111         17.527659   0.000000
    112         18.702553   0.000000
    113         18.737765   0.000000
    114         18.737765   0.000000
    115         19.150888   0.000000
    116         19.211753   0.000000
    117         19.838963   0.000000
    118         19.838963   0.000000
    119         20.384326   0.000000
    120         20.384326   0.000000
    121         20.733595   0.000000
    122         20.788373   0.000000
    123         20.833573   0.000000
    124         20.833573   0.000000
    125         20.852809   0.000000
    126         21.368262   0.000000
    127         21.412880   0.000000
    128         21.412900   0.000000
 
  0.1666667E+00  0.1276756E-14  0.1276756E-14  0.2777778E-01
      1        -48.471709   1.000000
      2        -48.449626   1.000000
      3        -48.383158   1.000000
      4        -48.372530   1.000000
      5        -48.362630   1.000000
      6        -48.227489   1.000000
      7        -48.171384   1.000000
      8        -24.873324   1.000000
      9        -24.846578   1.000000
     10        -24.821932   1.000000
     11        -24.803761   1.000000
     12        -24.798759   1.000000
     13        -24.784937   1.000000
     14        -24.782626   1.000000
     15        -24.778064   1.000000
     16        -24.776073   1.000000
     17        -24.766163   1.000000
     18        -24.737352   1.000000
     19        -24.721068   1.000000
     20        -24.703677   1.000000
     21        -24.589186   1.000000
     22        -24.563504   1.000000
     23        -24.412681   1.000000
     24        -24.379392   1.000000
     25        -24.325101   1.000000
     26        -24.289974   1.000000
     27        -24.261850   1.000000
     28        -24.232229   1.000000
     29         -6.554339   1.000000
     30         -6.554321   1.000000
     31         -6.554056   1.000000
     32         -6.543437   1.000000
     33         -6.510049   1.000000
     34         -1.239644   1.000000
     35          0.513519   1.000000
     36          1.362458   1.000000
     37          2.478546   1.000000
     38          2.901677   1.000000
     39          3.498600   1.000000
     40          3.560134   1.000000
     41          3.710073   1.000000
     42          4.847041   1.000000
     43          5.047209   1.000000
     44          5.082005   1.000000
     45          5.237874   1.000000
     46          5.690534   1.000000
     47          5.821146   1.000000
     48          5.960500   1.000000
     49          6.106162   1.000000
     50          6.296443   1.000000
     51          6.595387   1.000000
     52          6.750928   1.000000
     53          6.763504   1.000000
     54          6.788005   1.000000
     55          6.878588   1.000000
     56          7.279298   1.000000
     57          7.413209   1.000000
     58          7.556106   1.000000
     59          7.778582   1.000000
     60          7.816834   1.000000
     61          8.071508   1.009254
     62          8.188358   0.986199
     63          8.427119  -0.022960
     64          8.766665  -0.000000
     65          9.039099  -0.000000
     66          9.438146  -0.000000
     67          9.552120  -0.000000
     68          9.769767  -0.000000
     69          9.954035  -0.000000
     70         10.036341  -0.000000
     71         10.053415  -0.000000
     72         10.165673  -0.000000
     73         10.242247  -0.000000
     74         10.242811  -0.000000
     75         10.499252   0.000000
     76         10.505925   0.000000
     77         10.518331   0.000000
     78         10.553429   0.000000
     79         10.712768   0.000000
     80         10.756215   0.000000
     81         10.779633   0.000000
     82         11.372872   0.000000
     83         11.465786   0.000000
     84         11.511352   0.000000
     85         11.620938   0.000000
     86         11.705301   0.000000
     87         12.156097   0.000000
     88         12.269671   0.000000
     89         12.377818   0.000000
     90         12.654101   0.000000
     91         12.937485   0.000000
     92         13.116198   0.000000
     93         13.136766   0.000000
     94         13.237691   0.000000
     95         13.526917   0.000000
     96         13.596785   0.000000
     97         13.691202   0.000000
     98         13.809988   0.000000
     99         14.329147   0.000000
    100         14.452879   0.000000
    101         14.934868   0.000000
    102         15.499334   0.000000
    103         15.592116   0.000000
    104         16.254173   0.000000
    105         16.280406   0.000000
    106         16.517775   0.000000
    107         16.590544   0.000000
    108         17.256003   0.000000
    109         17.313986   0.000000
    110         17.321585   0.000000
    111         17.812856   0.000000
    112         18.562418   0.000000
    113         18.621864   0.000000
    114         18.788406   0.000000
    115         18.824797   0.000000
    116         19.379286   0.000000
    117         19.492505   0.000000
    118         19.557096   0.000000
    119         19.670889   0.000000
    120         19.975321   0.000000
    121         20.055595   0.000000
    122         20.155123   0.000000
    123         20.234879   0.000000
    124         20.495058   0.000000
    125         20.661340   0.000000
    126         20.912922   0.000000
    127         20.992302   0.000000
    128         21.556919   0.000000
 
  0.3333333E+00  0.1276756E-14  0.1276756E-14  0.2777778E-01
      1        -48.466507   1.000000
      2        -48.449974   1.000000
      3        -48.377502   1.000000
      4        -48.376614   1.000000
      5        -48.364322   1.000000
      6        -48.229418   1.000000
      7        -48.174548   1.000000
      8        -24.869543   1.000000
      9        -24.816382   1.000000
     10        -24.800375   1.000000
     11        -24.799692   1.000000
     12        -24.792815   1.000000
     13        -24.786167   1.000000
     14        -24.778970   1.000000
     15        -24.767920   1.000000
     16        -24.748337   1.000000
     17        -24.737679   1.000000
     18        -24.725803   1.000000
     19        -24.690022   1.000000
     20        -24.628076   1.000000
     21        -24.590290   1.000000
     22        -24.566811   1.000000
     23        -24.503156   1.000000
     24        -24.411636   1.000000
     25        -24.379690   1.000000
     26        -24.344043   1.000000
     27        -24.285797   1.000000
     28        -24.236590   1.000000
     29         -6.554262   1.000000
     30         -6.553673   1.000000
     31         -6.553411   1.000000
     32         -6.538367   1.000000
     33         -6.509303   1.000000
     34         -0.880860   1.000000
     35          0.793870   1.000000
     36          0.826159   1.000000
     37          2.089725   1.000000
     38          2.318513   1.000000
     39          3.709739   1.000000
     40          3.887785   1.000000
     41          4.055195   1.000000
     42          4.471034   1.000000
     43          4.706093   1.000000
     44          5.147061   1.000000
     45          5.229422   1.000000
     46          5.644419   1.000000
     47          5.886200   1.000000
     48          5.951335   1.000000
     49          6.025437   1.000000
     50          6.607062   1.000000
     51          6.678803   1.000000
     52          6.813923   1.000000
     53          6.952439   1.000000
     54          7.019756   1.000000
     55          7.290210   1.000000
     56          7.291361   1.000000
     57          7.546841   1.000000
     58          7.697239   1.000000
     59          7.765498   1.000000
     60          7.883145   1.000000
     61          8.112097   1.025474
     62          8.478624  -0.005373
     63          8.645239  -0.000001
     64          8.853931  -0.000000
     65          9.090614  -0.000000
     66          9.216522  -0.000000
     67          9.301279  -0.000000
     68          9.448275  -0.000000
     69          9.613744  -0.000000
     70          9.909224  -0.000000
     71         10.023920  -0.000000
     72         10.156118  -0.000000
     73         10.164792  -0.000000
     74         10.234702  -0.000000
     75         10.304934   0.000000
     76         10.406573   0.000000
     77         10.500977   0.000000
     78         10.579562   0.000000
     79         10.637244   0.000000
     80         10.649568   0.000000
     81         11.149777   0.000000
     82         11.160750   0.000000
     83         11.182584   0.000000
     84         11.210419   0.000000
     85         11.561727   0.000000
     86         11.710800   0.000000
     87         12.125115   0.000000
     88         12.206844   0.000000
     89         12.250340   0.000000
     90         12.956388   0.000000
     91         13.185634   0.000000
     92         13.345347   0.000000
     93         13.415375   0.000000
     94         13.749609   0.000000
     95         13.891588   0.000000
     96         13.983262   0.000000
     97         14.133794   0.000000
     98         14.270939   0.000000
     99         14.384040   0.000000
    100         14.692142   0.000000
    101         14.935333   0.000000
    102         14.984166   0.000000
    103         15.500089   0.000000
    104         15.913604   0.000000
    105         16.462788   0.000000
    106         16.512953   0.000000
    107         16.556909   0.000000
    108         17.190929   0.000000
    109         17.400208   0.000000
    110         17.424808   0.000000
    111         17.525815   0.000000
    112         17.719386   0.000000
    113         17.848212   0.000000
    114         18.077571   0.000000
    115         18.160800   0.000000
    116         18.603317   0.000000
    117         18.926257   0.000000
    118         19.002806   0.000000
    119         19.214047   0.000000
    120         19.280829   0.000000
    121         19.378260   0.000000
    122         19.878534   0.000000
    123         20.358664   0.000000
    124         20.594984   0.000000
    125         20.602433   0.000000
    126         20.651262   0.000000
    127         21.191344   0.000000
    128         21.306137   0.000000
 
  0.5000000E+00  0.1276756E-14  0.1276756E-14  0.1388889E-01
      1        -48.463560   1.000000
      2        -48.450282   1.000000
      3        -48.380196   1.000000
      4        -48.370279   1.000000
      5        -48.368205   1.000000
      6        -48.230350   1.000000
      7        -48.176186   1.000000
      8        -24.867534   1.000000
      9        -24.813030   1.000000
     10        -24.800556   1.000000
     11        -24.794235   1.000000
     12        -24.788235   1.000000
     13        -24.784212   1.000000
     14        -24.772462   1.000000
     15        -24.772279   1.000000
     16        -24.756826   1.000000
     17        -24.728356   1.000000
     18        -24.628542   1.000000
     19        -24.620397   1.000000
     20        -24.592421   1.000000
     21        -24.591008   1.000000
     22        -24.590755   1.000000
     23        -24.568570   1.000000
     24        -24.478833   1.000000
     25        -24.415014   1.000000
     26        -24.379842   1.000000
     27        -24.283400   1.000000
     28        -24.239087   1.000000
     29         -6.554225   1.000000
     30         -6.553470   1.000000
     31         -6.553088   1.000000
     32         -6.535715   1.000000
     33         -6.508930   1.000000
     34         -0.537478   1.000000
     35          0.280824   1.000000
     36          1.220604   1.000000
     37          1.514183   1.000000
     38          2.493833   1.000000
     39          3.895817   1.000000
     40          3.905658   1.000000
     41          4.291593   1.000000
     42          4.442755   1.000000
     43          4.595650   1.000000
     44          4.792228   1.000000
     45          4.845317   1.000000
     46          5.353928   1.000000
     47          5.759178   1.000000
     48          5.980815   1.000000
     49          6.645870   1.000000
     50          6.667535   1.000000
     51          6.735944   1.000000
     52          7.083302   1.000000
     53          7.098979   1.000000
     54          7.230317   1.000000
     55          7.312726   1.000000
     56          7.477608   1.000000
     57          7.676503   1.000000
     58          7.824589   1.000000
     59          7.945298   1.000027
     60          7.970003   1.000111
     61          8.296828   0.258800
     62          8.479638  -0.005183
     63          8.486889  -0.003976
     64          8.894509  -0.000000
     65          8.899996  -0.000000
     66          9.047279  -0.000000
     67          9.096428  -0.000000
     68          9.193467  -0.000000
     69          9.544475  -0.000000
     70          9.624792  -0.000000
     71          9.930878  -0.000000
     72         10.094251  -0.000000
     73         10.143593  -0.000000
     74         10.171238  -0.000000
     75         10.347924   0.000000
     76         10.493021   0.000000
     77         10.614701   0.000000
     78         10.657219   0.000000
     79         10.756044   0.000000
     80         10.789001   0.000000
     81         10.943498   0.000000
     82         10.951489   0.000000
     83         11.004238   0.000000
     84         11.118423   0.000000
     85         11.399085   0.000000
     86         11.828007   0.000000
     87         11.845949   0.000000
     88         12.276947   0.000000
     89         12.319805   0.000000
     90         12.776945   0.000000
     91         13.307640   0.000000
     92         13.367901   0.000000
     93         13.494537   0.000000
     94         14.067135   0.000000
     95         14.469798   0.000000
     96         14.578434   0.000000
     97         14.614403   0.000000
     98         14.752014   0.000000
     99         14.809817   0.000000
    100         14.824933   0.000000
    101         14.994563   0.000000
    102         15.415775   0.000000
    103         15.422713   0.000000
    104         15.711028   0.000000
    105         15.738521   0.000000
    106         16.098090   0.000000
    107         16.231807   0.000000
    108         16.298080   0.000000
    109         16.550508   0.000000
    110         16.687781   0.000000
    111         17.365927   0.000000
    112         17.950067   0.000000
    113         17.997521   0.000000
    114         18.226669   0.000000
    115         18.312154   0.000000
    116         18.440476   0.000000
    117         18.899914   0.000000
    118         19.127104   0.000000
    119         19.192838   0.000000
    120         19.192905   0.000000
    121         19.209983   0.000000
    122         19.316793   0.000000
    123         19.593426   0.000000
    124         19.711589   0.000000
    125         21.247913   0.000000
    126         21.276701   0.000000
    127         21.371618   0.000000
    128         21.412918   0.000000
 
  0.1666667E+00  0.1666667E+00  0.1276756E-14  0.2777778E-01
      1        -48.469249   1.000000
      2        -48.449708   1.000000
      3        -48.380656   1.000000
      4        -48.374963   1.000000
      5        -48.362617   1.000000
      6        -48.228647   1.000000
      7        -48.172857   1.000000
      8        -24.845271   1.000000
      9        -24.843142   1.000000
     10        -24.819422   1.000000
     11        -24.798952   1.000000
     12        -24.782694   1.000000
     13        -24.782494   1.000000
     14        -24.778067   1.000000
     15        -24.772470   1.000000
     16        -24.771408   1.000000
     17        -24.766268   1.000000
     18        -24.723403   1.000000
     19        -24.709649   1.000000
     20        -24.705996   1.000000
     21        -24.589947   1.000000
     22        -24.564991   1.000000
     23        -24.413854   1.000000
     24        -24.411844   1.000000
     25        -24.324772   1.000000
     26        -24.321621   1.000000
     27        -24.263981   1.000000
     28        -24.263738   1.000000
     29         -6.554018   1.000000
     30         -6.554017   1.000000
     31         -6.553501   1.000000
     32         -6.541384   1.000000
     33         -6.509704   1.000000
     34         -1.113333   1.000000
     35          0.619734   1.000000
     36          1.352512   1.000000
     37          2.376856   1.000000
     38          2.755752   1.000000
     39          2.936823   1.000000
     40          3.089658   1.000000
     41          4.564152   1.000000
     42          4.723816   1.000000
     43          5.024178   1.000000
     44          5.186618   1.000000
     45          5.379496   1.000000
     46          5.716202   1.000000
     47          5.848288   1.000000
     48          5.856623   1.000000
     49          6.116617   1.000000
     50          6.322977   1.000000
     51          6.434230   1.000000
     52          6.763458   1.000000
     53          6.846809   1.000000
     54          6.915137   1.000000
     55          7.247942   1.000000
     56          7.341430   1.000000
     57          7.423189   1.000000
     58          7.614781   1.000000
     59          7.811744   1.000000
     60          7.939005   1.000018
     61          8.061495   1.006689
     62          8.168428   1.023457
     63          8.431152  -0.021109
     64          8.941738  -0.000000
     65          9.154811  -0.000000
     66          9.398756  -0.000000
     67          9.503941  -0.000000
     68          9.798613  -0.000000
     69          9.871566  -0.000000
     70          9.918316  -0.000000
     71         10.008527  -0.000000
     72         10.039958  -0.000000
     73         10.193067  -0.000000
     74         10.227011  -0.000000
     75         10.293258   0.000000
     76         10.300478   0.000000
     77         10.445359   0.000000
     78         10.450592   0.000000
     79         10.656345   0.000000
     80         10.870803   0.000000
     81         10.895803   0.000000
     82         11.143473   0.000000
     83         11.368015   0.000000
     84         11.506889   0.000000
     85         11.652902   0.000000
     86         11.773380   0.000000
     87         12.133907   0.000000
     88         12.432514   0.000000
     89         12.472877   0.000000
     90         12.695113   0.000000
     91         12.778378   0.000000
     92         12.939617   0.000000
     93         13.235713   0.000000
     94         13.329415   0.000000
     95         13.792711   0.000000
     96         13.971505   0.000000
     97         13.982124   0.000000
     98         13.999850   0.000000
     99         14.469814   0.000000
    100         14.635663   0.000000
    101         14.673700   0.000000
    102         15.269642   0.000000
    103         15.640913   0.000000
    104         16.060106   0.000000
    105         16.351483   0.000000
    106         16.420832   0.000000
    107         16.520940   0.000000
    108         16.966602   0.000000
    109         16.998224   0.000000
    110         17.351555   0.000000
    111         17.679938   0.000000
    112         18.206987   0.000000
    113         18.308873   0.000000
    114         18.334036   0.000000
    115         18.428743   0.000000
    116         18.860376   0.000000
    117         19.261482   0.000000
    118         19.591875   0.000000
    119         19.761570   0.000000
    120         19.790295   0.000000
    121         20.004985   0.000000
    122         20.098752   0.000000
    123         20.632397   0.000000
    124         21.043858   0.000000
    125         21.138889   0.000000
    126         21.153016   0.000000
    127         21.552092   0.000000
    128         21.586665   0.000000
 
  0.3333333E+00  0.1666667E+00  0.1276756E-14  0.5555556E-01
      1        -48.463802   1.000000
      2        -48.449993   1.000000
      3        -48.380245   1.000000
      4        -48.374481   1.000000
      5        -48.363686   1.000000
      6        -48.230958   1.000000
      7        -48.175898   1.000000
      8        -24.838915   1.000000
      9        -24.813729   1.000000
     10        -24.799693   1.000000
     11        -24.798813   1.000000
     12        -24.784509   1.000000
     13        -24.777150   1.000000
     14        -24.767460   1.000000
     15        -24.761326   1.000000
     16        -24.739847   1.000000
     17        -24.728456   1.000000
     18        -24.718565   1.000000
     19        -24.686265   1.000000
     20        -24.631422   1.000000
     21        -24.591395   1.000000
     22        -24.568114   1.000000
     23        -24.503457   1.000000
     24        -24.413149   1.000000
     25        -24.410038   1.000000
     26        -24.346219   1.000000
     27        -24.318692   1.000000
     28        -24.268365   1.000000
     29         -6.553940   1.000000
     30         -6.553373   1.000000
     31         -6.552490   1.000000
     32         -6.536661   1.000000
     33         -6.509014   1.000000
     34         -0.759707   1.000000
     35          0.900384   1.000000
     36          0.932300   1.000000
     37          2.174625   1.000000
     38          2.191528   1.000000
     39          3.026318   1.000000
     40          3.342255   1.000000
     41          3.850044   1.000000
     42          4.506916   1.000000
     43          4.560406   1.000000
     44          5.297518   1.000000
     45          5.619446   1.000000
     46          5.931332   1.000000
     47          6.060067   1.000000
     48          6.204499   1.000000
     49          6.354288   1.000000
     50          6.534551   1.000000
     51          6.653471   1.000000
     52          6.975455   1.000000
     53          7.009977   1.000000
     54          7.084698   1.000000
     55          7.271578   1.000000
     56          7.561273   1.000000
     57          7.592835   1.000000
     58          7.798803   1.000000
     59          7.883353   1.000000
     60          7.927045   1.000008
     61          8.098939   1.019449
     62          8.374687  -0.031441
     63          8.622327  -0.000003
     64          8.943145  -0.000000
     65          9.118158  -0.000000
     66          9.217195  -0.000000
     67          9.428301  -0.000000
     68          9.466011  -0.000000
     69          9.521258  -0.000000
     70          9.689007  -0.000000
     71          9.803304  -0.000000
     72          9.993973  -0.000000
     73         10.005892  -0.000000
     74         10.167265  -0.000000
     75         10.213586  -0.000000
     76         10.270406   0.000000
     77         10.317735   0.000000
     78         10.357443   0.000000
     79         10.642145   0.000000
     80         10.835116   0.000000
     81         10.928187   0.000000
     82         11.014883   0.000000
     83         11.296547   0.000000
     84         11.440033   0.000000
     85         11.770560   0.000000
     86         11.991864   0.000000
     87         12.006878   0.000000
     88         12.272342   0.000000
     89         12.331667   0.000000
     90         13.049014   0.000000
     91         13.150681   0.000000
     92         13.167208   0.000000
     93         13.291677   0.000000
     94         13.603857   0.000000
     95         13.682159   0.000000
     96         14.239833   0.000000
     97         14.275593   0.000000
     98         14.286135   0.000000
     99         14.465698   0.000000
    100         14.600365   0.000000
    101         15.095552   0.000000
    102         15.318167   0.000000
    103         15.829017   0.000000
    104         16.103471   0.000000
    105         16.120002   0.000000
    106         16.199988   0.000000
    107         16.405776   0.000000
    108         16.664634   0.000000
    109         16.976515   0.000000
    110         17.057660   0.000000
    111         17.274450   0.000000
    112         17.370285   0.000000
    113         17.487873   0.000000
    114         17.699397   0.000000
    115         17.937418   0.000000
    116         18.616590   0.000000
    117         18.990715   0.000000
    118         19.226706   0.000000
    119         19.288073   0.000000
    120         19.816283   0.000000
    121         20.034551   0.000000
    122         20.247448   0.000000
    123         20.417879   0.000000
    124         20.687335   0.000000
    125         20.852150   0.000000
    126         21.239476   0.000000
    127         21.314887   0.000000
    128         21.674917   0.000000
 
  0.5000000E+00  0.1666667E+00  0.1276756E-14  0.2777778E-01
      1        -48.460676   1.000000
      2        -48.450281   1.000000
      3        -48.383140   1.000000
      4        -48.368588   1.000000
      5        -48.366987   1.000000
      6        -48.232102   1.000000
      7        -48.177464   1.000000
      8        -24.835767   1.000000
      9        -24.810245   1.000000
     10        -24.800495   1.000000
     11        -24.795936   1.000000
     12        -24.785422   1.000000
     13        -24.771260   1.000000
     14        -24.771128   1.000000
     15        -24.753112   1.000000
     16        -24.731203   1.000000
     17        -24.726742   1.000000
     18        -24.629845   1.000000
     19        -24.620405   1.000000
     20        -24.592063   1.000000
     21        -24.591205   1.000000
     22        -24.589060   1.000000
     23        -24.569750   1.000000
     24        -24.480813   1.000000
     25        -24.416317   1.000000