       N       E                     dE             d eps       ncg     rms          rms(c)
DAV:   1     0.878251224227E+03    0.87825E+03   -0.59371E+04  7680   0.111E+03
DAV:   2    -0.184803303626E+02   -0.89673E+03   -0.85536E+03  8064   0.292E+02
DAV:   3    -0.912044199247E+02   -0.72724E+02   -0.71249E+02 14720   0.679E+01
DAV:   4    -0.937796905723E+02   -0.25753E+01   -0.25745E+01  8000   0.114E+01
DAV:   5    -0.938451745222E+02   -0.65484E-01   -0.65481E-01 11328   0.175E+00
DAV:   6    -0.938467328479E+02   -0.15583E-02   -0.15583E-02  9792   0.270E-01
DAV:   7    -0.938467985942E+02   -0.65746E-04   -0.65747E-04 12544   0.538E-02
DAV:   8    -0.938468005404E+02   -0.19463E-05   -0.19451E-05  8960   0.696E-03
DAV:   9    -0.938468006580E+02   -0.11754E-06   -0.11759E-06 10432   0.160E-03
   1 F= -.93846801E+02 E0= -.93845793E+02  d E =-.302156E-02
