 vasp.6.5.0 16Dec24 (build Apr 17 2025 17:55:45) complex                        
  
 executed on             LinuxIFC date 2025.06.04  15:33:19
 running   64 mpi-ranks, on    1 nodes
 distrk:  each k-point on   64 cores,    1 groups
 distr:  one band on NCORE=   1 cores,   64 groups


--------------------------------------------------------------------------------------------------------


 INCAR:
   ISTART = 1
   ICHARG = 11
   PREC = N
   LREAL = .FALSE.
   ENCUT = 520
   ALGO = N
   NELM = 500
   EDIFF = 1E-06
   IBRION = -1
   ISIF = 3
   NSW = 0
   EDIFFG = -0.01
   LAECHG = .T.
   SYMPREC = 1E-6
   NEDOS = 1000
   LORBIT = 10
   ISMEAR = 1
   SIGMA = 0.1

 POTCAR:    PAW_PBE Ga_d 06Jul2010                
 POTCAR:    PAW_PBE Ti_sv 26Sep2005               
 POTCAR:    PAW_PBE Al 04Jan2001                  
 -----------------------------------------------------------------------------
|                                                                             |
|           W    W    AA    RRRRR   N    N  II  N    N   GGGG   !!!           |
|           W    W   A  A   R    R  NN   N  II  NN   N  G    G  !!!           |
|           W    W  A    A  R    R  N N  N  II  N N  N  G       !!!           |
|           W WW W  AAAAAA  RRRRR   N  N N  II  N  N N  G  GGG   !            |
|           WW  WW  A    A  R   R   N   NN  II  N   NN  G    G                |
|           W    W  A    A  R    R  N    N  II  N    N   GGGG   !!!           |
|                                                                             |
|     For optimal performance we recommend to set                             |
|       NCORE = 2 up to number-of-cores-per-socket                            |
|     NCORE specifies how many cores store one orbital (NPAR=cpu/NCORE).      |
|     This setting can greatly improve the performance of VASP for DFT.       |
|     The default, NCORE=1 might be grossly inefficient on modern             |
|     multi-core architectures or massively parallel machines. Do your        |
|     own testing! More info at https://www.vasp.at/wiki/index.php/NCORE      |
|     Unfortunately you need to use the default for GW and RPA                |
|     calculations (for HF NCORE is supported but not extensively tested      |
|     yet).                                                                   |
|                                                                             |
 -----------------------------------------------------------------------------

 POTCAR:    PAW_PBE Ga_d 06Jul2010                
   SHA256 =  a60ddf36e14f00ea098d9e3914b3745f1b7105e68786148f49ae384e44b4226c Ga_d/POTCAR           
   COPYR  = (c) Copyright 06Jul2010 Georg Kresse                                                    
   COPYR  = This file is part of the software VASP. Any use, copying, and all other rights are regul
   COPYR  = If you do not have a valid VASP license, you may not use, copy or distribute this file. 
   VRHFIN =Ga: s2p1                                                                                 
   LEXCH  = PE                                                                                      
   EATOM  =  2148.8298 eV,  157.9345 Ry                                                             
                                                                                                    
   TITEL  = PAW_PBE Ga_d 06Jul2010                                                                  
   LULTRA =        F    use ultrasoft PP ?                                                          
   IUNSCR =        1    unscreen: 0-lin 1-nonlin 2-no                                               
   RPACOR =    1.700    partial core radius                                                         
   POMASS =   69.723; ZVAL   =   13.000    mass and valenz                                          
   RCORE  =    2.300    outmost cutoff radius                                                       
   RWIGS  =    2.300; RWIGS  =    1.217    wigner-seitz radius (au A)                               
   ENMAX  =  282.691; ENMIN  =  212.018 eV                                                          
   ICORE  =        3    local potential                                                             
   LCOR   =        T    correct aug charges                                                         
   LPAW   =        T    paw PP                                                                      
   EAUG   =  490.690                                                                                
   DEXC   =    0.000                                                                                
   RMAX   =    2.341    core radius for proj-oper                                                   
   RAUG   =    1.300    factor for augmentation sphere                                              
   RDEP   =    2.413    radius for radial grids                                                     
   RDEPT  =    1.856    core radius for aug-charge                                                  
                                                                                                    
   Atomic configuration                                                                             
    9 entries                                                                                       
     n  l   j            E        occ.                                                              
     1  0  0.50    -10228.7831   2.0000                                                             
     2  0  0.50     -1262.1604   2.0000                                                             
     2  1  1.50     -1098.6333   6.0000                                                             
     3  0  0.50      -148.1110   2.0000                                                             
     3  1  1.50       -98.8436   6.0000                                                             
     3  2  2.50       -19.1549  10.0000                                                             
     4  0  0.50        -8.9483   2.0000                                                             
     4  1  0.50        -2.5791   1.0000                                                             
     4  3  2.50        -2.7416   0.0000                                                             
   Description                                                                                      
     l       E           TYP  RCUT    TYP  RCUT                                                     
     2    -19.1549037     23  2.300                                                                 
     2     -5.4423304     23  2.300                                                                 
     0     -8.9483111     23  2.300                                                                 
     0     68.0291300     23  2.300                                                                 
     1     -2.5790802     23  2.100                                                                 
     1     81.6349560     23  2.300                                                                 
     3      6.8029130     23  2.300                                                                 
  local pseudopotential read in
  partial core-charges read in
  partial kinetic energy density read in
  atomic valenz-charges read in
  non local Contribution for L=           2  read in
    real space projection operators read in
  non local Contribution for L=           2  read in
    real space projection operators read in
  non local Contribution for L=           0  read in
    real space projection operators read in
  non local Contribution for L=           0  read in
    real space projection operators read in
  non local Contribution for L=           1  read in
    real space projection operators read in
  non local Contribution for L=           1  read in
    real space projection operators read in
    PAW grid and wavefunctions read in
 
   number of l-projection  operators is LMAX  =           6
   number of lm-projection operators is LMMAX =          18
 
 POTCAR:    PAW_PBE Ti_sv 26Sep2005               
   SHA256 =  4d747badb5a5ea28d858fbac70885b3f8929d6fd9e5b0dbe1ecb9878dc164da1 Ti_sv/POTCAR          
   COPYR  = (c) Copyright 26Sep2005 Georg Kresse                                                    
   COPYR  = This file is part of the software VASP. Any use, copying, and all other rights are regul
   COPYR  = If you do not have a valid VASP license, you may not use, copy or distribute this file. 
   VRHFIN =Ti: 3p4s3d                                                                               
   LEXCH  = PE                                                                                      
   EATOM  =  1588.0892 eV,  116.7213 Ry                                                             
                                                                                                    
   TITEL  = PAW_PBE Ti_sv 26Sep2005                                                                 
   LULTRA =        F    use ultrasoft PP ?                                                          
   IUNSCR =        1    unscreen: 0-lin 1-nonlin 2-no                                               
   RPACOR =    2.000    partial core radius                                                         
   POMASS =   47.880; ZVAL   =   12.000    mass and valenz                                          
   RCORE  =    2.300    outmost cutoff radius                                                       
   RWIGS  =    2.300; RWIGS  =    1.217    wigner-seitz radius (au A)                               
   ENMAX  =  274.610; ENMIN  =  205.957 eV                                                          
   ICORE  =        3    local potential                                                             
   LCOR   =        T    correct aug charges                                                         
   LPAW   =        T    paw PP                                                                      
   EAUG   =  482.848                                                                                
   RMAX   =    2.348    core radius for proj-oper                                                   
   RAUG   =    1.300    factor for augmentation sphere                                              
   RDEP   =    2.381    radius for radial grids                                                     
   RDEPT  =    1.930    core radius for aug-charge                                                  
                                                                                                    
   Atomic configuration                                                                             
    8 entries                                                                                       
     n  l   j            E        occ.                                                              
     1  0  0.50     -4865.3608   2.0000                                                             
     2  0  0.50      -533.1368   2.0000                                                             
     2  1  1.50      -440.5031   6.0000                                                             
     3  0  0.50       -59.3186   2.0000                                                             
     4  0  0.50        -3.7291   1.0000                                                             
     3  1  1.50       -35.7012   6.0000                                                             
     3  2  2.50        -1.9157   3.0000                                                             
     4  3  2.50        -1.3606   0.0000                                                             
   Description                                                                                      
     l       E           TYP  RCUT    TYP  RCUT                                                     
     0    -59.3185931     23  1.800                                                                 
     0     -3.7290822     23  2.300                                                                 
     1    -35.7012045     23  2.300                                                                 
     1     -1.3605826     23  2.300                                                                 
     2     -1.9156920     23  2.300                                                                 
     2     -0.0236318     23  2.300                                                                 
     3     -1.3605826     23  2.300                                                                 
  local pseudopotential read in
  partial core-charges read in
  partial kinetic energy density read in
  atomic valenz-charges read in
  non local Contribution for L=           0  read in
    real space projection operators read in
  non local Contribution for L=           0  read in
    real space projection operators read in
  non local Contribution for L=           1  read in
    real space projection operators read in
  non local Contribution for L=           1  read in
    real space projection operators read in
  non local Contribution for L=           2  read in
    real space projection operators read in
  non local Contribution for L=           2  read in
    real space projection operators read in
    PAW grid and wavefunctions read in
 
   number of l-projection  operators is LMAX  =           6
   number of lm-projection operators is LMMAX =          18
 
 POTCAR:    PAW_PBE Al 04Jan2001                  
   SHA256 =  17880443556af62b473fe41b62a467bd001ad55d2cabe504a3f22e34d4e9db96 Al/POTCAR             
   COPYR  = (c) Copyright 04Jan2001 Georg Kresse                                                    
   COPYR  = This file is part of the software VASP. Any use, copying, and all other rights are regul
   COPYR  = If you do not have a valid VASP license, you may not use, copy or distribute this file. 
   VRHFIN =Al: s2p1                                                                                 
   LEXCH  = PE                                                                                      
   EATOM  =    53.5387 eV,    3.9350 Ry                                                             
                                                                                                    
   TITEL  = PAW_PBE Al 04Jan2001                                                                    
   LULTRA =        F    use ultrasoft PP ?                                                          
   IUNSCR =        1    unscreen: 0-lin 1-nonlin 2-no                                               
   RPACOR =    1.500    partial core radius                                                         
   POMASS =   26.981; ZVAL   =    3.000    mass and valenz                                          
   RCORE  =    1.900    outmost cutoff radius                                                       
   RWIGS  =    2.650; RWIGS  =    1.402    wigner-seitz radius (au A)                               
   ENMAX  =  240.300; ENMIN  =  180.225 eV                                                          
   ICORE  =        2    local potential                                                             
   LCOR   =        T    correct aug charges                                                         
   LPAW   =        T    paw PP                                                                      
   EAUG   =  291.052                                                                                
   DEXC   =    0.000                                                                                
   RMAX   =    1.939    core radius for proj-oper                                                   
   RAUG   =    1.300    factor for augmentation sphere                                              
   RDEP   =    1.966    radius for radial grids                                                     
   RDEPT  =    1.856    core radius for aug-charge                                                  
                                                                                                    
   Atomic configuration                                                                             
    6 entries                                                                                       
     n  l   j            E        occ.                                                              
     1  0  0.50     -1511.1048   2.0000                                                             
     2  0  0.50      -108.1629   2.0000                                                             
     2  1  1.50       -69.6402   6.0000                                                             
     3  0  0.50        -7.7528   2.0000                                                             
     3  1  1.50        -2.7121   1.0000                                                             
     3  2  2.50        -2.7212   0.0000                                                             
   Description                                                                                      
     l       E           TYP  RCUT    TYP  RCUT                                                     
     0     -7.7528455     23  1.900                                                                 
     0     -3.3096929     23  1.900                                                                 
     1     -2.7120682     23  1.900                                                                 
     1     13.6058260     23  1.900                                                                 
     2     -2.7211652      7  1.900                                                                 
  local pseudopotential read in
  partial core-charges read in
  partial kinetic energy density read in
  atomic valenz-charges read in
  non local Contribution for L=           0  read in
    real space projection operators read in
  non local Contribution for L=           0  read in
    real space projection operators read in
  non local Contribution for L=           1  read in
    real space projection operators read in
  non local Contribution for L=           1  read in
    real space projection operators read in
    PAW grid and wavefunctions read in
 
   number of l-projection  operators is LMAX  =           4
   number of lm-projection operators is LMMAX =           8
 
  PAW_PBE Ga_d 06Jul2010                :
 energy of atom  1       EATOM=-2148.8298
 kinetic energy error for atom=    0.0026 (will be added to EATOM!!)
  PAW_PBE Ti_sv 26Sep2005               :
 energy of atom  2       EATOM=-1588.0892
 kinetic energy error for atom=    0.0042 (will be added to EATOM!!)
  PAW_PBE Al 04Jan2001                  :
 energy of atom  3       EATOM=  -53.5387
 kinetic energy error for atom=    0.0002 (will be added to EATOM!!)
 
 
 POSCAR: Ti1 Al1
  positions in direct lattice
  velocities in cartesian coordinates


 exchange-correlation table for PE
   RHO(1)=    0.500       N(1)  =     2000
   RHO(2)=  100.500       N(2)  =     4000
 


--------------------------------------------------------------------------------------------------------


 ion  position               nearest neighbor table
   1  0.000  0.000  0.000-   3 2.80   5 2.80   3 2.80   5 2.80  11 2.88  12 2.88  13 2.88  14 2.88
                            15 2.88  16 2.88   9 2.88  10 2.88
   2  0.000  0.000  0.500-   4 2.80   6 2.80   4 2.80   6 2.80  11 2.85  12 2.85  13 2.85  14 2.85
                            15 2.85  16 2.85   9 2.85  10 2.85
   3  0.000  0.500  0.000-   1 2.80   7 2.80   1 2.80   7 2.80  11 2.87  12 2.87  13 2.87  14 2.87
                            15 2.87  16 2.87   9 2.87  10 2.87
   4  0.000  0.500  0.500-   2 2.80   8 2.80   2 2.80   8 2.80  11 2.85  12 2.85  13 2.85  14 2.85
                            15 2.85  16 2.85   9 2.85  10 2.85
   5  0.500  0.000  0.000-   1 2.80   7 2.80   7 2.80   1 2.80  11 2.87  12 2.87  13 2.87  14 2.87
                            15 2.87  16 2.87   9 2.87  10 2.87
   6  0.500  0.000  0.500-   2 2.80   8 2.80   8 2.80   2 2.80  11 2.85  12 2.85  13 2.85  14 2.85
                            15 2.85  16 2.85   9 2.85  10 2.85
   7  0.500  0.500  0.000-   3 2.80   5 2.80   5 2.80   3 2.80  11 2.87  12 2.87  13 2.87  14 2.87
                            15 2.87  16 2.87   9 2.87  10 2.87
   8  0.500  0.500  0.500-   4 2.80   6 2.80   6 2.80   4 2.80  11 2.84  12 2.84  13 2.84  14 2.84
                            15 2.84  16 2.84   9 2.84  10 2.84
   9  0.251  0.251  0.252-  11 2.79  13 2.79  11 2.81  13 2.81   8 2.84   6 2.85   4 2.85   2 2.85
                             7 2.87   5 2.87   3 2.87   1 2.88
  10  0.251  0.251  0.748-  12 2.79  14 2.79  12 2.81  14 2.81   8 2.84   6 2.85   4 2.85   2 2.85
                             7 2.87   5 2.87   3 2.87   1 2.88
  11  0.251  0.749  0.252-   9 2.79  15 2.79   9 2.81  15 2.81   8 2.84   4 2.85   6 2.85   2 2.85
                             7 2.87   3 2.87   5 2.87   1 2.88
  12  0.251  0.749  0.748-  10 2.79  16 2.79  10 2.81  16 2.81   8 2.84   4 2.85   6 2.85   2 2.85
                             7 2.87   3 2.87   5 2.87   1 2.88
  13  0.749  0.251  0.252-   9 2.79  15 2.79   9 2.81  15 2.81   8 2.84   4 2.85   6 2.85   2 2.85
                             7 2.87   3 2.87   5 2.87   1 2.88
  14  0.749  0.251  0.748-  10 2.79  16 2.79  10 2.81  16 2.81   8 2.84   4 2.85   6 2.85   2 2.85
                             7 2.87   3 2.87   5 2.87   1 2.88
  15  0.749  0.749  0.252-  11 2.79  13 2.79  11 2.81  13 2.81   8 2.84   6 2.85   4 2.85   2 2.85
                             7 2.87   5 2.87   3 2.87   1 2.88
  16  0.749  0.749  0.748-  12 2.79  14 2.79  12 2.81  14 2.81   8 2.84   6 2.85   4 2.85   2 2.85
                             7 2.87   5 2.87   3 2.87   1 2.88
 
  LATTYP: Found a simple tetragonal cell.
 ALAT       =     5.6069519684
 C/A-ratio  =     1.4699085315
  
  Lattice vectors:
  
 A1 = (   5.6069519684,   0.0000000000,   0.0000000000)
 A2 = (   0.0000000000,   5.6069519684,   0.0000000000)
 A3 = (   0.0000000000,   0.0000000000,   8.2417065342)


Analysis of symmetry for initial positions (statically):
=====================================================================
 Subroutine PRICEL returns:
 Original cell was already a primitive cell.
 

 Routine SETGRP: Setting up the symmetry group for a 
 simple tetragonal supercell.


 Subroutine GETGRP returns: Found 16 space group operations
 (whereof 16 operations were pure point group operations)
 out of a pool of 16 trial point group operations.


The static configuration has the point symmetry D_4h.


Analysis of symmetry for dynamics (positions and initial velocities):
=====================================================================
 Subroutine PRICEL returns:
 Original cell was already a primitive cell.
 

 Routine SETGRP: Setting up the symmetry group for a 
 simple tetragonal supercell.


 Subroutine GETGRP returns: Found 16 space group operations
 (whereof 16 operations were pure point group operations)
 out of a pool of 16 trial point group operations.


The dynamic configuration has the point symmetry D_4h.


 Subroutine INISYM returns: Found 16 space group operations
 (whereof 16 operations are pure point group operations),
 and found     1 'primitive' translations


----------------------------------------------------------------------------------------

                                     Primitive cell                                     

  volume of cell :     259.1020

  direct lattice vectors                    reciprocal lattice vectors
     5.606951968  0.000000000  0.000000000     0.178350021  0.000000000  0.000000000
     0.000000000  5.606951968  0.000000000     0.000000000  0.178350021  0.000000000
     0.000000000  0.000000000  8.241706534     0.000000000  0.000000000  0.121334095

  length of vectors
     5.606951968  5.606951968  8.241706534     0.178350021  0.178350021  0.121334095

  position of ions in fractional coordinates (direct lattice)
     0.000000000  0.000000000  0.000000000
     0.000000000  0.000000000  0.500000000
     0.000000000  0.500000000  0.000000000
     0.000000000  0.500000000  0.500000000
     0.500000000  0.000000000  0.000000000
     0.500000000  0.000000000  0.500000000
     0.500000000  0.500000000  0.000000000
     0.500000000  0.500000000  0.500000000
     0.250946882  0.250946882  0.252071225
     0.250946882  0.250946882  0.747928775
     0.250946882  0.749053118  0.252071225
     0.250946882  0.749053118  0.747928775
     0.749053118  0.250946882  0.252071225
     0.749053118  0.250946882  0.747928775
     0.749053118  0.749053118  0.252071225
     0.749053118  0.749053118  0.747928775

  ion indices of the primitive-cell ions
   primitive index   ion index
                 1           1
                 2           2
                 3           3
                 4           4
                 5           5
                 6           6
                 7           7
                 8           8
                 9           9
                10          10
                11          11
                12          12
                13          13
                14          14
                15          15
                16          16

----------------------------------------------------------------------------------------

 
 
 KPOINTS: K-Spacing Value to Generate K-Mesh: 0.03

Automatic generation of k-mesh.
 Grid dimensions read from file:
 generate k-points for:    6    6    4

 Generating k-lattice:

  Cartesian coordinates                     Fractional coordinates (reciprocal lattice)
     0.029725003  0.000000000  0.000000000     0.166666667  0.000000000  0.000000000
     0.000000000  0.029725003  0.000000000     0.000000000  0.166666667  0.000000000
     0.000000000  0.000000000  0.030333524     0.000000000  0.000000000  0.250000000

  Length of vectors
     0.029725003  0.029725003  0.030333524

  Shift w.r.t. Gamma in fractional coordinates (k-lattice)
     0.000000000  0.000000000  0.000000000

 
 Subroutine IBZKPT returns following result:
 ===========================================
 
 Found     30 irreducible k-points:
 
 Following reciprocal coordinates:
            Coordinates               Weight
  0.000000  0.000000  0.000000      1.000000
  0.166667  0.000000  0.000000      4.000000
  0.333333  0.000000  0.000000      4.000000
  0.500000  0.000000  0.000000      2.000000
  0.166667  0.166667  0.000000      4.000000
  0.333333  0.166667  0.000000      8.000000
  0.500000  0.166667  0.000000      4.000000
  0.333333  0.333333  0.000000      4.000000
  0.500000  0.333333  0.000000      4.000000
  0.500000  0.500000  0.000000      1.000000
  0.000000  0.000000  0.250000      2.000000
  0.166667  0.000000  0.250000      8.000000
  0.333333  0.000000  0.250000      8.000000
  0.500000  0.000000  0.250000      4.000000
  0.166667  0.166667  0.250000      8.000000
  0.333333  0.166667  0.250000     16.000000
  0.500000  0.166667  0.250000      8.000000
  0.333333  0.333333  0.250000      8.000000
  0.500000  0.333333  0.250000      8.000000
  0.500000  0.500000  0.250000      2.000000
  0.000000  0.000000  0.500000      1.000000
  0.166667  0.000000  0.500000      4.000000
  0.333333  0.000000  0.500000      4.000000
  0.500000  0.000000  0.500000      2.000000
  0.166667  0.166667  0.500000      4.000000
  0.333333  0.166667  0.500000      8.000000
  0.500000  0.166667  0.500000      4.000000
  0.333333  0.333333  0.500000      4.000000
  0.500000  0.333333  0.500000      4.000000
  0.500000  0.500000  0.500000      1.000000
 
 Following cartesian coordinates:
            Coordinates               Weight
  0.000000  0.000000  0.000000      1.000000
  0.029725  0.000000  0.000000      4.000000
  0.059450  0.000000  0.000000      4.000000
  0.089175  0.000000  0.000000      2.000000
  0.029725  0.029725  0.000000      4.000000
  0.059450  0.029725  0.000000      8.000000
  0.089175  0.029725  0.000000      4.000000
  0.059450  0.059450  0.000000      4.000000
  0.089175  0.059450  0.000000      4.000000
  0.089175  0.089175  0.000000      1.000000
  0.000000  0.000000  0.030334      2.000000
  0.029725  0.000000  0.030334      8.000000
  0.059450  0.000000  0.030334      8.000000
  0.089175  0.000000  0.030334      4.000000
  0.029725  0.029725  0.030334      8.000000
  0.059450  0.029725  0.030334     16.000000
  0.089175  0.029725  0.030334      8.000000
  0.059450  0.059450  0.030334      8.000000
  0.089175  0.059450  0.030334      8.000000
  0.089175  0.089175  0.030334      2.000000
  0.000000  0.000000  0.060667      1.000000
  0.029725  0.000000  0.060667      4.000000
  0.059450  0.000000  0.060667      4.000000
  0.089175  0.000000  0.060667      2.000000
  0.029725  0.029725  0.060667      4.000000
  0.059450  0.029725  0.060667      8.000000
  0.089175  0.029725  0.060667      4.000000
  0.059450  0.059450  0.060667      4.000000
  0.089175  0.059450  0.060667      4.000000
  0.089175  0.089175  0.060667      1.000000
 


--------------------------------------------------------------------------------------------------------




 Dimension of arrays:
   k-points           NKPTS =     30   k-points in BZ     NKDIM =     30   number of bands    NBANDS=    128
   number of dos      NEDOS =   1000   number of ions     NIONS =     16
   non local maximal  LDIM  =      6   non local SUM 2l+1 LMDIM =     18
   total plane-waves  NPLWV =  49152
   max r-space proj   IRMAX =      1   max aug-charges    IRDMAX=   7582
   dimension x,y,z NGX =    32 NGY =   32 NGZ =   48
   dimension x,y,z NGXF=    64 NGYF=   64 NGZF=   96
   support grid    NGXF=    64 NGYF=   64 NGZF=   96
   ions per type =               1   7   8
   NGX,Y,Z   is equivalent  to a cutoff of   9.49,  9.49,  9.68 a.u.
   NGXF,Y,Z  is equivalent  to a cutoff of  18.98, 18.98, 19.36 a.u.

 SYSTEM =  unknown system                          
 POSCAR =  Ti1 Al1                                 

 Startparameter for this run:
   NWRITE =      2    write-flag & timer
   PREC   = n         normal or accurate (medium, high low for compatibility)
   ISTART =      0    job   : 0-new  1-cont  2-samecut
   ICHARG =     11    charge: 1-file 2-atom 10-const
   ISPIN  =      1    spin polarized calculation?
   LNONCOLLINEAR =      F non collinear calculations
   LSORBIT =      F    spin-orbit coupling
   INIWAV =      1    electr: 0-lowe 1-rand  2-diag
   LASPH  =      F    aspherical Exc in radial PAW
 Electronic Relaxation 1
   ENCUT  =  520.0 eV  38.22 Ry    6.18 a.u.  10.43 10.43 15.32*2*pi/ulx,y,z
   ENINI  =  520.0     initial cutoff
   ENAUG  =  490.7 eV  augmentation charge cutoff
   NELM   =    500;   NELMIN=  2; NELMDL=  0     # of ELM steps 
   EDIFF  = 0.1E-05   stopping-criterion for ELM
   LREAL  =      F    real-space projection
   NLSPLINE    = F    spline interpolate recip. space projectors
   LCOMPAT=      F    compatible to vasp.4.4
   GGA_COMPAT  = T    GGA compatible to vasp.4.4-vasp.4.6
   LMAXPAW     = -100 max onsite density
   LMAXMIX     =    2 max onsite mixed and CHGCAR
   VOSKOWN=      0    Vosko Wilk Nusair interpolation
   ROPT   =    0.00000   0.00000   0.00000
 Ionic relaxation
   EDIFFG = -.1E-01   stopping-criterion for IOM
   NSW    =      0    number of steps for IOM
   NBLOCK =      1;   KBLOCK =      1    inner block; outer block 
   IBRION =     -1    ionic relax: 0-MD 1-quasi-New 2-CG
   NFREE  =      0    steps in history (QN), initial steepest desc. (CG)
   ISIF   =      3    stress and relaxation
   IWAVPR =     10    prediction:  0-non 1-charg 2-wave 3-comb
   ISYM   =      2    0-nonsym 1-usesym 2-fastsym
   LCORR  =      T    Harris-Foulkes like correction to forces

   POTIM  = 0.5000    time-step for ionic-motion
   TEIN   =    0.0    initial temperature
   TEBEG  =    0.0;   TEEND  =   0.0 temperature during run
   SMASS  =  -3.00    Nose mass-parameter (am)
   estimated Nose-frequenzy (Omega)   =  0.10E-29 period in steps = 0.13E+47 mass=  -0.718E-27a.u.
   SCALEE = 1.0000    scale energy and forces
   NPACO  =    256;   APACO  = 10.0  distance and # of slots for P.C.
   PSTRESS=    0.0 pullay stress

  Mass of Ions in am
   POMASS =  69.72 47.88 26.98
  Ionic Valenz
   ZVAL   =  13.00 12.00  3.00
  Atomic Wigner-Seitz radii
   RWIGS  =  -1.00 -1.00 -1.00
  virtual crystal weights 
   VCA    =   1.00  1.00  1.00
   NELECT =     121.0000    total number of electrons
   NUPDOWN=      -1.0000    fix difference up-down

 DOS related values:
   EMIN   =  10.00;   EMAX   =-10.00  energy-range for DOS
   EFERMI =   0.00;   METHOD = LEGACY      
   ISMEAR =     1;   SIGMA  =   0.10  broadening in eV -4-tet -1-fermi 0-gaus
   EFERMI_NEDOS =   21; number of points for ismear=-14 and -15

 Electronic relaxation 2 (details)
   IALGO  =     38    algorithm
   LDIAG  =      T    sub-space diagonalisation (order eigenvalues)
   LSUBROT=      F    optimize rotation matrix (better conditioning)
   TURBO    =      0    0=normal 1=particle mesh
   IRESTART =      0    0=no restart 2=restart with 2 vectors
   NREBOOT  =      0    no. of reboots
   NMIN     =      0    reboot dimension
   EREF     =   0.00    reference energy to select bands
   IMIX   =      4    mixing-type and parameters
     AMIX     =   0.40;   BMIX     =  1.00
     AMIX_MAG =   1.60;   BMIX_MAG =  1.00
     AMIN     =   0.10
     WC   =   100.;   INIMIX=   1;  MIXPRE=   1;  MAXMIX= -45

 Intra band minimization:
   WEIMIN = 0.0000     energy-eigenvalue tresh-hold
   EBREAK =  0.20E-08  absolut break condition
   DEPER  =   0.30     relativ break condition  

   TIME   =   0.40     timestep for ELM

  volume/ion in A,a.u.               =      16.19       109.28
  Fermi-wavevector in a.u.,A,eV,Ry     =   1.270125  2.400188 21.949145  1.613217
  Thomas-Fermi vector in A             =   2.403129
 
 Write flags
   LWAVE        =      T    write WAVECAR
   LDOWNSAMPLE  =      F    k-point downsampling of WAVECAR
   LCHARG       =      T    write CHGCAR
   LVTOT        =      F    write LOCPOT, total local potential
   LVHAR        =      F    write LOCPOT, Hartree potential only
   WRT_POTENTIAL= false  ! write potential to hdf5 file
   LELF         =      F    write electronic localiz. function (ELF)
   LORBIT       =     10    0 simple, 1 ext, 2 COOP (PROOUT), +10 PAW based schemes


 Python interface
   PLUGINS active      =      F    recompile with -DPLUGINS to activate
 
 Dipole corrections
   LMONO      =      F    monopole corrections only (constant potential shift)
   LDIPOL     =      F    correct potential (dipole corrections)
   IDIPOL     =      0    1-x, 2-y, 3-z, 4-all directions 
   EPSILON    =  1.0000000 bulk dielectric constant
   LVACPOTAV  =      F  vacuum potentials using an averaging scheme for the charge density
   VACPOTFLAT =  0.1000000 required flatness to determine vacuum potential
 
Coulomb truncation method
  LTRUNCATE          =      F  Coulomb kernel truncation to be used
  IDIMENSIONALITY    =      3  Dimensionality of cutoff (0 molecules / 2 surfaces)
  ISURFACE           =     -1  Direction of surface normal
  LCOARSEN           =      F  Coarsen the charge grid before padding, preferred

 
 Exchange correlation treatment:
   GGA     = PE    functional components
   XC_C    = 1    coefficients multiplying the functional components
   LIBXC   =     F    Libxc                    
   VOSKOWN =     0    Vosko Wilk Nusair interpolation
   LHFCALC =     F    Hartree Fock is set to
   LHFONE  =     F    Hartree Fock one center treatment
   AEXX    =    0.0000 exact exchange contribution

 Parameters of functionals:
   PE:
     No parameter
 
 Van der Waals corrections
   IVDW    =     0    specifies the selected vdW correction

 Linear response parameters
   LEPSILON=     F    determine dielectric tensor
   LRPA    =     F    only Hartree local field effects (RPA)
   LNABLA  =     F    use nabla operator in PAW spheres
   LVEL    =     F    velocity operator in full k-point grid
   CSHIFT  =0.1000    complex shift for real part using Kramers Kronig
   OMEGAMAX=  -1.0    maximum frequency
   DEG_THRESHOLD= 0.2000000E-02 threshold for treating states as degnerate
   RTIME   =   -0.100 relaxation time in fs
  (WPLASMAI=    0.000 imaginary part of plasma frequency in eV, 0.658/RTIME)
   DFIELD  = 0.0000000 0.0000000 0.0000000 field for delta impulse in time
 
  Optional k-point grid parameters
   LKPOINTS_OPT  =     F    use optional k-point grid
   KPOINTS_OPT_MODE=     1    mode for optional k-point grid
 
 Orbital magnetization related:
   ORBITALMAG=     F  switch on orbital magnetization
   LCHIMAG   =     F  perturbation theory with respect to B field
   DQ        =  0.001000  dq finite difference perturbation B field
   LLRAUG    =     F  two centre corrections for induced B field
   LBONE     =     F  B-component reconstruction in AE one-centre
   LVGVCALC  =     T  calculate vGv susceptibility
   LVGVAPPL  =     F  apply vGv susceptibility instead of pGv for G=0

 Random number generation:
   RANDOM_GENERATOR = DEFAULT
   PCG_SEED         = not used


--------------------------------------------------------------------------------------------------------


 Static calculation
 charge density and potential remain constant during run
 non-spin polarized calculation
 Variant of blocked Davidson
 Davidson routine will perform the subspace rotation
 perform sub-space diagonalisation
    after iterative eigenvector-optimisation
 no mixing
 using additional bands           67
 reciprocal scheme for non local part
 use partial core corrections
 calculate Harris-corrections to forces 
   (improved forces if not selfconsistent)
 use gradient corrections 
 WARNING: stress and forces are not correct
  (second derivative of E(xc) not defined)
 use of overlap-Matrix (Vanderbilt PP)
 Methfessel and Paxton  Order N= 1 SIGMA  =   0.10


--------------------------------------------------------------------------------------------------------


  energy-cutoff  :      520.00
  volume of cell :      259.10
      direct lattice vectors                 reciprocal lattice vectors
     5.606951968  0.000000000  0.000000000     0.178350021  0.000000000  0.000000000
     0.000000000  5.606951968  0.000000000     0.000000000  0.178350021  0.000000000
     0.000000000  0.000000000  8.241706534     0.000000000  0.000000000  0.121334095

  length of vectors
     5.606951968  5.606951968  8.241706534     0.178350021  0.178350021  0.121334095


 
 k-points in units of 2pi/SCALE and weight: K-Spacing Value to Generate K-Mesh: 0.03
   0.00000000  0.00000000  0.00000000       0.007
   0.02972500  0.00000000  0.00000000       0.028
   0.05945001  0.00000000  0.00000000       0.028
   0.08917501  0.00000000  0.00000000       0.014
   0.02972500  0.02972500  0.00000000       0.028
   0.05945001  0.02972500  0.00000000       0.056
   0.08917501  0.02972500  0.00000000       0.028
   0.05945001  0.05945001  0.00000000       0.028
   0.08917501  0.05945001  0.00000000       0.028
   0.08917501  0.08917501  0.00000000       0.007
   0.00000000  0.00000000  0.03033352       0.014
   0.02972500  0.00000000  0.03033352       0.056
   0.05945001  0.00000000  0.03033352       0.056
   0.08917501  0.00000000  0.03033352       0.028
   0.02972500  0.02972500  0.03033352       0.056
   0.05945001  0.02972500  0.03033352       0.111
   0.08917501  0.02972500  0.03033352       0.056
   0.05945001  0.05945001  0.03033352       0.056
   0.08917501  0.05945001  0.03033352       0.056
   0.08917501  0.08917501  0.03033352       0.014
   0.00000000  0.00000000  0.06066705       0.007
   0.02972500  0.00000000  0.06066705       0.028
   0.05945001  0.00000000  0.06066705       0.028
   0.08917501  0.00000000  0.06066705       0.014
   0.02972500  0.02972500  0.06066705       0.028
   0.05945001  0.02972500  0.06066705       0.056
   0.08917501  0.02972500  0.06066705       0.028
   0.05945001  0.05945001  0.06066705       0.028
   0.08917501  0.05945001  0.06066705       0.028
   0.08917501  0.08917501  0.06066705       0.007
 
 k-points in reciprocal lattice and weights: K-Spacing Value to Generate K-Mesh: 0.03
   0.00000000  0.00000000  0.00000000       0.007
   0.16666667  0.00000000  0.00000000       0.028
   0.33333333  0.00000000  0.00000000       0.028
   0.50000000  0.00000000  0.00000000       0.014
   0.16666667  0.16666667  0.00000000       0.028
   0.33333333  0.16666667  0.00000000       0.056
   0.50000000  0.16666667  0.00000000       0.028
   0.33333333  0.33333333  0.00000000       0.028
   0.50000000  0.33333333  0.00000000       0.028
   0.50000000  0.50000000  0.00000000       0.007
   0.00000000  0.00000000  0.25000000       0.014
   0.16666667  0.00000000  0.25000000       0.056
   0.33333333  0.00000000  0.25000000       0.056
   0.50000000  0.00000000  0.25000000       0.028
   0.16666667  0.16666667  0.25000000       0.056
   0.33333333  0.16666667  0.25000000       0.111
   0.50000000  0.16666667  0.25000000       0.056
   0.33333333  0.33333333  0.25000000       0.056
   0.50000000  0.33333333  0.25000000       0.056
   0.50000000  0.50000000  0.25000000       0.014
   0.00000000  0.00000000  0.50000000       0.007
   0.16666667  0.00000000  0.50000000       0.028
   0.33333333  0.00000000  0.50000000       0.028
   0.50000000  0.00000000  0.50000000       0.014
   0.16666667  0.16666667  0.50000000       0.028
   0.33333333  0.16666667  0.50000000       0.056
   0.50000000  0.16666667  0.50000000       0.028
   0.33333333  0.33333333  0.50000000       0.028
   0.50000000  0.33333333  0.50000000       0.028
   0.50000000  0.50000000  0.50000000       0.007
 
 position of ions in fractional coordinates (direct lattice) 
   0.00000000  0.00000000  0.00000000
   0.00000000  0.00000000  0.50000000
   0.00000000  0.50000000  0.00000000
   0.00000000  0.50000000  0.50000000
   0.50000000  0.00000000  0.00000000
   0.50000000  0.00000000  0.50000000
   0.50000000  0.50000000  0.00000000
   0.50000000  0.50000000  0.50000000
   0.25094688  0.25094688  0.25207123
   0.25094688  0.25094688  0.74792877
   0.25094688  0.74905312  0.25207123
   0.25094688  0.74905312  0.74792877
   0.74905312  0.25094688  0.25207123
   0.74905312  0.25094688  0.74792877
   0.74905312  0.74905312  0.25207123
   0.74905312  0.74905312  0.74792877
 
 position of ions in cartesian coordinates  (Angst):
   0.00000000  0.00000000  0.00000000
   0.00000000  0.00000000  4.12085327
   0.00000000  2.80347598  0.00000000
   0.00000000  2.80347598  4.12085327
   2.80347598  0.00000000  0.00000000
   2.80347598  0.00000000  4.12085327
   2.80347598  2.80347598  0.00000000
   2.80347598  2.80347598  4.12085327
   1.40704711  1.40704711  2.07749706
   1.40704711  1.40704711  6.16420947
   1.40704711  4.19990485  2.07749706
   1.40704711  4.19990485  6.16420947
   4.19990485  1.40704711  2.07749706
   4.19990485  1.40704711  6.16420947
   4.19990485  4.19990485  2.07749706
   4.19990485  4.19990485  6.16420947
 


--------------------------------------------------------------------------------------------------------


 k-point     1 :   0.0000 0.0000 0.0000  plane waves:    7019
 k-point     2 :   0.1667 0.0000 0.0000  plane waves:    6995
 k-point     3 :   0.3333 0.0000 0.0000  plane waves:    6991
 k-point     4 :   0.5000 0.0000 0.0000  plane waves:    6972
 k-point     5 :   0.1667 0.1667 0.0000  plane waves:    6987
 k-point     6 :   0.3333 0.1667 0.0000  plane waves:    6992
 k-point     7 :   0.5000 0.1667 0.0000  plane waves:    6972
 k-point     8 :   0.3333 0.3333 0.0000  plane waves:    6951
 k-point     9 :   0.5000 0.3333 0.0000  plane waves:    6964
 k-point    10 :   0.5000 0.5000 0.0000  plane waves:    6892
 k-point    11 :   0.0000 0.0000 0.2500  plane waves:    6979
 k-point    12 :   0.1667 0.0000 0.2500  plane waves:    6985
 k-point    13 :   0.3333 0.0000 0.2500  plane waves:    6974
 k-point    14 :   0.5000 0.0000 0.2500  plane waves:    6960
 k-point    15 :   0.1667 0.1667 0.2500  plane waves:    6982
 k-point    16 :   0.3333 0.1667 0.2500  plane waves:    6975
 k-point    17 :   0.5000 0.1667 0.2500  plane waves:    6980
 k-point    18 :   0.3333 0.3333 0.2500  plane waves:    6972
 k-point    19 :   0.5000 0.3333 0.2500  plane waves:    6962
 k-point    20 :   0.5000 0.5000 0.2500  plane waves:    6972
 k-point    21 :   0.0000 0.0000 0.5000  plane waves:    6958
 k-point    22 :   0.1667 0.0000 0.5000  plane waves:    6974
 k-point    23 :   0.3333 0.0000 0.5000  plane waves:    6978
 k-point    24 :   0.5000 0.0000 0.5000  plane waves:    7008
 k-point    25 :   0.1667 0.1667 0.5000  plane waves:    6982
 k-point    26 :   0.3333 0.1667 0.5000  plane waves:    6972
 k-point    27 :   0.5000 0.1667 0.5000  plane waves:    6988
 k-point    28 :   0.3333 0.3333 0.5000  plane waves:    6992
 k-point    29 :   0.5000 0.3333 0.5000  plane waves:    6964
 k-point    30 :   0.5000 0.5000 0.5000  plane waves:    6944

 maximum and minimum number of plane-waves per node :      7019     6892

 maximum number of plane-waves:      7019
 maximum index in each direction: 
   IXMAX=   10   IYMAX=   10   IZMAX=   15
   IXMIN=  -10   IYMIN=  -10   IZMIN=  -15


 serial   3D FFT for wavefunctions
 parallel 3D FFT for charge:
    minimum data exchange during FFTs selected (reduces bandwidth)


 total amount of memory used by VASP MPI-rank0   133107. kBytes
=======================================================================

   base                                    :      30000. kBytes
   nonl-proj                               :      93040. kBytes
   fftplans                                :        434. kBytes
   grid                                    :       2381. kBytes
   one-center                              :        248. kBytes
   wavefun                                 :       7004. kBytes
 
     INWAV:  cpu time      0.0000: real time      0.0000
 initial charge density was supplied:
 number of electron     120.9999743 magnetization 
 keeping initial charge density in first step


--------------------------------------------------------------------------------------------------------


 Maximum index for augmentation-charges          443 (set IRDMAX)


--------------------------------------------------------------------------------------------------------


 First call to EWALD:  gamma=   0.278
 Maximum number of real-space cells   3x   3x   2
 Maximum number of reciprocal cells   2x   2x   3

    FEWALD:  cpu time      0.0011: real time      0.0011


--------------------------------------- Ionic step        1  -------------------------------------------




--------------------------------------- Iteration      1(   1)  ---------------------------------------


    POTLOK:  cpu time      0.0082: real time      0.0082
    SETDIJ:  cpu time      0.0024: real time      0.0024
     EDDAV:  cpu time      3.6670: real time      3.6672
       DOS:  cpu time      0.0006: real time      0.0006
    --------------------------------------------
      LOOP:  cpu time      3.6783: real time      3.6785

 eigenvalue-minimisations  :  7680
 total energy-change (2. order) : 0.8782512E+03  (-0.5937115E+04)
 number of electron     120.9999743 magnetization 
 augmentation part      120.9999743 magnetization 

 Free energy of the ion-electron system (eV)
  ---------------------------------------------------
  alpha Z        PSCENC =       315.16450473
  Ewald energy   TEWEN  =     -8824.03663466
  -Hartree energ DENC   =     -4134.54971163
  -exchange      EXHF   =         0.00000000
  -V(xc)+E(xc)   XCENC  =       262.32976770
  PAW double counting   =     13513.29586508   -13432.48856087
  entropy T*S    EENTRO =        -0.00137547
  eigenvalues    EBANDS =      -515.19240533
  atomic energy  EATOM  =     13693.72977468
  Solvation  Ediel_sol  =         0.00000000
  ---------------------------------------------------
  free energy    TOTEN  =       878.25122423 eV

  energy without entropy =      878.25259970  energy(sigma->0) =      878.25168272


--------------------------------------------------------------------------------------------------------




--------------------------------------- Iteration      1(   2)  ---------------------------------------


     EDDAV:  cpu time      3.9800: real time      3.9805
       DOS:  cpu time      0.0010: real time      0.0010
    --------------------------------------------
      LOOP:  cpu time      3.9810: real time      3.9815

 eigenvalue-minimisations  :  8064
 total energy-change (2. order) :-0.8967316E+03  (-0.8553602E+03)
 number of electron     120.9999743 magnetization 
 augmentation part      120.9999743 magnetization 

 Free energy of the ion-electron system (eV)
  ---------------------------------------------------
  alpha Z        PSCENC =       315.16450473
  Ewald energy   TEWEN  =     -8824.03663466
  -Hartree energ DENC   =     -4134.54971163
  -exchange      EXHF   =         0.00000000
  -V(xc)+E(xc)   XCENC  =       262.32976770
  PAW double counting   =     13513.29586508   -13432.48856087
  entropy T*S    EENTRO =        -0.00622339
  eigenvalues    EBANDS =     -1411.91911201
  atomic energy  EATOM  =     13693.72977468
  Solvation  Ediel_sol  =         0.00000000
  ---------------------------------------------------
  free energy    TOTEN  =       -18.48033036 eV

  energy without entropy =      -18.47410697  energy(sigma->0) =      -18.47825590


--------------------------------------------------------------------------------------------------------




--------------------------------------- Iteration      1(   3)  ---------------------------------------


     EDDAV:  cpu time     10.5357: real time     10.5364
       DOS:  cpu time      0.0006: real time      0.0006
    --------------------------------------------
      LOOP:  cpu time     10.5364: real time     10.5370

 eigenvalue-minimisations  : 14720
 total energy-change (2. order) :-0.7272409E+02  (-0.7124895E+02)
 number of electron     120.9999743 magnetization 
 augmentation part      120.9999743 magnetization 

 Free energy of the ion-electron system (eV)
  ---------------------------------------------------
  alpha Z        PSCENC =       315.16450473
  Ewald energy   TEWEN  =     -8824.03663466
  -Hartree energ DENC   =     -4134.54971163
  -exchange      EXHF   =         0.00000000
  -V(xc)+E(xc)   XCENC  =       262.32976770
  PAW double counting   =     13513.29586508   -13432.48856087
  entropy T*S    EENTRO =        -0.00342684
  eigenvalues    EBANDS =     -1484.64599812
  atomic energy  EATOM  =     13693.72977468
  Solvation  Ediel_sol  =         0.00000000
  ---------------------------------------------------
  free energy    TOTEN  =       -91.20441992 eV

  energy without entropy =      -91.20099309  energy(sigma->0) =      -91.20327765


--------------------------------------------------------------------------------------------------------




--------------------------------------- Iteration      1(   4)  ---------------------------------------


     EDDAV:  cpu time      3.9553: real time      3.9557
       DOS:  cpu time      0.0012: real time      0.0012
    --------------------------------------------
      LOOP:  cpu time      3.9566: real time      3.9569

 eigenvalue-minimisations  :  8000
 total energy-change (2. order) :-0.2575271E+01  (-0.2574464E+01)
 number of electron     120.9999743 magnetization 
 augmentation part      120.9999743 magnetization 

 Free energy of the ion-electron system (eV)
  ---------------------------------------------------
  alpha Z        PSCENC =       315.16450473
  Ewald energy   TEWEN  =     -8824.03663466
  -Hartree energ DENC   =     -4134.54971163
  -exchange      EXHF   =         0.00000000
  -V(xc)+E(xc)   XCENC  =       262.32976770
  PAW double counting   =     13513.29586508   -13432.48856087
  entropy T*S    EENTRO =        -0.00304736
  eigenvalues    EBANDS =     -1487.22164825
  atomic energy  EATOM  =     13693.72977468
  Solvation  Ediel_sol  =         0.00000000
  ---------------------------------------------------
  free energy    TOTEN  =       -93.77969057 eV

  energy without entropy =      -93.77664321  energy(sigma->0) =      -93.77867479


--------------------------------------------------------------------------------------------------------




--------------------------------------- Iteration      1(   5)  ---------------------------------------


     EDDAV:  cpu time      7.2553: real time      7.2556
       DOS:  cpu time      0.0006: real time      0.0006
    --------------------------------------------
      LOOP:  cpu time      7.2559: real time      7.2563

 eigenvalue-minimisations  : 11328
 total energy-change (2. order) :-0.6548395E-01  (-0.6548055E-01)
 number of electron     120.9999743 magnetization 
 augmentation part      120.9999743 magnetization 

 Free energy of the ion-electron system (eV)
  ---------------------------------------------------
  alpha Z        PSCENC =       315.16450473
  Ewald energy   TEWEN  =     -8824.03663466
  -Hartree energ DENC   =     -4134.54971163
  -exchange      EXHF   =         0.00000000
  -V(xc)+E(xc)   XCENC  =       262.32976770
  PAW double counting   =     13513.29586508   -13432.48856087
  entropy T*S    EENTRO =        -0.00302187
  eigenvalues    EBANDS =     -1487.28715768
  atomic energy  EATOM  =     13693.72977468
  Solvation  Ediel_sol  =         0.00000000
  ---------------------------------------------------
  free energy    TOTEN  =       -93.84517452 eV

  energy without entropy =      -93.84215265  energy(sigma->0) =      -93.84416723


--------------------------------------------------------------------------------------------------------




--------------------------------------- Iteration      1(   6)  ---------------------------------------


     EDDAV:  cpu time      5.5167: real time      5.5168
       DOS:  cpu time      0.0006: real time      0.0006
    --------------------------------------------
      LOOP:  cpu time      5.5173: real time      5.5175

 eigenvalue-minimisations  :  9792
 total energy-change (2. order) :-0.1558326E-02  (-0.1558324E-02)
 number of electron     120.9999743 magnetization 
 augmentation part      120.9999743 magnetization 

 Free energy of the ion-electron system (eV)
  ---------------------------------------------------
  alpha Z        PSCENC =       315.16450473
  Ewald energy   TEWEN  =     -8824.03663466
  -Hartree energ DENC   =     -4134.54971163
  -exchange      EXHF   =         0.00000000
  -V(xc)+E(xc)   XCENC  =       262.32976770
  PAW double counting   =     13513.29586508   -13432.48856087
  entropy T*S    EENTRO =        -0.00302157
  eigenvalues    EBANDS =     -1487.28871631
  atomic energy  EATOM  =     13693.72977468
  Solvation  Ediel_sol  =         0.00000000
  ---------------------------------------------------
  free energy    TOTEN  =       -93.84673285 eV

  energy without entropy =      -93.84371127  energy(sigma->0) =      -93.84572566


--------------------------------------------------------------------------------------------------------




--------------------------------------- Iteration      1(   7)  ---------------------------------------


     EDDAV:  cpu time      8.2539: real time      8.2541
       DOS:  cpu time      0.0007: real time      0.0007
    --------------------------------------------
      LOOP:  cpu time      8.2546: real time      8.2548

 eigenvalue-minimisations  : 12544
 total energy-change (2. order) :-0.6574621E-04  (-0.6574651E-04)
 number of electron     120.9999743 magnetization 
 augmentation part      120.9999743 magnetization 

 Free energy of the ion-electron system (eV)
  ---------------------------------------------------
  alpha Z        PSCENC =       315.16450473
  Ewald energy   TEWEN  =     -8824.03663466
  -Hartree energ DENC   =     -4134.54971163
  -exchange      EXHF   =         0.00000000
  -V(xc)+E(xc)   XCENC  =       262.32976770
  PAW double counting   =     13513.29586508   -13432.48856087
  entropy T*S    EENTRO =        -0.00302156
  eigenvalues    EBANDS =     -1487.28878207
  atomic energy  EATOM  =     13693.72977468
  Solvation  Ediel_sol  =         0.00000000
  ---------------------------------------------------
  free energy    TOTEN  =       -93.84679859 eV

  energy without entropy =      -93.84377703  energy(sigma->0) =      -93.84579141


--------------------------------------------------------------------------------------------------------




--------------------------------------- Iteration      1(   8)  ---------------------------------------


     EDDAV:  cpu time      4.9991: real time      4.9997
       DOS:  cpu time      0.0006: real time      0.0006
    --------------------------------------------
      LOOP:  cpu time      4.9997: real time      5.0004

 eigenvalue-minimisations  :  8960
 total energy-change (2. order) :-0.1946257E-05  (-0.1945110E-05)
 number of electron     120.9999743 magnetization 
 augmentation part      120.9999743 magnetization 

 Free energy of the ion-electron system (eV)
  ---------------------------------------------------
  alpha Z        PSCENC =       315.16450473
  Ewald energy   TEWEN  =     -8824.03663466
  -Hartree energ DENC   =     -4134.54971163
  -exchange      EXHF   =         0.00000000
  -V(xc)+E(xc)   XCENC  =       262.32976770
  PAW double counting   =     13513.29586508   -13432.48856087
  entropy T*S    EENTRO =        -0.00302156
  eigenvalues    EBANDS =     -1487.28878401
  atomic energy  EATOM  =     13693.72977468
  Solvation  Ediel_sol  =         0.00000000
  ---------------------------------------------------
  free energy    TOTEN  =       -93.84680054 eV

  energy without entropy =      -93.84377898  energy(sigma->0) =      -93.84579335


--------------------------------------------------------------------------------------------------------




--------------------------------------- Iteration      1(   9)  ---------------------------------------


     EDDAV:  cpu time      6.9762: real time      6.9769
       DOS:  cpu time      0.0007: real time      0.0006
    --------------------------------------------
      LOOP:  cpu time      6.9768: real time      6.9776

 eigenvalue-minimisations  : 10432
 total energy-change (2. order) :-0.1175395E-06  (-0.1175933E-06)
 number of electron     120.9999743 magnetization 
 augmentation part      120.9999743 magnetization 

 Free energy of the ion-electron system (eV)
  ---------------------------------------------------
  alpha Z        PSCENC =       315.16450473
  Ewald energy   TEWEN  =     -8824.03663466
  -Hartree energ DENC   =     -4134.54971163
  -exchange      EXHF   =         0.00000000
  -V(xc)+E(xc)   XCENC  =       262.32976770
  PAW double counting   =     13513.29586508   -13432.48856087
  entropy T*S    EENTRO =        -0.00302156
  eigenvalues    EBANDS =     -1487.28878413
  atomic energy  EATOM  =     13693.72977468
  Solvation  Ediel_sol  =         0.00000000
  ---------------------------------------------------
  free energy    TOTEN  =       -93.84680066 eV

  energy without entropy =      -93.84377910  energy(sigma->0) =      -93.84579347


--------------------------------------------------------------------------------------------------------




 average (electrostatic) potential at core
  the test charge radii are     1.0314  1.0397  1.0406
  (the norm of the test charge is              1.0000)
       1 -62.0979       2 -72.2812       3 -72.4980       4 -72.4098       5 -72.4980
       6 -72.4098       7 -72.4458       8 -72.2196       9 -71.5239      10 -71.5239
      11 -71.5239      12 -71.5239      13 -71.5239      14 -71.5239      15 -71.5239
      16 -71.5239
 
 
 
 E-fermi :   8.2669     XC(G=0): -11.0423     alpha+bet :-16.0145

 val. band max:        8.2666505402   @ k =   0.5000   0.3333   0.5000
 cond. band min:       8.2832789811   @ k =   0.1667   0.1667   0.5000
 fundamental gap:      0.0166284409
 Fermi energy:         8.2668907981

 k-point     1 :       0.0000    0.0000    0.0000
  band No.  band energies     occupation 
      1     -48.4741      2.00000
      2     -48.4495      2.00000
      3     -48.3858      2.00000
      4     -48.3702      2.00000
      5     -48.3624      2.00000
      6     -48.2265      2.00000
      7     -48.1699      2.00000
      8     -24.8751      2.00000
      9     -24.8751      2.00000
     10     -24.8244      2.00000
     11     -24.8081      2.00000
     12     -24.8081      2.00000
     13     -24.7985      2.00000
     14     -24.7873      2.00000
     15     -24.7810      2.00000
     16     -24.7810      2.00000
     17     -24.7659      2.00000
     18     -24.7330      2.00000
     19     -24.7330      2.00000
     20     -24.7189      2.00000
     21     -24.5886      2.00000
     22     -24.5619      2.00000
     23     -24.3793      2.00000
     24     -24.3793      2.00000
     25     -24.2918      2.00000
     26     -24.2918      2.00000
     27     -24.2303      2.00000
     28     -24.2303      2.00000
     29      -6.5549      2.00000
     30      -6.5544      2.00000
     31      -6.5544      2.00000
     32      -6.5457      2.00000
     33      -6.5104      2.00000
     34      -1.3674      2.00000
     35       0.4073      2.00000
     36       1.4236      2.00000
     37       3.4213      2.00000
     38       3.4213      2.00000
     39       3.4479      2.00000
     40       3.4479      2.00000
     41       3.4601      2.00000
     42       3.7534      2.00000
     43       4.8239      2.00000
     44       5.2319      2.00000
     45       5.2355      2.00000
     46       5.6830      2.00000
     47       6.0750      2.00000
     48       6.1340      2.00000
     49       6.1340      2.00000
     50       6.4232      2.00000
     51       6.4232      2.00000
     52       6.5765      2.00000
     53       6.7524      2.00000
     54       6.7524      2.00000
     55       7.1272      2.00000
     56       7.2815      2.00000
     57       7.4643      2.00000
     58       7.6915      2.00000
     59       7.6915      2.00000
     60       7.7653      2.00000
     61       7.7825      2.00000
     62       8.2471      1.32845
     63       8.3247      0.18050
     64       8.3247      0.18050
     65       8.9499     -0.00000
     66       9.3545     -0.00000
     67       9.6309     -0.00000
     68       9.9157     -0.00000
     69      10.0231     -0.00000
     70      10.0539     -0.00000
     71      10.0550     -0.00000
     72      10.1182     -0.00000
     73      10.2266     -0.00000
     74      10.2266     -0.00000
     75      10.5019      0.00000
     76      10.5019      0.00000
     77      10.5246      0.00000
     78      10.7366      0.00000
     79      10.7366      0.00000
     80      10.9155      0.00000
     81      11.2443      0.00000
     82      11.4184      0.00000
     83      11.4184      0.00000
     84      11.6048      0.00000
     85      11.6048      0.00000
     86      11.6417      0.00000
     87      12.2222      0.00000
     88      12.4800      0.00000
     89      12.5111      0.00000
     90      12.5330      0.00000
     91      12.8521      0.00000
     92      12.8521      0.00000
     93      12.9392      0.00000
     94      13.1530      0.00000
     95      13.2000      0.00000
     96      13.2000      0.00000
     97      13.5689      0.00000
     98      13.5909      0.00000
     99      14.1589      0.00000
    100      14.3488      0.00000
    101      15.6224      0.00000
    102      15.6224      0.00000
    103      16.0089      0.00000
    104      16.2538      0.00000
    105      16.3409      0.00000
    106      16.4163      0.00000
    107      16.4163      0.00000
    108      17.2200      0.00000
    109      17.2266      0.00000
    110      17.5277      0.00000
    111      17.5277      0.00000
    112      18.7026      0.00000
    113      18.7378      0.00000
    114      18.7378      0.00000
    115      19.1509      0.00000
    116      19.2118      0.00000
    117      19.8390      0.00000
    118      19.8390      0.00000
    119      20.3843      0.00000
    120      20.3843      0.00000
    121      20.7336      0.00000
    122      20.7884      0.00000
    123      20.8336      0.00000
    124      20.8336      0.00000
    125      20.8528      0.00000
    126      21.3683      0.00000
    127      21.4129      0.00000
    128      21.4129      0.00000

 k-point     2 :       0.1667    0.0000    0.0000
  band No.  band energies     occupation 
      1     -48.4717      2.00000
      2     -48.4496      2.00000
      3     -48.3832      2.00000
      4     -48.3725      2.00000
      5     -48.3626      2.00000
      6     -48.2275      2.00000
      7     -48.1714      2.00000
      8     -24.8733      2.00000
      9     -24.8466      2.00000
     10     -24.8219      2.00000
     11     -24.8038      2.00000
     12     -24.7988      2.00000
     13     -24.7849      2.00000
     14     -24.7826      2.00000
     15     -24.7781      2.00000
     16     -24.7761      2.00000
     17     -24.7662      2.00000
     18     -24.7374      2.00000
     19     -24.7211      2.00000
     20     -24.7037      2.00000
     21     -24.5892      2.00000
     22     -24.5635      2.00000
     23     -24.4127      2.00000
     24     -24.3794      2.00000
     25     -24.3251      2.00000
     26     -24.2900      2.00000
     27     -24.2619      2.00000
     28     -24.2322      2.00000
     29      -6.5543      2.00000
     30      -6.5543      2.00000
     31      -6.5541      2.00000
     32      -6.5434      2.00000
     33      -6.5100      2.00000
     34      -1.2396      2.00000
     35       0.5135      2.00000
     36       1.3625      2.00000
     37       2.4785      2.00000
     38       2.9017      2.00000
     39       3.4986      2.00000
     40       3.5601      2.00000
     41       3.7101      2.00000
     42       4.8470      2.00000
     43       5.0472      2.00000
     44       5.0820      2.00000
     45       5.2379      2.00000
     46       5.6905      2.00000
     47       5.8211      2.00000
     48       5.9605      2.00000
     49       6.1062      2.00000
     50       6.2964      2.00000
     51       6.5954      2.00000
     52       6.7509      2.00000
     53       6.7635      2.00000
     54       6.7880      2.00000
     55       6.8786      2.00000
     56       7.2793      2.00000
     57       7.4132      2.00000
     58       7.5561      2.00000
     59       7.7786      2.00000
     60       7.8168      2.00000
     61       8.0715      2.01851
     62       8.1884      1.97240
     63       8.4271     -0.04592
     64       8.7667     -0.00000
     65       9.0391     -0.00000
     66       9.4381     -0.00000
     67       9.5521     -0.00000
     68       9.7698     -0.00000
     69       9.9540     -0.00000
     70      10.0363     -0.00000
     71      10.0534     -0.00000
     72      10.1657     -0.00000
     73      10.2422     -0.00000
     74      10.2428     -0.00000
     75      10.4993      0.00000
     76      10.5059      0.00000
     77      10.5183      0.00000
     78      10.5534      0.00000
     79      10.7128      0.00000
     80      10.7562      0.00000
     81      10.7796      0.00000
     82      11.3729      0.00000
     83      11.4658      0.00000
     84      11.5114      0.00000
     85      11.6209      0.00000
     86      11.7053      0.00000
     87      12.1561      0.00000
     88      12.2697      0.00000
     89      12.3778      0.00000
     90      12.6541      0.00000
     91      12.9375      0.00000
     92      13.1162      0.00000
     93      13.1368      0.00000
     94      13.2377      0.00000
     95      13.5269      0.00000
     96      13.5968      0.00000
     97      13.6912      0.00000
     98      13.8100      0.00000
     99      14.3291      0.00000
    100      14.4529      0.00000
    101      14.9349      0.00000
    102      15.4993      0.00000
    103      15.5921      0.00000
    104      16.2542      0.00000
    105      16.2804      0.00000
    106      16.5178      0.00000
    107      16.5905      0.00000
    108      17.2560      0.00000
    109      17.3140      0.00000
    110      17.3216      0.00000
    111      17.8129      0.00000
    112      18.5624      0.00000
    113      18.6219      0.00000
    114      18.7884      0.00000
    115      18.8248      0.00000
    116      19.3793      0.00000
    117      19.4925      0.00000
    118      19.5571      0.00000
    119      19.6709      0.00000
    120      19.9753      0.00000
    121      20.0556      0.00000
    122      20.1551      0.00000
    123      20.2349      0.00000
    124      20.4951      0.00000
    125      20.6613      0.00000
    126      20.9129      0.00000
    127      20.9923      0.00000
    128      21.5569      0.00000

 k-point     3 :       0.3333    0.0000    0.0000
  band No.  band energies     occupation 
      1     -48.4665      2.00000
      2     -48.4500      2.00000
      3     -48.3775      2.00000
      4     -48.3766      2.00000
      5     -48.3643      2.00000
      6     -48.2294      2.00000
      7     -48.1745      2.00000
      8     -24.8695      2.00000
      9     -24.8164      2.00000
     10     -24.8004      2.00000
     11     -24.7997      2.00000
     12     -24.7928      2.00000
     13     -24.7862      2.00000
     14     -24.7790      2.00000
     15     -24.7679      2.00000
     16     -24.7483      2.00000
     17     -24.7377      2.00000
     18     -24.7258      2.00000
     19     -24.6900      2.00000
     20     -24.6281      2.00000
     21     -24.5903      2.00000
     22     -24.5668      2.00000
     23     -24.5032      2.00000
     24     -24.4116      2.00000
     25     -24.3797      2.00000
     26     -24.3440      2.00000
     27     -24.2858      2.00000
     28     -24.2366      2.00000
     29      -6.5543      2.00000
     30      -6.5537      2.00000
     31      -6.5534      2.00000
     32      -6.5384      2.00000
     33      -6.5093      2.00000
     34      -0.8809      2.00000
     35       0.7939      2.00000
     36       0.8262      2.00000
     37       2.0897      2.00000
     38       2.3185      2.00000
     39       3.7097      2.00000
     40       3.8878      2.00000
     41       4.0552      2.00000
     42       4.4710      2.00000
     43       4.7061      2.00000
     44       5.1471      2.00000
     45       5.2294      2.00000
     46       5.6444      2.00000
     47       5.8862      2.00000
     48       5.9513      2.00000
     49       6.0254      2.00000
     50       6.6071      2.00000
     51       6.6788      2.00000
     52       6.8139      2.00000
     53       6.9524      2.00000
     54       7.0198      2.00000
     55       7.2902      2.00000
     56       7.2914      2.00000
     57       7.5468      2.00000
     58       7.6972      2.00000
     59       7.7655      2.00000
     60       7.8831      2.00000
     61       8.1121      2.05095
     62       8.4786     -0.01075
     63       8.6452     -0.00000
     64       8.8539     -0.00000
     65       9.0906     -0.00000
     66       9.2165     -0.00000
     67       9.3013     -0.00000
     68       9.4483     -0.00000
     69       9.6137     -0.00000
     70       9.9092     -0.00000
     71      10.0239     -0.00000
     72      10.1561     -0.00000
     73      10.1648     -0.00000
     74      10.2347     -0.00000
     75      10.3049      0.00000
     76      10.4066      0.00000
     77      10.5010      0.00000
     78      10.5796      0.00000
     79      10.6372      0.00000
     80      10.6496      0.00000
     81      11.1498      0.00000
     82      11.1608      0.00000
     83      11.1826      0.00000
     84      11.2104      0.00000
     85      11.5617      0.00000
     86      11.7108      0.00000
     87      12.1251      0.00000
     88      12.2068      0.00000
     89      12.2503      0.00000
     90      12.9564      0.00000
     91      13.1856      0.00000
     92      13.3453      0.00000
     93      13.4154      0.00000
     94      13.7496      0.00000
     95      13.8916      0.00000
     96      13.9833      0.00000
     97      14.1338      0.00000
     98      14.2709      0.00000
     99      14.3840      0.00000
    100      14.6921      0.00000
    101      14.9353      0.00000
    102      14.9842      0.00000
    103      15.5001      0.00000
    104      15.9136      0.00000
    105      16.4628      0.00000
    106      16.5130      0.00000
    107      16.5569      0.00000
    108      17.1909      0.00000
    109      17.4002      0.00000
    110      17.4248      0.00000
    111      17.5258      0.00000
    112      17.7194      0.00000
    113      17.8482      0.00000
    114      18.0776      0.00000
    115      18.1608      0.00000
    116      18.6033      0.00000
    117      18.9263      0.00000
    118      19.0028      0.00000
    119      19.2140      0.00000
    120      19.2808      0.00000
    121      19.3783      0.00000
    122      19.8785      0.00000
    123      20.3587      0.00000
    124      20.5950      0.00000
    125      20.6024      0.00000
    126      20.6513      0.00000
    127      21.1913      0.00000
    128      21.3061      0.00000

 k-point     4 :       0.5000    0.0000    0.0000
  band No.  band energies     occupation 
      1     -48.4636      2.00000
      2     -48.4503      2.00000
      3     -48.3802      2.00000
      4     -48.3703      2.00000
      5     -48.3682      2.00000
      6     -48.2304      2.00000
      7     -48.1762      2.00000
      8     -24.8675      2.00000
      9     -24.8130      2.00000
     10     -24.8006      2.00000
     11     -24.7942      2.00000
     12     -24.7882      2.00000
     13     -24.7842      2.00000
     14     -24.7725      2.00000
     15     -24.7723      2.00000
     16     -24.7568      2.00000
     17     -24.7284      2.00000
     18     -24.6285      2.00000
     19     -24.6204      2.00000
     20     -24.5924      2.00000
     21     -24.5910      2.00000
     22     -24.5908      2.00000
     23     -24.5686      2.00000
     24     -24.4788      2.00000
     25     -24.4150      2.00000
     26     -24.3798      2.00000
     27     -24.2834      2.00000
     28     -24.2391      2.00000
     29      -6.5542      2.00000
     30      -6.5535      2.00000
     31      -6.5531      2.00000
     32      -6.5357      2.00000
     33      -6.5089      2.00000
     34      -0.5375      2.00000
     35       0.2808      2.00000
     36       1.2206      2.00000
     37       1.5142      2.00000
     38       2.4938      2.00000
     39       3.8958      2.00000
     40       3.9057      2.00000
     41       4.2916      2.00000
     42       4.4428      2.00000
     43       4.5957      2.00000
     44       4.7922      2.00000
     45       4.8453      2.00000
     46       5.3539      2.00000
     47       5.7592      2.00000
     48       5.9808      2.00000
     49       6.6459      2.00000
     50       6.6675      2.00000
     51       6.7359      2.00000
     52       7.0833      2.00000
     53       7.0990      2.00000
     54       7.2303      2.00000
     55       7.3127      2.00000
     56       7.4776      2.00000
     57       7.6765      2.00000
     58       7.8246      2.00000
     59       7.9453      2.00005
     60       7.9700      2.00022
     61       8.2968      0.51760
     62       8.4796     -0.01037
     63       8.4869     -0.00795
     64       8.8945     -0.00000
     65       8.9000     -0.00000
     66       9.0473     -0.00000
     67       9.0964     -0.00000
     68       9.1935     -0.00000
     69       9.5445     -0.00000
     70       9.6248     -0.00000
     71       9.9309     -0.00000
     72      10.0943     -0.00000
     73      10.1436     -0.00000
     74      10.1712     -0.00000
     75      10.3479      0.00000
     76      10.4930      0.00000
     77      10.6147      0.00000
     78      10.6572      0.00000
     79      10.7560      0.00000
     80      10.7890      0.00000
     81      10.9435      0.00000
     82      10.9515      0.00000
     83      11.0042      0.00000
     84      11.1184      0.00000
     85      11.3991      0.00000
     86      11.8280      0.00000
     87      11.8459      0.00000
     88      12.2769      0.00000
     89      12.3198      0.00000
     90      12.7769      0.00000
     91      13.3076      0.00000
     92      13.3679      0.00000
     93      13.4945      0.00000
     94      14.0671      0.00000
     95      14.4698      0.00000
     96      14.5784      0.00000
     97      14.6144      0.00000
     98      14.7520      0.00000
     99      14.8098      0.00000
    100      14.8249      0.00000
    101      14.9946      0.00000
    102      15.4158      0.00000
    103      15.4227      0.00000
    104      15.7110      0.00000
    105      15.7385      0.00000
    106      16.0981      0.00000
    107      16.2318      0.00000
    108      16.2981      0.00000
    109      16.5505      0.00000
    110      16.6878      0.00000
    111      17.3659      0.00000
    112      17.9501      0.00000
    113      17.9975      0.00000
    114      18.2267      0.00000
    115      18.3122      0.00000
    116      18.4405      0.00000
    117      18.8999      0.00000
    118      19.1271      0.00000
    119      19.1928      0.00000
    120      19.1929      0.00000
    121      19.2100      0.00000
    122      19.3168      0.00000
    123      19.5934      0.00000
    124      19.7116      0.00000
    125      21.2479      0.00000
    126      21.2767      0.00000
    127      21.3716      0.00000
    128      21.4129      0.00000

 k-point     5 :       0.1667    0.1667    0.0000
  band No.  band energies     occupation 
      1     -48.4692      2.00000
      2     -48.4497      2.00000
      3     -48.3807      2.00000
      4     -48.3750      2.00000
      5     -48.3626      2.00000
      6     -48.2286      2.00000
      7     -48.1729      2.00000
      8     -24.8453      2.00000
      9     -24.8431      2.00000
     10     -24.8194      2.00000
     11     -24.7990      2.00000
     12     -24.7827      2.00000
     13     -24.7825      2.00000
     14     -24.7781      2.00000
     15     -24.7725      2.00000
     16     -24.7714      2.00000
     17     -24.7663      2.00000
     18     -24.7234      2.00000
     19     -24.7096      2.00000
     20     -24.7060      2.00000
     21     -24.5899      2.00000
     22     -24.5650      2.00000
     23     -24.4139      2.00000
     24     -24.4118      2.00000
     25     -24.3248      2.00000
     26     -24.3216      2.00000
     27     -24.2640      2.00000
     28     -24.2637      2.00000
     29      -6.5540      2.00000
     30      -6.5540      2.00000
     31      -6.5535      2.00000
     32      -6.5414      2.00000
     33      -6.5097      2.00000
     34      -1.1133      2.00000
     35       0.6197      2.00000
     36       1.3525      2.00000
     37       2.3769      2.00000
     38       2.7558      2.00000
     39       2.9368      2.00000
     40       3.0897      2.00000
     41       4.5642      2.00000
     42       4.7238      2.00000
     43       5.0242      2.00000
     44       5.1866      2.00000
     45       5.3795      2.00000
     46       5.7162      2.00000
     47       5.8483      2.00000
     48       5.8566      2.00000
     49       6.1166      2.00000
     50       6.3230      2.00000
     51       6.4342      2.00000
     52       6.7635      2.00000
     53       6.8468      2.00000
[...]
     90      12.4804      0.00000
     91      12.7338      0.00000
     92      12.7617      0.00000
     93      13.5633      0.00000
     94      13.7125      0.00000
     95      13.7150      0.00000
     96      13.8588      0.00000
     97      14.3461      0.00000
     98      14.7772      0.00000
     99      14.9242      0.00000
    100      15.1210      0.00000
    101      15.1846      0.00000
    102      15.5379      0.00000
    103      15.7148      0.00000
    104      15.7896      0.00000
    105      16.5744      0.00000
    106      16.6796      0.00000
    107      16.7216      0.00000
    108      16.8338      0.00000
    109      16.9892      0.00000
    110      17.1041      0.00000
    111      17.1273      0.00000
    112      17.1401      0.00000
    113      17.2109      0.00000
    114      17.5469      0.00000
    115      17.7047      0.00000
    116      17.9820      0.00000
    117      18.1281      0.00000
    118      18.4918      0.00000
    119      18.8174      0.00000
    120      19.0346      0.00000
    121      19.4035      0.00000
    122      19.5105      0.00000
    123      19.5542      0.00000
    124      19.5740      0.00000
    125      20.0028      0.00000
    126      20.3674      0.00000
    127      20.4077      0.00000
    128      20.5347      0.00000

 k-point    30 :       0.5000    0.5000    0.5000
  band No.  band energies     occupation 
      1     -48.4503      2.00000
      2     -48.4503      2.00000
      3     -48.3937      2.00000
      4     -48.3632      2.00000
      5     -48.3632      2.00000
      6     -48.2376      2.00000
      7     -48.1814      2.00000
      8     -24.7993      2.00000
      9     -24.7993      2.00000
     10     -24.7987      2.00000
     11     -24.7795      2.00000
     12     -24.7685      2.00000
     13     -24.7685      2.00000
     14     -24.7412      2.00000
     15     -24.6339      2.00000
     16     -24.6339      2.00000
     17     -24.6280      2.00000
     18     -24.6128      2.00000
     19     -24.5961      2.00000
     20     -24.5951      2.00000
     21     -24.5904      2.00000
     22     -24.5799      2.00000
     23     -24.5752      2.00000
     24     -24.5736      2.00000
     25     -24.4881      2.00000
     26     -24.4881      2.00000
     27     -24.4192      2.00000
     28     -24.4192      2.00000
     29      -6.5530      2.00000
     30      -6.5530      2.00000
     31      -6.5493      2.00000
     32      -6.5282      2.00000
     33      -6.5079      2.00000
     34       0.1914      2.00000
     35       1.5834      2.00000
     36       1.6691      2.00000
     37       1.6691      2.00000
     38       1.8644      2.00000
     39       1.9125      2.00000
     40       1.9373      2.00000
     41       1.9373      2.00000
     42       4.6650      2.00000
     43       5.4722      2.00000
     44       5.4722      2.00000
     45       5.6161      2.00000
     46       6.0950      2.00000
     47       6.2737      2.00000
     48       6.2737      2.00000
     49       6.3314      2.00000
     50       7.5580      2.00000
     51       7.5580      2.00000
     52       7.8573      2.00000
     53       7.8596      2.00000
     54       7.8985      2.00000
     55       8.0482      2.00836
     56       8.0482      2.00836
     57       8.1083      2.04739
     58       8.1535      2.06803
     59       8.1535      2.06803
     60       8.2135      1.77622
     61       8.2162      1.74779
     62       8.4327     -0.04079
     63       8.4415     -0.03314
     64       8.5407     -0.00075
     65       8.5407     -0.00075
     66       8.7236     -0.00000
     67       8.7236     -0.00000
     68       8.9275     -0.00000
     69       8.9514     -0.00000
     70       9.0139     -0.00000
     71       9.8138     -0.00000
     72       9.8138     -0.00000
     73       9.8937     -0.00000
     74       9.9293     -0.00000
     75       9.9293     -0.00000
     76      10.0257     -0.00000
     77      10.0425     -0.00000
     78      10.0676     -0.00000
     79      10.0676     -0.00000
     80      10.7164      0.00000
     81      11.3653      0.00000
     82      11.4994      0.00000
     83      11.4994      0.00000
     84      11.5369      0.00000
     85      11.6032      0.00000
     86      12.3459      0.00000
     87      12.3459      0.00000
     88      12.6544      0.00000
     89      12.6544      0.00000
     90      12.7024      0.00000
     91      12.7208      0.00000
     92      12.7348      0.00000
     93      12.7494      0.00000
     94      13.4756      0.00000
     95      13.5906      0.00000
     96      13.8311      0.00000
     97      13.8311      0.00000
     98      14.0558      0.00000
     99      14.0628      0.00000
    100      14.0628      0.00000
    101      15.0671      0.00000
    102      16.1683      0.00000
    103      16.2888      0.00000
    104      16.2888      0.00000
    105      16.8344      0.00000
    106      16.8344      0.00000
    107      16.9269      0.00000
    108      17.2020      0.00000
    109      17.2701      0.00000
    110      17.3637      0.00000
    111      17.4529      0.00000
    112      17.4529      0.00000
    113      17.4844      0.00000
    114      17.8955      0.00000
    115      18.1025      0.00000
    116      18.1025      0.00000
    117      18.6285      0.00000
    118      18.6285      0.00000
    119      18.6653      0.00000
    120      18.6653      0.00000
    121      18.6661      0.00000
    122      18.6997      0.00000
    123      18.7096      0.00000
    124      18.7274      0.00000
    125      20.4050      0.00000
    126      20.7226      0.00000
    127      20.7228      0.00000
    128      20.8329      0.00000


--------------------------------------------------------------------------------------------------------


 soft charge-density along one line, spin component           1
         0         1         2         3         4         5         6         7         8         9
 total charge-density along one line
 
 pseudopotential strength for first ion, spin component:           1
-10.215  -0.000  -0.000  -0.000   0.000  -0.255   0.000   0.000
 -0.000 -10.242  -0.000   0.000   0.000   0.000  -0.240   0.000
 -0.000  -0.000 -10.252  -0.000  -0.000   0.000   0.000  -0.234
 -0.000   0.000  -0.000 -10.242  -0.000   0.000  -0.000   0.000
  0.000   0.000  -0.000  -0.000 -10.224  -0.000  -0.000   0.000
 -0.255   0.000   0.000   0.000  -0.000   5.256  -0.000  -0.000
  0.000  -0.240   0.000  -0.000  -0.000  -0.000   5.250  -0.000
  0.000   0.000  -0.234   0.000   0.000  -0.000  -0.000   5.248
  0.000  -0.000   0.000  -0.240   0.000  -0.000   0.000  -0.000
 -0.000  -0.000   0.000   0.000  -0.252  -0.000   0.000   0.000
  0.000  -0.000   0.001  -0.000   0.000  -0.000   0.000   0.002
 -0.000   0.000   0.005   0.000  -0.000   0.000  -0.000  -0.003
  0.000  -0.000  -0.000  -0.000  -0.000   0.000  -0.000  -0.000
 -0.000   0.000  -0.000   0.000   0.000   0.000   0.000  -0.000
  0.000  -0.000  -0.000  -0.000   0.000   0.000   0.000  -0.000
  0.000  -0.000  -0.000   0.000  -0.000  -0.000   0.000   0.000
  0.000   0.000  -0.000   0.000  -0.000  -0.000  -0.000   0.000
  0.000   0.000  -0.000  -0.000   0.000  -0.000  -0.000   0.000
 total augmentation occupancy for first ion, spin component:           1
  2.000   0.000   0.000   0.000   0.000   0.000   0.000   0.000   0.000   0.000   0.000   0.000   0.000   0.000   0.000   0.000
  0.000   2.000   0.000   0.000   0.000   0.000   0.000   0.000   0.000   0.000   0.000   0.000   0.000   0.000   0.000   0.000
  0.000   0.000   2.000   0.000   0.000   0.000   0.000   0.000   0.000   0.000   0.000   0.000   0.000   0.000   0.000   0.000
  0.000   0.000   0.000   2.000   0.000   0.000   0.000   0.000   0.000   0.000   0.000   0.000   0.000   0.000   0.000   0.000
  0.000   0.000   0.000   0.000   2.000   0.000   0.000   0.000   0.000   0.000   0.000   0.000   0.000   0.000   0.000   0.000
  0.000   0.000   0.000   0.000   0.000   0.000   0.000   0.000   0.000   0.000   0.000   0.000   0.000   0.000   0.000   0.000
  0.000   0.000   0.000   0.000   0.000   0.000   0.000   0.000   0.000   0.000   0.000   0.000   0.000   0.000   0.000   0.000
  0.000   0.000   0.000   0.000   0.000   0.000   0.000   0.000   0.000   0.000   0.000   0.000   0.000   0.000   0.000   0.000
  0.000   0.000   0.000   0.000   0.000   0.000   0.000   0.000   0.000   0.000   0.000   0.000   0.000   0.000   0.000   0.000
  0.000   0.000   0.000   0.000   0.000   0.000   0.000   0.000   0.000   0.000   0.000   0.000   0.000   0.000   0.000   0.000
  0.000   0.000   0.000   0.000   0.000   0.000   0.000   0.000   0.000   0.000   2.000   0.000   0.000   0.000   0.000   0.000
  0.000   0.000   0.000   0.000   0.000   0.000   0.000   0.000   0.000   0.000   0.000   0.000   0.000   0.000   0.000   0.000
  0.000   0.000   0.000   0.000   0.000   0.000   0.000   0.000   0.000   0.000   0.000   0.000   0.333   0.000   0.000   0.000
  0.000   0.000   0.000   0.000   0.000   0.000   0.000   0.000   0.000   0.000   0.000   0.000   0.000   0.333   0.000   0.000
  0.000   0.000   0.000   0.000   0.000   0.000   0.000   0.000   0.000   0.000   0.000   0.000   0.000   0.000   0.333   0.000
  0.000   0.000   0.000   0.000   0.000   0.000   0.000   0.000   0.000   0.000   0.000   0.000   0.000   0.000   0.000   0.000
  0.000   0.000   0.000   0.000   0.000   0.000   0.000   0.000   0.000   0.000   0.000   0.000   0.000   0.000   0.000   0.000
  0.000   0.000   0.000   0.000   0.000   0.000   0.000   0.000   0.000   0.000   0.000   0.000   0.000   0.000   0.000   0.000


------------------------ aborting loop because EDIFF is reached ----------------------------------------





 total charge

# of ion       s       p       d       tot
------------------------------------------
    1        0.937   0.748   9.979  11.664
    2        2.203   6.119   1.969  10.291
    3        2.182   6.098   1.982  10.262
    4        2.204   6.114   1.966  10.284
    5        2.182   6.098   1.982  10.262
    6        2.204   6.114   1.966  10.284
    7        2.209   6.133   1.924  10.267
    8        2.206   6.121   1.974  10.301
    9        0.411   0.409   0.000   0.820
   10        0.411   0.409   0.000   0.820
   11        0.411   0.409   0.000   0.820
   12        0.411   0.409   0.000   0.820
   13        0.411   0.409   0.000   0.820
   14        0.411   0.409   0.000   0.820
   15        0.411   0.409   0.000   0.820
   16        0.411   0.409   0.000   0.820
--------------------------------------------------
tot         19.617  46.817  23.740  90.174
 
    CHARGE:  cpu time      0.0353: real time      0.0353
    FORLOC:  cpu time      0.0005: real time      0.0005
    FORNL :  cpu time      0.5872: real time      0.5872
    STRESS:  cpu time      2.0945: real time      2.0945
    FORCOR:  cpu time      0.0058: real time      0.0058
    FORHAR:  cpu time      0.0015: real time      0.0015
    OFIELD:  cpu time      0.0000: real time      0.0000

  FORCE on cell =-STRESS in cart. coord.  units (eV):
  Direction    XX          YY          ZZ          XY          YZ          ZX
  --------------------------------------------------------------------------------------
  Alpha Z   315.16450   315.16450   315.16450
  Ewald   -2299.74450 -2299.74450 -4224.56271     0.00000    -0.00000    -0.00000
  Hartree  1935.95179  1935.95179   263.50870    -0.00000    -0.00000    -0.00000
  E(xc)    -591.74318  -591.74318  -593.00944    -0.00000     0.00000    -0.00000
  Local   -1262.13638 -1262.13638  2360.09641    -0.00000     0.00000    -0.00000
  n-local   -70.56214   -92.02708   -43.43958    -2.10391     0.82450     1.25801
  augment   553.25912   553.25912   537.72179     0.00000    -0.00000     0.00000
  Kinetic  1417.16670  1444.50111  1385.01437     0.60975    -1.27565    -0.70114
  Fock        0.00000     0.00000     0.00000     0.00000     0.00000     0.00000
  -------------------------------------------------------------------------------------
  Total       0.29065     0.29065     0.49405     0.00000     0.00000     0.00000
  in kB       1.79723     1.79723     3.05498     0.00000     0.00000     0.00000
  external pressure =        2.22 kB  Pullay stress =        0.00 kB


 VOLUME and BASIS-vectors are now :
 -----------------------------------------------------------------------------
  energy-cutoff  :      520.00
  volume of cell :      259.10
      direct lattice vectors                 reciprocal lattice vectors
     5.606951968  0.000000000  0.000000000     0.178350021  0.000000000  0.000000000
     0.000000000  5.606951968  0.000000000     0.000000000  0.178350021  0.000000000
     0.000000000  0.000000000  8.241706534     0.000000000  0.000000000  0.121334095

  length of vectors
     5.606951968  5.606951968  8.241706534     0.178350021  0.178350021  0.121334095


 FORCES acting on ions
    electron-ion (+dipol)            ewald-force                    non-local-force                 convergence-correction
 -----------------------------------------------------------------------------------------------
   0.382E-14 0.178E-13 -.724E-13   0.380E-13 0.613E-14 -.292E-13   0.000E+00 0.000E+00 0.000E+00   0.371E-12 -.722E-12 -.352E-12
   0.198E-14 0.246E-14 0.105E-11   -.332E-13 -.935E-14 0.512E-13   0.000E+00 0.000E+00 0.000E+00   -.498E-12 0.821E-12 -.257E-12
   -.172E-14 0.383E-12 -.443E-13   -.290E-13 -.624E-14 -.274E-13   0.000E+00 0.000E+00 0.000E+00   0.992E-12 0.618E-12 -.571E-12
   -.994E-14 0.389E-12 0.106E-11   -.452E-13 -.144E-13 0.195E-13   0.000E+00 0.000E+00 0.000E+00   -.115E-13 -.699E-12 0.143E-12
   0.375E-12 0.180E-14 -.688E-11   -.635E-14 0.635E-14 -.195E-13   0.000E+00 0.000E+00 0.000E+00   -.329E-12 -.792E-12 -.284E-12
   0.383E-12 0.368E-14 0.434E-11   0.292E-13 0.240E-14 0.274E-13   0.000E+00 0.000E+00 0.000E+00   0.220E-12 0.721E-12 -.397E-12
   0.386E-12 0.404E-12 -.210E-11   -.263E-13 -.182E-13 -.274E-13   0.000E+00 0.000E+00 0.000E+00   -.105E-11 0.765E-12 -.676E-12
   0.395E-12 0.421E-12 0.259E-11   0.957E-14 -.103E-13 0.433E-13   0.000E+00 0.000E+00 0.000E+00   0.584E-13 -.681E-12 -.191E-12
   -.633E+00 -.633E+00 0.481E+00   0.109E+01 0.109E+01 0.671E+00   -.468E+00 -.468E+00 -.113E+01   0.645E-02 0.645E-02 -.114E-01
   -.633E+00 -.633E+00 -.481E+00   0.109E+01 0.109E+01 -.671E+00   -.468E+00 -.468E+00 0.113E+01   0.645E-02 0.645E-02 0.114E-01
   -.633E+00 0.633E+00 0.481E+00   0.109E+01 -.109E+01 0.671E+00   -.468E+00 0.468E+00 -.113E+01   0.645E-02 -.645E-02 -.114E-01
   -.633E+00 0.633E+00 -.481E+00   0.109E+01 -.109E+01 -.671E+00   -.468E+00 0.468E+00 0.113E+01   0.645E-02 -.645E-02 0.114E-01
   0.633E+00 -.633E+00 0.481E+00   -.109E+01 0.109E+01 0.671E+00   0.468E+00 -.468E+00 -.113E+01   -.645E-02 0.645E-02 -.114E-01
   0.633E+00 -.633E+00 -.481E+00   -.109E+01 0.109E+01 -.671E+00   0.468E+00 -.468E+00 0.113E+01   -.645E-02 0.645E-02 0.114E-01
   0.633E+00 0.633E+00 0.481E+00   -.109E+01 -.109E+01 0.671E+00   0.468E+00 0.468E+00 -.113E+01   -.645E-02 -.645E-02 -.114E-01
   0.633E+00 0.633E+00 -.481E+00   -.109E+01 -.109E+01 -.671E+00   0.468E+00 0.468E+00 0.113E+01   -.645E-02 -.645E-02 0.114E-01
 -----------------------------------------------------------------------------------------------
   0.145E-11 0.125E-11 0.444E-11   0.000E+00 -.777E-14 -.178E-14   -.222E-15 0.000E+00 -.666E-15   -.249E-12 0.396E-13 -.234E-11
 
 
 POSITION                                       TOTAL-FORCE (eV/Angst)
 -----------------------------------------------------------------------------------
      0.00000      0.00000      0.00000         0.000000      0.000000      0.000000
      0.00000      0.00000      4.12085         0.000000      0.000000      0.000000
      0.00000      2.80348      0.00000         0.000000      0.000000      0.000000
      0.00000      2.80348      4.12085         0.000000      0.000000      0.000000
      2.80348      0.00000      0.00000         0.000000      0.000000      0.000000
      2.80348      0.00000      4.12085         0.000000      0.000000      0.000000
      2.80348      2.80348      0.00000         0.000000      0.000000      0.000000
      2.80348      2.80348      4.12085         0.000000      0.000000      0.000000
      1.40705      1.40705      2.07750        -0.000940     -0.000940      0.008229
      1.40705      1.40705      6.16421        -0.000940     -0.000940     -0.008229
      1.40705      4.19990      2.07750        -0.000940      0.000940      0.008229
      1.40705      4.19990      6.16421        -0.000940      0.000940     -0.008229
      4.19990      1.40705      2.07750         0.000940     -0.000940      0.008229
      4.19990      1.40705      6.16421         0.000940     -0.000940     -0.008229
      4.19990      4.19990      2.07750         0.000940      0.000940      0.008229
      4.19990      4.19990      6.16421         0.000940      0.000940     -0.008229
 -----------------------------------------------------------------------------------
    total drift:                                0.000000      0.000000      0.000000


--------------------------------------------------------------------------------------------------------



  FREE ENERGIE OF THE ION-ELECTRON SYSTEM (eV)
  ---------------------------------------------------
  free  energy   TOTEN  =       -93.84680066 eV

  energy  without entropy=      -93.84377910  energy(sigma->0) =      -93.84579347
 


--------------------------------------------------------------------------------------------------------


    POTLOK:  cpu time      0.0081: real time      0.0081


--------------------------------------------------------------------------------------------------------


 writing wavefunctions
     LOOP+:  cpu time     59.5809: real time     59.5848
    4ORBIT:  cpu time      0.0000: real time      0.0000



 total charge

# of ion       s       p       d       tot
------------------------------------------
    1        0.937   0.748   9.979  11.664
    2        2.203   6.119   1.969  10.291
    3        2.182   6.098   1.982  10.262
    4        2.204   6.114   1.966  10.284
    5        2.182   6.098   1.982  10.262
    6        2.204   6.114   1.966  10.284
    7        2.209   6.133   1.924  10.267
    8        2.206   6.121   1.974  10.301
    9        0.411   0.409   0.000   0.820
   10        0.411   0.409   0.000   0.820
   11        0.411   0.409   0.000   0.820
   12        0.411   0.409   0.000   0.820
   13        0.411   0.409   0.000   0.820
   14        0.411   0.409   0.000   0.820
   15        0.411   0.409   0.000   0.820
   16        0.411   0.409   0.000   0.820
--------------------------------------------------
tot         19.617  46.817  23.740  90.174
 

 total amount of memory used by VASP MPI-rank0   133107. kBytes
=======================================================================

   base                                    :      30000. kBytes
   nonl-proj                               :      93040. kBytes
   fftplans                                :        434. kBytes
   grid                                    :       2381. kBytes
   one-center                              :        248. kBytes
   wavefun                                 :       7004. kBytes
 
  
  
 General timing and accounting informations for this job:
 ========================================================
  
                  Total CPU time used (sec):       64.005
                            User time (sec):       60.121
                          System time (sec):        3.884
                         Elapsed time (sec):       64.270
  
                   Maximum memory used (kb):      313344.
                   Average memory used (kb):          N/A
  
                          Minor page faults:        47452
                          Major page faults:           14
                 Voluntary context switches:          117
