PROCAR new format
# of k-points:   30         # of bands:  128         # of ions:   16

 k-point     1 :    0.00000000 0.00000000 0.00000000     weight = 0.00694444

band     1 # energy  -48.47407584 # occ.  2.00000000
 
ion      s      p      d    tot
    1  0.000  0.000  0.000  0.000
    2  0.000  0.000  0.000  0.000
    3  0.386  0.000  0.000  0.386
    4  0.000  0.000  0.000  0.000
    5  0.386  0.000  0.000  0.386
    6  0.000  0.000  0.000  0.000
    7  0.222  0.000  0.000  0.222
    8  0.000  0.000  0.000  0.000
    9  0.000  0.000  0.000  0.000
   10  0.000  0.000  0.000  0.000
   11  0.000  0.000  0.000  0.000
   12  0.000  0.000  0.000  0.000
   13  0.000  0.000  0.000  0.000
   14  0.000  0.000  0.000  0.000
   15  0.000  0.000  0.000  0.000
   16  0.000  0.000  0.000  0.000
tot    0.994  0.000  0.000  0.994
 
band     2 # energy  -48.44951871 # occ.  2.00000000
 
ion      s      p      d    tot
    1  0.000  0.000  0.000  0.000
    2  0.000  0.000  0.000  0.000
    3  0.497  0.000  0.000  0.497
    4  0.000  0.000  0.000  0.000
    5  0.497  0.000  0.000  0.497
    6  0.000  0.000  0.000  0.000
    7  0.000  0.000  0.000  0.000
    8  0.000  0.000  0.000  0.000
    9  0.000  0.000  0.000  0.000
   10  0.000  0.000  0.000  0.000
   11  0.000  0.000  0.000  0.000
   12  0.000  0.000  0.000  0.000
   13  0.000  0.000  0.000  0.000
   14  0.000  0.000  0.000  0.000
   15  0.000  0.000  0.000  0.000
   16  0.000  0.000  0.000  0.000
tot    0.995  0.000  0.000  0.995
 
band     3 # energy  -48.38577789 # occ.  2.00000000
 
ion      s      p      d    tot
    1  0.000  0.000  0.000  0.000
    2  0.076  0.000  0.000  0.076
    3  0.000  0.000  0.000  0.000
    4  0.439  0.000  0.000  0.439
    5  0.000  0.000  0.000  0.000
    6  0.439  0.000  0.000  0.439
    7  0.000  0.000  0.000  0.000
    8  0.040  0.000  0.000  0.040
    9  0.000  0.000  0.000  0.000
   10  0.000  0.000  0.000  0.000
   11  0.000  0.000  0.000  0.000
   12  0.000  0.000  0.000  0.000
   13  0.000  0.000  0.000  0.000
   14  0.000  0.000  0.000  0.000
   15  0.000  0.000  0.000  0.000
   16  0.000  0.000  0.000  0.000
tot    0.994  0.000  0.000  0.994
 
band     4 # energy  -48.37021636 # occ.  2.00000000
 
ion      s      p      d    tot
    1  0.000  0.000  0.000  0.000
    2  0.000  0.000  0.000  0.000
    3  0.112  0.000  0.000  0.112
    4  0.000  0.000  0.000  0.000
    5  0.112  0.000  0.000  0.112
    6  0.000  0.000  0.000  0.000
    7  0.773  0.000  0.000  0.773
    8  0.000  0.000  0.000  0.000
    9  0.000  0.000  0.000  0.000
   10  0.000  0.000  0.000  0.000
   11  0.000  0.000  0.000  0.000
   12  0.000  0.000  0.000  0.000
   13  0.000  0.000  0.000  0.000
   14  0.000  0.000  0.000  0.000
   15  0.000  0.000  0.000  0.000
   16  0.000  0.000  0.000  0.000
tot    0.996  0.000  0.000  0.996
 
band     5 # energy  -48.36241252 # occ.  2.00000000
 
ion      s      p      d    tot
    1  0.000  0.000  0.000  0.000
    2  0.000  0.000  0.000  0.000
    3  0.000  0.000  0.000  0.000
    4  0.497  0.000  0.000  0.497
    5  0.000  0.000  0.000  0.000
    6  0.497  0.000  0.000  0.497
    7  0.000  0.000  0.000  0.000
    8  0.000  0.000  0.000  0.000
    9  0.000  0.000  0.000  0.000
   10  0.000  0.000  0.000  0.000
   11  0.000  0.000  0.000  0.000
   12  0.000  0.000  0.000  0.000
   13  0.000  0.000  0.000  0.000
   14  0.000  0.000  0.000  0.000
   15  0.000  0.000  0.000  0.000
   16  0.000  0.000  0.000  0.000
tot    0.995  0.000  0.000  0.995
 
band     6 # energy  -48.22650134 # occ.  2.00000000
 
ion      s      p      d    tot
    1  0.000  0.000  0.000  0.000
    2  0.896  0.000  0.000  0.896
    3  0.000  0.000  0.000  0.000
    4  0.027  0.000  0.000  0.027
    5  0.000  0.000  0.000  0.000
    6  0.027  0.000  0.000  0.027
    7  0.000  0.000  0.000  0.000
    8  0.045  0.000  0.000  0.045
    9  0.000  0.000  0.000  0.000
   10  0.000  0.000  0.000  0.000
   11  0.000  0.000  0.000  0.000
   12  0.000  0.000  0.000  0.000
   13  0.000  0.000  0.000  0.000
   14  0.000  0.000  0.000  0.000
   15  0.000  0.000  0.000  0.000
   16  0.000  0.000  0.000  0.000
tot    0.995  0.000  0.000  0.995
 
band     7 # energy  -48.16985346 # occ.  2.00000000
 
ion      s      p      d    tot
    1  0.000  0.000  0.000  0.000
    2  0.023  0.000  0.000  0.023
    3  0.000  0.000  0.000  0.000
    4  0.031  0.000  0.000  0.031
    5  0.000  0.000  0.000  0.000
    6  0.031  0.000  0.000  0.031
    7  0.000  0.000  0.000  0.000
    8  0.910  0.000  0.000  0.910
    9  0.000  0.000  0.000  0.000
   10  0.000  0.000  0.000  0.000
   11  0.000  0.000  0.000  0.000
   12  0.000  0.000  0.000  0.000
   13  0.000  0.000  0.000  0.000
   14  0.000  0.000  0.000  0.000
   15  0.000  0.000  0.000  0.000
   16  0.000  0.000  0.000  0.000
tot    0.996  0.000  0.000  0.996
 
band     8 # energy  -24.87510598 # occ.  2.00000000
 
ion      s      p      d    tot
    1  0.000  0.000  0.000  0.000
    2  0.000  0.000  0.000  0.000
    3  0.000  0.186  0.000  0.186
    4  0.000  0.000  0.000  0.000
    5  0.000  0.321  0.000  0.321
    6  0.000  0.000  0.000  0.000
    7  0.000  0.468  0.000  0.468
    8  0.000  0.000  0.000  0.000
    9  0.000  0.000  0.000  0.000
   10  0.000  0.000  0.000  0.000
   11  0.000  0.000  0.000  0.000
   12  0.000  0.000  0.000  0.000
   13  0.000  0.000  0.000  0.000
   14  0.000  0.000  0.000  0.000
   15  0.000  0.000  0.000  0.000
   16  0.000  0.000  0.000  0.000
tot    0.000  0.975  0.000  0.975
 
band     9 # energy  -24.87510598 # occ.  2.00000000
 
ion      s      p      d    tot
    1  0.000  0.000  0.000  0.000
    2  0.000  0.000  0.000  0.000
    3  0.000  0.321  0.000  0.321
    4  0.000  0.000  0.000  0.000
    5  0.000  0.186  0.000  0.186
    6  0.000  0.000  0.000  0.000
    7  0.000  0.468  0.000  0.468
    8  0.000  0.000  0.000  0.000
    9  0.000  0.000  0.000  0.000
   10  0.000  0.000  0.000  0.000
   11  0.000  0.000  0.000  0.000
   12  0.000  0.000  0.000  0.000
   13  0.000  0.000  0.000  0.000
   14  0.000  0.000  0.000  0.000
   15  0.000  0.000  0.000  0.000
   16  0.000  0.000  0.000  0.000
tot    0.000  0.975  0.000  0.975
 
band    10 # energy  -24.82439252 # occ.  2.00000000
 
ion      s      p      d    tot
    1  0.000  0.000  0.000  0.000
    2  0.000  0.001  0.000  0.001
    3  0.000  0.374  0.000  0.374
    4  0.000  0.014  0.000  0.014
    5  0.000  0.374  0.000  0.374
    6  0.000  0.014  0.000  0.014
    7  0.000  0.201  0.000  0.201
    8  0.000  0.002  0.000  0.002
    9  0.000  0.000  0.000  0.000
   10  0.000  0.000  0.000  0.000
   11  0.000  0.000  0.000  0.000
   12  0.000  0.000  0.000  0.000
   13  0.000  0.000  0.000  0.000
   14  0.000  0.000  0.000  0.000
   15  0.000  0.000  0.000  0.000
   16  0.000  0.000  0.000  0.000
tot    0.000  0.981  0.000  0.981
 
band    11 # energy  -24.80806349 # occ.  2.00000000
 
ion      s      p      d    tot
    1  0.000  0.000  0.000  0.000
    2  0.000  0.271  0.000  0.271
    3  0.000  0.000  0.000  0.000
    4  0.000  0.277  0.000  0.277
    5  0.000  0.000  0.000  0.000
    6  0.000  0.314  0.000  0.314
    7  0.000  0.000  0.000  0.000
    8  0.000  0.111  0.000  0.111
    9  0.000  0.000  0.000  0.000
   10  0.000  0.000  0.000  0.000
   11  0.000  0.000  0.000  0.000
   12  0.000  0.000  0.000  0.000
   13  0.000  0.000  0.000  0.000
   14  0.000  0.000  0.000  0.000
   15  0.000  0.000  0.000  0.000
   16  0.000  0.000  0.000  0.000
tot    0.000  0.974  0.000  0.974
 
band    12 # energy  -24.80806349 # occ.  2.00000000
 
ion      s      p      d    tot
    1  0.000  0.000  0.000  0.000
    2  0.000  0.271  0.000  0.271
    3  0.000  0.000  0.000  0.000
    4  0.000  0.314  0.000  0.314
    5  0.000  0.000  0.000  0.000
    6  0.000  0.277  0.000  0.277
    7  0.000  0.000  0.000  0.000
    8  0.000  0.111  0.000  0.111
    9  0.000  0.000  0.000  0.000
   10  0.000  0.000  0.000  0.000
   11  0.000  0.000  0.000  0.000
   12  0.000  0.000  0.000  0.000
   13  0.000  0.000  0.000  0.000
   14  0.000  0.000  0.000  0.000
   15  0.000  0.000  0.000  0.000
   16  0.000  0.000  0.000  0.000
tot    0.000  0.974  0.000  0.974
 
band    13 # energy  -24.79848775 # occ.  2.00000000
 
ion      s      p      d    tot
    1  0.000  0.000  0.000  0.000
    2  0.000  0.000  0.000  0.000
    3  0.000  0.478  0.000  0.478
    4  0.000  0.013  0.000  0.013
    5  0.000  0.478  0.000  0.478
    6  0.000  0.013  0.000  0.013
    7  0.000  0.000  0.000  0.000
    8  0.000  0.000  0.000  0.000
    9  0.000  0.000  0.000  0.000
   10  0.000  0.000  0.000  0.000
   11  0.000  0.000  0.000  0.000
   12  0.000  0.000  0.000  0.000
   13  0.000  0.000  0.000  0.000
   14  0.000  0.000  0.000  0.000
   15  0.000  0.000  0.000  0.000
   16  0.000  0.000  0.000  0.000
tot    0.000  0.983  0.000  0.983
 
band    14 # energy  -24.78731369 # occ.  2.00000000
 
ion      s      p      d    tot
    1  0.000  0.000  0.000  0.000
    2  0.000  0.044  0.000  0.044
    3  0.000  0.012  0.000  0.012
    4  0.000  0.435  0.000  0.435
    5  0.000  0.012  0.000  0.012
    6  0.000  0.435  0.000  0.435
    7  0.000  0.009  0.000  0.009
    8  0.000  0.035  0.000  0.035
    9  0.000  0.000  0.000  0.000
   10  0.000  0.000  0.000  0.000
   11  0.000  0.000  0.000  0.000
   12  0.000  0.000  0.000  0.000
   13  0.000  0.000  0.000  0.000
   14  0.000  0.000  0.000  0.000
   15  0.000  0.000  0.000  0.000
   16  0.000  0.000  0.000  0.000
tot    0.000  0.981  0.000  0.982
 
band    15 # energy  -24.78095168 # occ.  2.00000000
 
ion      s      p      d    tot
    1  0.000  0.000  0.000  0.000
    2  0.000  0.000  0.000  0.000
    3  0.000  0.764  0.000  0.764
    4  0.000  0.000  0.000  0.000
    5  0.000  0.187  0.000  0.187
    6  0.000  0.000  0.000  0.000
    7  0.000  0.031  0.000  0.031
    8  0.000  0.000  0.000  0.000
    9  0.000  0.000  0.000  0.000
   10  0.000  0.000  0.000  0.000
   11  0.000  0.000  0.000  0.000
   12  0.000  0.000  0.000  0.000
   13  0.000  0.000  0.000  0.000
   14  0.000  0.000  0.000  0.000
   15  0.000  0.000  0.000  0.000
   16  0.000  0.000  0.000  0.000
tot    0.000  0.984  0.000  0.984
 
band    16 # energy  -24.78095168 # occ.  2.00000000
 
ion      s      p      d    tot
    1  0.000  0.000  0.000  0.000
    2  0.000  0.000  0.000  0.000
    3  0.000  0.187  0.000  0.187
    4  0.000  0.000  0.000  0.000
    5  0.000  0.764  0.000  0.764
    6  0.000  0.000  0.000  0.000
    7  0.000  0.031  0.000  0.031
    8  0.000  0.000  0.000  0.000
    9  0.000  0.000  0.000  0.000
   10  0.000  0.000  0.000  0.000
   11  0.000  0.000  0.000  0.000
   12  0.000  0.000  0.000  0.000
   13  0.000  0.000  0.000  0.000
   14  0.000  0.000  0.000  0.000
   15  0.000  0.000  0.000  0.000
   16  0.000  0.000  0.000  0.000
tot    0.000  0.984  0.000  0.984
 
band    17 # energy  -24.76586238 # occ.  2.00000000
 
ion      s      p      d    tot
    1  0.000  0.000  0.000  0.000
    2  0.000  0.000  0.000  0.000
    3  0.000  0.013  0.000  0.013
    4  0.000  0.478  0.000  0.478
    5  0.000  0.013  0.000  0.013
    6  0.000  0.478  0.000  0.478
    7  0.000  0.000  0.000  0.000
    8  0.000  0.000  0.000  0.000
    9  0.000  0.000  0.000  0.000
   10  0.000  0.000  0.000  0.000
   11  0.000  0.000  0.000  0.000
   12  0.000  0.000  0.000  0.000
   13  0.000  0.000  0.000  0.000
   14  0.000  0.000  0.000  0.000
   15  0.000  0.000  0.000  0.000
   16  0.000  0.000  0.000  0.000
tot    0.000  0.983  0.000  0.983
 
band    18 # energy  -24.73303923 # occ.  2.00000000
 
ion      s      p      d    tot
    1  0.000  0.000  0.000  0.000
    2  0.000  0.116  0.000  0.116
    3  0.000  0.000  0.000  0.000
    4  0.000  0.203  0.000  0.203
    5  0.000  0.000  0.000  0.000
    6  0.000  0.437  0.000  0.437
    7  0.000  0.000  0.000  0.000
    8  0.000  0.221  0.000  0.221
    9  0.000  0.000  0.000  0.000
   10  0.000  0.000  0.000  0.000
   11  0.000  0.000  0.000  0.000
   12  0.000  0.000  0.000  0.000
   13  0.000  0.000  0.000  0.000
   14  0.000  0.000  0.000  0.000
   15  0.000  0.000  0.000  0.000
   16  0.000  0.000  0.000  0.000
tot    0.000  0.977  0.000  0.977
 
band    19 # energy  -24.73303923 # occ.  2.00000000
 
ion      s      p      d    tot
    1  0.000  0.000  0.000  0.000
    2  0.000  0.116  0.000  0.116
    3  0.000  0.000  0.000  0.000
    4  0.000  0.437  0.000  0.437
    5  0.000  0.000  0.000  0.000
    6  0.000  0.203  0.000  0.203
    7  0.000  0.000  0.000  0.000
    8  0.000  0.221  0.000  0.221
    9  0.000  0.000  0.000  0.000
   10  0.000  0.000  0.000  0.000
   11  0.000  0.000  0.000  0.000
   12  0.000  0.000  0.000  0.000
   13  0.000  0.000  0.000  0.000
   14  0.000  0.000  0.000  0.000
   15  0.000  0.000  0.000  0.000
   16  0.000  0.000  0.000  0.000
tot    0.000  0.977  0.000  0.977
 
band    20 # energy  -24.71885006 # occ.  2.00000000
 
ion      s      p      d    tot
    1  0.000  0.000  0.000  0.000
    2  0.000  0.000  0.000  0.000
    3  0.000  0.106  0.000  0.106
    4  0.000  0.000  0.000  0.000
    5  0.000  0.106  0.000  0.106
    6  0.000  0.000  0.000  0.000
    7  0.000  0.772  0.000  0.772
    8  0.000  0.001  0.000  0.001
    9  0.000  0.000  0.000  0.000
   10  0.000  0.000  0.000  0.000
   11  0.000  0.000  0.000  0.000
   12  0.000  0.000  0.000  0.000
   13  0.000  0.000  0.000  0.000
   14  0.000  0.000  0.000  0.000
   15  0.000  0.000  0.000  0.000
   16  0.000  0.000  0.000  0.000
tot    0.000  0.985  0.000  0.985
 
band    21 # energy  -24.58857588 # occ.  2.00000000
 
ion      s      p      d    tot
    1  0.000  0.000  0.000  0.000
    2  0.000  0.863  0.000  0.863
    3  0.000  0.000  0.000  0.000
    4  0.000  0.011  0.000  0.011
    5  0.000  0.000  0.000  0.000
    6  0.000  0.011  0.000  0.011
    7  0.000  0.000  0.000  0.000
    8  0.000  0.099  0.000  0.099
    9  0.000  0.000  0.000  0.000
   10  0.000  0.000  0.000  0.000
   11  0.000  0.000  0.000  0.000
   12  0.000  0.000  0.000  0.000
   13  0.000  0.000  0.000  0.000
   14  0.000  0.000  0.000  0.000
   15  0.000  0.000  0.000  0.000
   16  0.000  0.000  0.000  0.000
tot    0.000  0.984  0.000  0.984
 
band    22 # energy  -24.56193222 # occ.  2.00000000
 
ion      s      p      d    tot
    1  0.000  0.000  0.000  0.000
    2  0.000  0.075  0.000  0.075
    3  0.000  0.000  0.000  0.000
    4  0.000  0.031  0.000  0.031
    5  0.000  0.000  0.000  0.000
    6  0.000  0.031  0.000  0.031
    7  0.000  0.001  0.000  0.001
    8  0.000  0.846  0.000  0.846
    9  0.000  0.000  0.000  0.000
   10  0.000  0.000  0.000  0.000
   11  0.000  0.000  0.000  0.000
   12  0.000  0.000  0.000  0.000
   13  0.000  0.000  0.000  0.000
   14  0.000  0.000  0.000  0.000
   15  0.000  0.000  0.000  0.000
   16  0.000  0.000  0.000  0.000
tot    0.000  0.984  0.000  0.984
 
band    23 # energy  -24.37925517 # occ.  2.00000000
 
ion      s      p      d    tot
    1  0.000  0.000  0.000  0.000
    2  0.000  0.000  0.000  0.000
    3  0.000  0.366  0.000  0.366
    4  0.000  0.000  0.000  0.000
    5  0.000  0.142  0.000  0.142
    6  0.000  0.000  0.000  0.000
    7  0.000  0.483  0.000  0.483
    8  0.000  0.000  0.000  0.000
    9  0.000  0.000  0.000  0.000
   10  0.000  0.000  0.000  0.000
   11  0.000  0.000  0.000  0.000
   12  0.000  0.000  0.000  0.000
   13  0.000  0.000  0.000  0.000
   14  0.000  0.000  0.000  0.000
   15  0.000  0.000  0.000  0.000
   16  0.000  0.000  0.000  0.000
tot    0.000  0.991  0.000  0.991
 
band    24 # energy  -24.37925517 # occ.  2.00000000
 
ion      s      p      d    tot
    1  0.000  0.000  0.000  0.000
    2  0.000  0.000  0.000  0.000
    3  0.000  0.142  0.000  0.142
    4  0.000  0.000  0.000  0.000
    5  0.000  0.366  0.000  0.366
    6  0.000  0.000  0.000  0.000
    7  0.000  0.483  0.000  0.483
    8  0.000  0.000  0.000  0.000
    9  0.000  0.000  0.000  0.000
   10  0.000  0.000  0.000  0.000
   11  0.000  0.000  0.000  0.000
   12  0.000  0.000  0.000  0.000
   13  0.000  0.000  0.000  0.000
   14  0.000  0.000  0.000  0.000
   15  0.000  0.000  0.000  0.000
   16  0.000  0.000  0.000  0.000
tot    0.000  0.991  0.000  0.991
 
band    25 # energy  -24.29184966 # occ.  2.00000000
 
ion      s      p      d    tot
    1  0.000  0.000  0.000  0.000
    2  0.000  0.517  0.000  0.517
    3  0.000  0.000  0.000  0.000
    4  0.000  0.105  0.000  0.105
    5  0.000  0.000  0.000  0.000
    6  0.000  0.273  0.000  0.273
    7  0.000  0.000  0.000  0.000
    8  0.000  0.096  0.000  0.096
    9  0.000  0.000  0.000  0.000
   10  0.000  0.000  0.000  0.000
   11  0.000  0.000  0.000  0.000
   12  0.000  0.000  0.000  0.000
   13  0.000  0.000  0.000  0.000
   14  0.000  0.000  0.000  0.000
   15  0.000  0.000  0.000  0.000
   16  0.000  0.000  0.000  0.000
tot    0.000  0.991  0.000  0.991
 
band    26 # energy  -24.29184966 # occ.  2.00000000
 
ion      s      p      d    tot
    1  0.000  0.000  0.000  0.000
    2  0.000  0.517  0.000  0.517
    3  0.000  0.000  0.000  0.000
    4  0.000  0.273  0.000  0.273
    5  0.000  0.000  0.000  0.000
    6  0.000  0.105  0.000  0.105
    7  0.000  0.000  0.000  0.000
    8  0.000  0.096  0.000  0.096
    9  0.000  0.000  0.000  0.000
   10  0.000  0.000  0.000  0.000
   11  0.000  0.000  0.000  0.000
   12  0.000  0.000  0.000  0.000
   13  0.000  0.000  0.000  0.000
   14  0.000  0.000  0.000  0.000
   15  0.000  0.000  0.000  0.000
   16  0.000  0.000  0.000  0.000
tot    0.000  0.991  0.000  0.991
 
band    27 # energy  -24.23028436 # occ.  2.00000000
 
ion      s      p      d    tot
    1  0.000  0.000  0.000  0.000
    2  0.000  0.079  0.000  0.079
    3  0.000  0.000  0.000  0.000
    4  0.000  0.113  0.000  0.113
    5  0.000  0.000  0.000  0.000
    6  0.000  0.245  0.000  0.245
    7  0.000  0.000  0.000  0.000
    8  0.000  0.555  0.000  0.555
    9  0.000  0.000  0.000  0.000
   10  0.000  0.000  0.000  0.000
   11  0.000  0.000  0.000  0.000
   12  0.000  0.000  0.000  0.000
   13  0.000  0.000  0.000  0.000
   14  0.000  0.000  0.000  0.000
   15  0.000  0.000  0.000  0.000
   16  0.000  0.000  0.000  0.000
tot    0.000  0.992  0.000  0.992
 
band    28 # energy  -24.23028436 # occ.  2.00000000
 
ion      s      p      d    tot
    1  0.000  0.000  0.000  0.000
    2  0.000  0.079  0.000  0.079
    3  0.000  0.000  0.000  0.000
    4  0.000  0.245  0.000  0.245
    5  0.000  0.000  0.000  0.000
    6  0.000  0.113  0.000  0.113
    7  0.000  0.000  0.000  0.000
    8  0.000  0.555  0.000  0.555
    9  0.000  0.000  0.000  0.000
   10  0.000  0.000  0.000  0.000
   11  0.000  0.000  0.000  0.000
   12  0.000  0.000  0.000  0.000
   13  0.000  0.000  0.000  0.000
   14  0.000  0.000  0.000  0.000
   15  0.000  0.000  0.000  0.000
   16  0.000  0.000  0.000  0.000
tot    0.000  0.992  0.000  0.992
 
band    29 # energy   -6.55488964 # occ.  2.00000000
 
ion      s      p      d    tot
    1  0.000  0.000  0.987  0.987
    2  0.000  0.000  0.000  0.000
    3  0.000  0.000  0.000  0.000
    4  0.000  0.000  0.000  0.000
    5  0.000  0.000  0.000  0.000
    6  0.000  0.000  0.000  0.000
    7  0.000  0.000  0.000  0.000
    8  0.000  0.000  0.000  0.000
    9  0.000  0.000  0.000  0.000
   10  0.000  0.000  0.000  0.000
   11  0.000  0.000  0.000  0.000
   12  0.000  0.000  0.000  0.000
   13  0.000  0.000  0.000  0.000
   14  0.000  0.000  0.000  0.000
   15  0.000  0.000  0.000  0.000
   16  0.000  0.000  0.000  0.000
tot    0.000  0.000  0.988  0.988
 
band    30 # energy   -6.55438027 # occ.  2.00000000
 
ion      s      p      d    tot
    1  0.000  0.000  0.986  0.986
    2  0.000  0.000  0.000  0.000
    3  0.000  0.000  0.000  0.000
    4  0.000  0.000  0.000  0.000
    5  0.000  0.000  0.000  0.000
    6  0.000  0.000  0.000  0.000
    7  0.000  0.000  0.000  0.000
    8  0.000  0.000  0.000  0.000
    9  0.000  0.000  0.000  0.000
   10  0.000  0.000  0.000  0.000
   11  0.000  0.000  0.000  0.000
   12  0.000  0.000  0.000  0.000
   13  0.000  0.000  0.000  0.000
   14  0.000  0.000  0.000  0.000
   15  0.000  0.000  0.000  0.000
   16  0.000  0.000  0.000  0.000
tot    0.000  0.000  0.987  0.987
 
band    31 # energy   -6.55438027 # occ.  2.00000000
 
ion      s      p      d    tot
    1  0.000  0.000  0.986  0.986
    2  0.000  0.000  0.000  0.000
    3  0.000  0.000  0.000  0.000
    4  0.000  0.000  0.000  0.000
    5  0.000  0.000  0.000  0.000
    6  0.000  0.000  0.000  0.000
    7  0.000  0.000  0.000  0.000
    8  0.000  0.000  0.000  0.000
    9  0.000  0.000  0.000  0.000
   10  0.000  0.000  0.000  0.000
   11  0.000  0.000  0.000  0.000
   12  0.000  0.000  0.000  0.000
   13  0.000  0.000  0.000  0.000
   14  0.000  0.000  0.000  0.000
   15  0.000  0.000  0.000  0.000
   16  0.000  0.000  0.000  0.000
tot    0.000  0.000  0.987  0.987
 
band    32 # energy   -6.54573542 # occ.  2.00000000
 
ion      s      p      d    tot
    1  0.000  0.000  0.987  0.987
    2  0.000  0.000  0.000  0.000
    3  0.000  0.000  0.001  0.001
    4  0.000  0.000  0.000  0.000
    5  0.000  0.000  0.001  0.001
    6  0.000  0.000  0.000  0.000
    7  0.000  0.000  0.000  0.000
    8  0.000  0.000  0.000  0.000
    9  0.000  0.000  0.000  0.000
   10  0.000  0.000  0.000  0.000
   11  0.000  0.000  0.000  0.000
   12  0.000  0.000  0.000  0.000
   13  0.000  0.000  0.000  0.000
   14  0.000  0.000  0.000  0.000
   15  0.000  0.000  0.000  0.000
   16  0.000  0.000  0.000  0.000
tot    0.001  0.000  0.988  0.988
 
band    33 # energy   -6.51042211 # occ.  2.00000000
 
ion      s      p      d    tot
    1  0.000  0.000  0.987  0.987
    2  0.000  0.000  0.000  0.000
    3  0.000  0.000  0.000  0.000
    4  0.000  0.000  0.000  0.000
    5  0.000  0.000  0.000  0.000
    6  0.000  0.000  0.000  0.000
    7  0.000  0.000  0.000  0.000
    8  0.000  0.000  0.000  0.000
    9  0.000  0.000  0.000  0.000
   10  0.000  0.000  0.000  0.000
   11  0.000  0.000  0.000  0.000
   12  0.000  0.000  0.000  0.000
   13  0.000  0.000  0.000  0.000
   14  0.000  0.000  0.000  0.000
   15  0.000  0.000  0.000  0.000
   16  0.000  0.000  0.000  0.000
tot    0.000  0.000  0.988  0.988
 
band    34 # energy   -1.36735948 # occ.  2.00000000
 
ion      s      p      d    tot
    1  0.116  0.000  0.000  0.116
    2  0.008  0.000  0.000  0.008
    3  0.015  0.000  0.001  0.016
    4  0.007  0.000  0.000  0.007
    5  0.015  0.000  0.001  0.016
    6  0.007  0.000  0.000  0.007
    7  0.009  0.000  0.000  0.010
    8  0.006  0.000  0.000  0.007
    9  0.021  0.000  0.000  0.021
   10  0.021  0.000  0.000  0.021
   11  0.021  0.000  0.000  0.021
   12  0.021  0.000  0.000  0.021
   13  0.021  0.000  0.000  0.021
   14  0.021  0.000  0.000  0.021
   15  0.021  0.000  0.000  0.021
   16  0.021  0.000  0.000  0.021
tot    0.348  0.002  0.003  0.353
 
band    35 # energy    0.40727837 # occ.  2.00000000
 
ion      s      p      d    tot
    1  0.000  0.017  0.000  0.017
    2  0.000  0.007  0.000  0.007
    3  0.000  0.007  0.000  0.007
    4  0.000  0.006  0.000  0.006
    5  0.000  0.007  0.000  0.007
    6  0.000  0.006  0.000  0.006
    7  0.000  0.006  0.000  0.006
    8  0.000  0.006  0.000  0.006
    9  0.032  0.000  0.000  0.032
   10  0.032  0.000  0.000  0.032
   11  0.032  0.000  0.000  0.032
   12  0.032  0.000  0.000  0.032
   13  0.032  0.000  0.000  0.032
   14  0.032  0.000  0.000  0.032
   15  0.032  0.000  0.000  0.032
   16  0.032  0.000  0.000  0.032
tot    0.253  0.062  0.000  0.316
 
band    36 # energy    1.42364738 # occ.  2.00000000
 
ion      s      p      d    tot
    1  0.226  0.000  0.000  0.226
    2  0.011  0.000  0.001  0.012
    3  0.005  0.000  0.013  0.018
    4  0.019  0.000  0.000  0.020
    5  0.005  0.000  0.013  0.018
    6  0.019  0.000  0.000  0.020
    7  0.000  0.000  0.004  0.004
    8  0.027  0.000  0.000  0.027
    9  0.004  0.006  0.000  0.010
   10  0.004  0.006  0.000  0.010
   11  0.004  0.006  0.000  0.010
   12  0.004  0.006  0.000  0.010
   13  0.004  0.006  0.000  0.010
   14  0.004  0.006  0.000  0.010
   15  0.004  0.006  0.000  0.010
   16  0.004  0.006  0.000  0.010
tot    0.349  0.047  0.032  0.427
 
band    37 # energy    3.42132647 # occ.  2.00000000
 
ion      s      p      d    tot
    1  0.000  0.039  0.000  0.039
    2  0.000  0.007  0.000  0.007
    3  0.000  0.010  0.000  0.010
    4  0.000  0.007  0.000  0.007
    5  0.000  0.016  0.000  0.016
    6  0.000  0.008  0.000  0.008
    7  0.000  0.010  0.000  0.010
    8  0.000  0.007  0.000  0.007
    9  0.040  0.000  0.000  0.040
   10  0.040  0.000  0.000  0.040
   11  0.020  0.000  0.000  0.020
   12  0.020  0.000  0.000  0.020
   13  0.020  0.000  0.000  0.020
   14  0.020  0.000  0.000  0.020
   15  0.040  0.000  0.000  0.040
   16  0.040  0.000  0.000  0.040
tot    0.242  0.105  0.000  0.347
 
band    38 # energy    3.42132647 # occ.  2.00000000
 
ion      s      p      d    tot
    1  0.000  0.039  0.000  0.039
    2  0.000  0.007  0.000  0.007
    3  0.000  0.016  0.000  0.016
    4  0.000  0.008  0.000  0.008
    5  0.000  0.010  0.000  0.010
    6  0.000  0.007  0.000  0.007
    7  0.000  0.010  0.000  0.010
    8  0.000  0.007  0.000  0.007
    9  0.020  0.000  0.000  0.020
   10  0.020  0.000  0.000  0.020
   11  0.040  0.000  0.000  0.040
   12  0.040  0.000  0.000  0.040
   13  0.040  0.000  0.000  0.040
   14  0.040  0.000  0.000  0.040
   15  0.020  0.000  0.000  0.020
   16  0.020  0.000  0.000  0.020
tot    0.242  0.105  0.000  0.347
 
band    39 # energy    3.44786717 # occ.  2.00000000
 
ion      s      p      d    tot
    1  0.000  0.000  0.005  0.005
    2  0.000  0.000  0.026  0.026
    3  0.000  0.000  0.025  0.025
    4  0.000  0.000  0.030  0.030
    5  0.000  0.000  0.022  0.022
    6  0.000  0.000  0.028  0.028
    7  0.000  0.000  0.027  0.027
    8  0.000  0.000  0.029  0.029
    9  0.004  0.000  0.000  0.005
   10  0.004  0.000  0.000  0.005
   11  0.056  0.000  0.000  0.056
   12  0.056  0.000  0.000  0.056
   13  0.056  0.000  0.000  0.056
   14  0.056  0.000  0.000  0.056
   15  0.004  0.000  0.000  0.005
   16  0.004  0.000  0.000  0.005
tot    0.241  0.000  0.192  0.433
 
band    40 # energy    3.44786717 # occ.  2.00000000
 
ion      s      p      d    tot
    1  0.000  0.000  0.005  0.005
    2  0.000  0.000  0.026  0.026
    3  0.000  0.000  0.022  0.022
    4  0.000  0.000  0.028  0.028
    5  0.000  0.000  0.025  0.025
    6  0.000  0.000  0.030  0.030
    7  0.000  0.000  0.027  0.027
    8  0.000  0.000  0.029  0.029
    9  0.056  0.000  0.000  0.056
   10  0.056  0.000  0.000  0.056
   11  0.004  0.000  0.000  0.005
   12  0.004  0.000  0.000  0.005
   13  0.004  0.000  0.000  0.005
   14  0.004  0.000  0.000  0.005
   15  0.056  0.000  0.000  0.056
   16  0.056  0.000  0.000  0.056
tot    0.241  0.000  0.192  0.433
 
band    41 # energy    3.46009645 # occ.  2.00000000
 
ion      s      p      d    tot
    1  0.016  0.000  0.002  0.018
    2  0.045  0.000  0.000  0.045
    3  0.010  0.000  0.013  0.023
    4  0.011  0.000  0.007  0.019
    5  0.010  0.000  0.013  0.023
    6  0.011  0.000  0.007  0.019
    7  0.057  0.000  0.002  0.059
    8  0.000  0.000  0.014  0.014
    9  0.000  0.013  0.000  0.013
   10  0.000  0.013  0.000  0.013
   11  0.000  0.013  0.000  0.013
   12  0.000  0.013  0.000  0.013
   13  0.000  0.013  0.000  0.013
   14  0.000  0.013  0.000  0.013
   15  0.000  0.013  0.000  0.013
   16  0.000  0.013  0.000  0.013
tot    0.161  0.106  0.059  0.326
 
band    42 # energy    3.75344348 # occ.  2.00000000
 
ion      s      p      d    tot
    1  0.000  0.000  0.002  0.002
    2  0.000  0.000  0.012  0.012
    3  0.021  0.000  0.012  0.033
    4  0.026  0.000  0.010  0.036
    5  0.021  0.000  0.012  0.033
    6  0.026  0.000  0.010  0.036
    7  0.000  0.000  0.011  0.011
    8  0.000  0.000  0.012  0.012
    9  0.000  0.017  0.000  0.017
   10  0.000  0.017  0.000  0.017
   11  0.000  0.017  0.000  0.017
   12  0.000  0.017  0.000  0.017
   13  0.000  0.017  0.000  0.017
   14  0.000  0.017  0.000  0.017
   15  0.000  0.017  0.000  0.017
   16  0.000  0.017  0.000  0.017
tot    0.093  0.134  0.081  0.308
 
band    43 # energy    4.82393833 # occ.  2.00000000
 
ion      s      p      d    tot
    1  0.000  0.062  0.000  0.062
    2  0.000  0.009  0.000  0.009
    3  0.000  0.000  0.000  0.000
    4  0.000  0.001  0.000  0.001
    5  0.000  0.000  0.000  0.000
    6  0.000  0.001  0.000  0.001
    7  0.000  0.013  0.000  0.013
    8  0.000  0.018  0.000  0.018
    9  0.000  0.020  0.000  0.021
   10  0.000  0.020  0.000  0.021
   11  0.000  0.020  0.000  0.021
   12  0.000  0.020  0.000  0.021
   13  0.000  0.020  0.000  0.021
   14  0.000  0.020  0.000  0.021
   15  0.000  0.020  0.000  0.021
   16  0.000  0.020  0.000  0.021
tot    0.002  0.265  0.000  0.268
 
band    44 # energy    5.23186186 # occ.  2.00000000
 
ion      s      p      d    tot
    1  0.000  0.000  0.000  0.000
    2  0.000  0.000  0.000  0.000
    3  0.000  0.016  0.000  0.016
    4  0.000  0.017  0.000  0.017
    5  0.000  0.016  0.000  0.016
    6  0.000  0.017  0.000  0.017
    7  0.000  0.000  0.000  0.000
    8  0.000  0.000  0.000  0.000
    9  0.000  0.023  0.000  0.023
   10  0.000  0.023  0.000  0.023
   11  0.000  0.023  0.000  0.023
   12  0.000  0.023  0.000  0.023
   13  0.000  0.023  0.000  0.023
   14  0.000  0.023  0.000  0.023
   15  0.000  0.023  0.000  0.023
   16  0.000  0.023  0.000  0.023
tot    0.000  0.248  0.000  0.248
 
band    45 # energy    5.23548001 # occ.  2.00000000
 
ion      s      p      d    tot
    1  0.000  0.000  0.003  0.003
    2  0.000  0.000  0.084  0.084
    3  0.000  0.000  0.020  0.020
    4  0.000  0.000  0.086  0.086
    5  0.000  0.000  0.020  0.020
    6  0.000  0.000  0.086  0.086
    7  0.000  0.000  0.023  0.023
    8  0.000  0.000  0.083  0.083
    9  0.013  0.001  0.000  0.014
   10  0.013  0.001  0.000  0.014
   11  0.013  0.001  0.000  0.014