<?xml version="1.0" encoding="ISO-8859-1"?>
<modeling>
 <generator>
  <i name="program" type="string">vasp </i>
  <i name="version" type="string">6.5.0  </i>
  <i name="subversion" type="string">16Dec24 (build Apr 17 2025 17:55:45) complex                          parallel </i>
  <i name="platform" type="string">LinuxIFC </i>
  <i name="date" type="string">2025 06 04 </i>
  <i name="time" type="string">15:33:19 </i>
 </generator>
 <incar>
  <i type="int" name="ISTART">     1</i>
  <i type="string" name="PREC">N</i>
  <i type="string" name="ALGO">N</i>
  <i type="int" name="ICHARG">    11</i>
  <i type="int" name="NELM">   500</i>
  <i type="int" name="IBRION">    -1</i>
  <i name="EDIFF">      0.00000100</i>
  <i name="EDIFFG">     -0.01000000</i>
  <i type="int" name="NSW">     0</i>
  <i type="int" name="ISIF">     3</i>
  <i name="SYMPREC">      0.00000100</i>
  <i name="ENCUT">    520.00000000</i>
  <i type="int" name="NEDOS">  1000</i>
  <i type="logical" name="LREAL"> F  </i>
  <i type="int" name="ISMEAR">     1</i>
  <i name="SIGMA">      0.10000000</i>
  <i type="int" name="LORBIT">    10</i>
  <i type="logical" name="LAECHG"> T  </i>
 </incar>
 <primitive_cell>
  <structure name="primitive_cell" >
   <crystal>
    <varray name="basis" >
     <v>       5.60695197       0.00000000       0.00000000 </v>
     <v>       0.00000000       5.60695197       0.00000000 </v>
     <v>       0.00000000       0.00000000       8.24170653 </v>
    </varray>
    <i name="volume">    259.10203137 </i>
    <varray name="rec_basis" >
     <v>       0.17835002       0.00000000       0.00000000 </v>
     <v>       0.00000000       0.17835002       0.00000000 </v>
     <v>       0.00000000       0.00000000       0.12133409 </v>
    </varray>
   </crystal>
   <varray name="positions" >
    <v>       0.00000000       0.00000000       0.00000000 </v>
    <v>       0.00000000       0.00000000       0.50000000 </v>
    <v>       0.00000000       0.50000000       0.00000000 </v>
    <v>       0.00000000       0.50000000       0.50000000 </v>
    <v>       0.50000000       0.00000000       0.00000000 </v>
    <v>       0.50000000       0.00000000       0.50000000 </v>
    <v>       0.50000000       0.50000000       0.00000000 </v>
    <v>       0.50000000       0.50000000       0.50000000 </v>
    <v>       0.25094688       0.25094688       0.25207123 </v>
    <v>       0.25094688       0.25094688       0.74792877 </v>
    <v>       0.25094688       0.74905312       0.25207123 </v>
    <v>       0.25094688       0.74905312       0.74792877 </v>
    <v>       0.74905312       0.25094688       0.25207123 </v>
    <v>       0.74905312       0.25094688       0.74792877 </v>
    <v>       0.74905312       0.74905312       0.25207123 </v>
    <v>       0.74905312       0.74905312       0.74792877 </v>
   </varray>
  </structure>
  <varray name="primitive_index" >
   <v type="int" >        1 </v>
   <v type="int" >        2 </v>
   <v type="int" >        3 </v>
   <v type="int" >        4 </v>
   <v type="int" >        5 </v>
   <v type="int" >        6 </v>
   <v type="int" >        7 </v>
   <v type="int" >        8 </v>
   <v type="int" >        9 </v>
   <v type="int" >       10 </v>
   <v type="int" >       11 </v>
   <v type="int" >       12 </v>
   <v type="int" >       13 </v>
   <v type="int" >       14 </v>
   <v type="int" >       15 </v>
   <v type="int" >       16 </v>
  </varray>
 </primitive_cell>
 <kpoints>
  <generation param="Gamma">
   <v type="int" name="divisions">       6        6        4 </v>
   <v name="usershift">      0.00000000       0.00000000       0.00000000 </v>
   <v name="genvec1">      0.16666667       0.00000000       0.00000000 </v>
   <v name="genvec2">      0.00000000       0.16666667       0.00000000 </v>
   <v name="genvec3">      0.00000000       0.00000000       0.25000000 </v>
   <v name="shift">      0.00000000       0.00000000       0.00000000 </v>
  </generation>
  <varray name="kpointlist" >
   <v>       0.00000000       0.00000000       0.00000000 </v>
   <v>       0.16666667       0.00000000       0.00000000 </v>
   <v>       0.33333333       0.00000000       0.00000000 </v>
   <v>       0.50000000       0.00000000       0.00000000 </v>
   <v>       0.16666667       0.16666667       0.00000000 </v>
   <v>       0.33333333       0.16666667       0.00000000 </v>
   <v>       0.50000000       0.16666667       0.00000000 </v>
   <v>       0.33333333       0.33333333       0.00000000 </v>
   <v>       0.50000000       0.33333333       0.00000000 </v>
   <v>       0.50000000       0.50000000       0.00000000 </v>
   <v>       0.00000000       0.00000000       0.25000000 </v>
   <v>       0.16666667       0.00000000       0.25000000 </v>
   <v>       0.33333333       0.00000000       0.25000000 </v>
   <v>       0.50000000       0.00000000       0.25000000 </v>
   <v>       0.16666667       0.16666667       0.25000000 </v>
   <v>       0.33333333       0.16666667       0.25000000 </v>
   <v>       0.50000000       0.16666667       0.25000000 </v>
   <v>       0.33333333       0.33333333       0.25000000 </v>
   <v>       0.50000000       0.33333333       0.25000000 </v>
   <v>       0.50000000       0.50000000       0.25000000 </v>
   <v>       0.00000000       0.00000000       0.50000000 </v>
   <v>       0.16666667       0.00000000       0.50000000 </v>
   <v>       0.33333333       0.00000000       0.50000000 </v>
   <v>       0.50000000       0.00000000       0.50000000 </v>
   <v>       0.16666667       0.16666667       0.50000000 </v>
   <v>       0.33333333       0.16666667       0.50000000 </v>
   <v>       0.50000000       0.16666667       0.50000000 </v>
   <v>       0.33333333       0.33333333       0.50000000 </v>
   <v>       0.50000000       0.33333333       0.50000000 </v>
   <v>       0.50000000       0.50000000       0.50000000 </v>
  </varray>
  <varray name="weights" >
   <v>       0.00694444 </v>
   <v>       0.02777778 </v>
   <v>       0.02777778 </v>
   <v>       0.01388889 </v>
   <v>       0.02777778 </v>
   <v>       0.05555556 </v>
   <v>       0.02777778 </v>
   <v>       0.02777778 </v>
   <v>       0.02777778 </v>
   <v>       0.00694444 </v>
   <v>       0.01388889 </v>
   <v>       0.05555556 </v>
   <v>       0.05555556 </v>
   <v>       0.02777778 </v>
   <v>       0.05555556 </v>
   <v>       0.11111111 </v>
   <v>       0.05555556 </v>
   <v>       0.05555556 </v>
   <v>       0.05555556 </v>
   <v>       0.01388889 </v>
   <v>       0.00694444 </v>
   <v>       0.02777778 </v>
   <v>       0.02777778 </v>
   <v>       0.01388889 </v>
   <v>       0.02777778 </v>
   <v>       0.05555556 </v>
   <v>       0.02777778 </v>
   <v>       0.02777778 </v>
   <v>       0.02777778 </v>
   <v>       0.00694444 </v>
  </varray>
 </kpoints>
 <parameters>
  <separator name="general" >
   <i type="string" name="SYSTEM">unknown system</i>
   <i type="logical" name="LCOMPAT"> F  </i>
  </separator>
  <separator name="electronic" >
   <i type="string" name="PREC">n</i>
   <i name="ENMAX">    520.00000000</i>
   <i name="ENAUG">    490.69000000</i>
   <i name="EDIFF">      0.00000100</i>
   <i type="int" name="IALGO">    38</i>
   <i type="int" name="IWAVPR">    10</i>
   <i type="int" name="NBANDS">   128</i>
   <i type="int" name="NBANDSLOW">    -1</i>
   <i type="int" name="NBANDSHIGH">    -1</i>
   <i name="NELECT">    121.00000000</i>
   <i type="int" name="TURBO">     0</i>
   <i type="int" name="IRESTART">     0</i>
   <i type="int" name="NREBOOT">     0</i>
   <i type="int" name="NMIN">     0</i>
   <i name="EREF">      0.00000000</i>
   <separator name="electronic smearing" >
    <i type="int" name="ISMEAR">     1</i>
    <i name="SIGMA">      0.10000000</i>
    <i name="KSPACING">      0.50000000</i>
    <i type="logical" name="KGAMMA"> T  </i>
    <i type="logical" name="KBLOWUP"> T  </i>
   </separator>
   <separator name="electronic projectors" >
    <i type="logical" name="LREAL"> F  </i>
    <v name="ROPT">      0.00000000      0.00000000      0.00000000</v>
    <i type="int" name="LMAXPAW">  -100</i>
    <i type="int" name="LMAXMIX">     2</i>
    <i type="logical" name="NLSPLINE"> F  </i>
   </separator>
   <separator name="electronic startup" >
    <i type="int" name="ISTART">     0</i>
    <i type="int" name="ICHARG">    11</i>
    <i type="int" name="INIWAV">     1</i>
   </separator>
   <separator name="electronic spin" >
    <i type="int" name="ISPIN">     1</i>
    <i type="logical" name="LNONCOLLINEAR"> F  </i>
    <v name="MAGMOM">      1.00000000      1.00000000      1.00000000      1.00000000      1.00000000      1.00000000      1.00000000      1.00000000      1.00000000      1.00000000      1.00000000      1.00000000      1.00000000      1.00000000      1.00000000      1.00000000</v>
    <i name="NUPDOWN">     -1.00000000</i>
    <i type="logical" name="LSORBIT"> F  </i>
    <v name="SAXIS">      0.00000000      0.00000000      1.00000000</v>
    <i type="logical" name="LSPIRAL"> F  </i>
    <v name="QSPIRAL">      0.00000000      0.00000000      0.00000000</v>
    <i type="logical" name="LZEROZ"> F  </i>
   </separator>
   <separator name="electronic exchange-correlation" >
    <i type="logical" name="LASPH"> F  </i>
   </separator>
   <separator name="electronic convergence" >
    <i type="int" name="NELM">   500</i>
    <i type="int" name="NELMDL">     0</i>
    <i type="int" name="NELMIN">     2</i>
    <i name="ENINI">    520.00000000</i>
    <separator name="electronic convergence detail" >
     <i type="logical" name="LDIAG"> T  </i>
     <i type="logical" name="LSUBROT"> F  </i>
     <i name="WEIMIN">      0.00000000</i>
     <i name="EBREAK">      0.00000000</i>
     <i name="DEPER">      0.30000000</i>
     <i type="int" name="NRMM">     4</i>
     <i name="TIME">      0.40000000</i>
    </separator>
   </separator>
   <separator name="electronic mixer" >
    <i name="AMIX">      0.40000000</i>
    <i name="BMIX">      1.00000000</i>
    <i name="AMIN">      0.10000000</i>
    <i name="AMIX_MAG">      1.60000000</i>
    <i name="BMIX_MAG">      1.00000000</i>
    <separator name="electronic mixer details" >
     <i type="int" name="IMIX">     4</i>
     <i type="logical" name="MIXFIRST"> F  </i>
     <i type="int" name="MAXMIX">   -45</i>
     <i name="WC">    100.00000000</i>
     <i type="int" name="INIMIX">     1</i>
     <i type="int" name="MIXPRE">     1</i>
     <i type="int" name="MREMOVE">     5</i>
    </separator>
   </separator>
   <separator name="electronic dipolcorrection" >
    <i type="logical" name="LDIPOL"> F  </i>
    <i type="logical" name="LMONO"> F  </i>
    <i type="int" name="IDIPOL">     0</i>
    <i name="EPSILON">      1.00000000</i>
    <v name="DIPOL">   -100.00000000   -100.00000000   -100.00000000</v>
    <i name="EFIELD">      0.00000000</i>
    <i type="logical" name="LVACPOTAV"> F  </i>
   </separator>
  </separator>
  <separator name="grids" >
   <i type="int" name="NGX">    32</i>
   <i type="int" name="NGY">    32</i>
   <i type="int" name="NGZ">    48</i>
   <i type="int" name="NGXF">    64</i>
   <i type="int" name="NGYF">    64</i>
   <i type="int" name="NGZF">    96</i>
   <i type="logical" name="ADDGRID"> F  </i>
  </separator>
  <separator name="ionic" >
   <i type="int" name="NSW">     0</i>
   <i type="int" name="IBRION">    -1</i>
   <i type="int" name="MDALGO">     0</i>
   <i type="int" name="ISIF">     3</i>
   <i name="PSTRESS">      0.00000000</i>
   <i name="EDIFFG">     -0.01000000</i>
   <i type="int" name="NFREE">     0</i>
   <i name="POTIM">      0.50000000</i>
   <i name="SMASS">     -3.00000000</i>
   <i name="SCALEE">      1.00000000</i>
  </separator>
  <separator name="ionic md" >
   <i name="TEBEG">      0.00010000</i>
   <i name="TEEND">      0.00010000</i>
   <i type="int" name="NBLOCK">     1</i>
   <i type="int" name="KBLOCK">     1</i>
   <i type="int" name="NPACO">   256</i>
   <i name="APACO">     10.00000000</i>
  </separator>
  <separator name="symmetry" >
   <i type="int" name="ISYM">     2</i>
   <i name="SYMPREC">      0.00000100</i>
  </separator>
  <separator name="dos" >
   <i type="int" name="LORBIT">    10</i>
   <v name="RWIGS">     -1.00000000     -1.00000000     -1.00000000</v>
   <i type="int" name="NEDOS">  1000</i>
   <i name="EMIN">     10.00000000</i>
   <i name="EMAX">    -10.00000000</i>
   <i name="EFERMI">      0.00000000</i>
  </separator>
  <separator name="writing" >
   <i type="int" name="NWRITE">     2</i>
   <i type="logical" name="LWAVE"> T  </i>
   <i type="logical" name="LDOWNSAMPLE"> F  </i>
   <i type="logical" name="LCHARG"> T  </i>
   <i type="logical" name="LPARD"> F  </i>
   <i type="logical" name="LVTOT"> F  </i>
   <i type="logical" name="LVHAR"> F  </i>
   <i type="logical" name="LELF"> F  </i>
   <i type="logical" name="LOPTICS"> F  </i>
   <v name="STM">      0.00000000      0.00000000      0.00000000      0.00000000      0.00000000      0.00000000      0.00000000</v>
  </separator>
  <separator name="performance" >
   <i type="int" name="NPAR">    64</i>
   <i type="int" name="NSIM">     4</i>
   <i type="int" name="NBLK">    -1</i>
   <i type="logical" name="LPLANE"> T  </i>
   <i type="logical" name="LSCALAPACK"> T  </i>
   <i type="logical" name="LSCAAWARE"> T  </i>
   <i type="logical" name="LSCALU"> F  </i>
   <i type="logical" name="LASYNC"> F  </i>
   <i type="logical" name="LORBITALREAL"> F  </i>
  </separator>
  <separator name="miscellaneous" >
   <i type="int" name="IDIOT">     3</i>
   <i type="int" name="PHON_NSTRUCT">    -1</i>
   <i type="logical" name="LMUSIC"> F  </i>
   <v name="POMASS">     69.72300000     47.88000000     26.98100000</v>
   <v name="DARWINR">      0.00000000      0.00000000      0.00000000</v>
   <v name="DARWINV">      1.00000000      1.00000000      1.00000000</v>
   <i type="logical" name="LCORR"> T  </i>
  </separator>
  <i type="logical" name="GGA_COMPAT"> T  </i>
  <i type="logical" name="LBERRY"> F  </i>
  <i type="int" name="ICORELEVEL">     0</i>
  <i type="logical" name="LDAU"> F  </i>
  <i type="int" name="I_CONSTRAINED_M">     0</i>
  <separator name="electronic exchange-correlation" >
   <i type="string" name="GGA    ">PE</i>
   <i type="string" name="XC_C">1</i>
   <i type="int" name="VOSKOWN">     0</i>
   <i type="logical" name="LHFCALC"> F  </i>
   <i type="string" name="PRECFOCK"></i>
   <i type="logical" name="LSYMGRAD"> F  </i>
   <i type="logical" name="LHFONE"> F  </i>
   <i type="logical" name="LRHFCALC"> F  </i>
   <i type="logical" name="LTHOMAS"> F  </i>
   <i type="logical" name="LMODELHF"> F  </i>
   <i type="logical" name="LFOCKACE"> F  </i>
   <i name="ENCUT4O">     -1.00000000</i>
   <i type="int" name="EXXOEP">     0</i>
   <i type="int" name="FOURORBIT">     0</i>
   <i name="AEXX">      0.00000000</i>
   <i name="HFALPHA">      0.00000000</i>
   <i name="MCALPHA">      0.00000000</i>
   <i name="ALDAX">      1.00000000</i>
   <i name="AGGAX">      1.00000000</i>
   <i name="AMGGAX">      1.00000000</i>
   <i name="ALDAC">      1.00000000</i>
   <i name="AGGAC">      1.00000000</i>
   <i name="AMGGAC">      1.00000000</i>
   <i type="int" name="NKREDX">     1</i>
   <i type="int" name="NKREDY">     1</i>
   <i type="int" name="NKREDZ">     1</i>
   <i type="logical" name="SHIFTRED"> F  </i>
   <i type="logical" name="ODDONLY"> F  </i>
   <i type="logical" name="EVENONLY"> F  </i>
   <i type="int" name="LMAXFOCK">     0</i>
   <i type="int" name="NMAXFOCKAE">     0</i>
   <i type="logical" name="LFOCKAEDFT"> F  </i>
   <i name="HFSCREEN">      0.00000000</i>
   <i name="HFSCREENC">      0.00000000</i>
   <i type="int" name="NBANDSGWLOW">     0</i>
  </separator>
  <separator name="vdW DFT" >
   <i type="logical" name="LUSE_VDW"> F  </i>
   <i type="int" name="IVDW_NL">    -1</i>
   <i type="logical" name="LSPIN_VDW"> F  </i>
   <i name="ZAB_VDW">     -0.84910000</i>
   <i name="GAMMA_VDW">      1.39626340</i>
   <i name="ALPHA_VDW">      0.00000000</i>
   <i name="PARAM1">      0.12340000</i>
   <i name="PARAM2">      1.00000000</i>
   <i name="BPARAM">      6.30000000</i>
   <i name="CPARAM">      0.00930000</i>
  </separator>
  <separator name="model GW" >
   <i type="int" name="MODEL_GW">     0</i>
   <i name="MODEL_EPS0">      9.71632618</i>
   <i name="MODEL_ALPHA">      1.00000000</i>
  </separator>
  <separator name="linear response parameters" >
   <i type="logical" name="LEPSILON"> F  </i>
   <i type="logical" name="LRPA"> F  </i>
   <i type="logical" name="LNABLA"> F  </i>
   <i type="logical" name="LVEL"> F  </i>
   <i name="CSHIFT">      0.10000000</i>
   <i name="OMEGAMAX">     -1.00000000</i>
   <i name="DEG_THRESHOLD">      0.00200000</i>
   <i name="RTIME">     -0.10000000</i>
   <i name="WPLASMAI">      0.00000000</i>
   <v name="DFIELD">      0.00000000      0.00000000      0.00000000</v>
   <v name="WPLASMA">      0.00000000      0.00000000      0.00000000      0.00000000      0.00000000      0.00000000      0.00000000      0.00000000      0.00000000</v>
  </separator>
  <separator name="orbital magnetization" >
   <i type="logical" name="NUCIND"> F  </i>
   <v name="MAGPOS">      0.00000000      0.00000000      0.00000000</v>
   <i type="logical" name="LNICSALL"> T  </i>
   <i type="logical" name="ORBITALMAG"> F  </i>
   <i type="logical" name="LMAGBLOCH"> F  </i>
   <i type="logical" name="LCHIMAG"> F  </i>
   <i type="logical" name="LGAUGE"> T  </i>
   <i type="int" name="MAGATOM">     0</i>
   <v name="MAGDIPOL">      0.00000000      0.00000000      0.00000000</v>
   <v name="AVECCONST">      0.00000000      0.00000000      0.00000000</v>
  </separator>
  <separator name="response functions" >
   <i type="logical" name="LALL_IN_ONE"> F  </i>
   <i type="int" name="IALL_IN_ONE">    -1</i>
   <i type="int" name="NBANDS_WAVE">    -1</i>
   <i type="logical" name="LFINITE_TEMPERATURE"> F  </i>
   <i type="logical" name="LADDER"> F  </i>
   <i type="logical" name="LRPAFORCE"> F  </i>
   <i type="logical" name="LFXC"> F  </i>
   <i type="logical" name="LHARTREE"> T  </i>
   <i type="int" name="IBSE">     2</i>
   <v type="int" name="KPOINT">    -1     0     0     0</v>
   <i type="logical" name="LTCTC"> F  </i>
   <i type="logical" name="LTCTE"> F  </i>
   <i type="logical" name="LTETE"> F  </i>
   <i type="logical" name="LTRIPLET"> F  </i>
   <i type="logical" name="LFXCEPS"> F  </i>
   <i type="logical" name="LFXHEG"> F  </i>
   <i type="int" name="NATURALO">     2</i>
   <i type="logical" name="LHOLEGF"> F  </i>
   <i type="logical" name="L2ORDER"> F  </i>
   <i type="logical" name="LDMP1"> F  </i>
   <i type="logical" name="LMP2LT"> F  </i>
   <i type="logical" name="LSMP2LT"> F  </i>
   <i type="logical" name="LGWLF"> F  </i>
   <i name="ENCUTGW">     -1.60000002</i>
   <i name="ENCUTGWSOFT">     -1.60000002</i>
   <i name="ENCUTLF">     -1.00000000</i>
   <i type="logical" name="ESF_SPLINES"> F  </i>
   <i name="ESF_CONV">      0.01000000</i>
   <i type="int" name="ESF_NINTER">    15</i>
   <i type="int" name="LMAXMP2">    -1</i>
   <i name="SCISSOR">      0.00000000</i>
   <i type="int" name="NOMEGA">     0</i>
   <i type="int" name="NOMEGAR">     0</i>
   <i type="int" name="NBANDSGW">    -1</i>
   <i type="int" name="NBANDSO">    -1</i>
   <i type="int" name="NBANDSV">    -1</i>
   <i type="int" name="NELMGW">     1</i>
   <i type="int" name="NELMHF">     1</i>
   <i type="int" name="DIM">     3</i>
   <i type="int" name="IESPILON">     4</i>
   <i type="int" name="ANTIRES">     0</i>
   <i name="OMEGAMAX">    -30.00000000</i>
   <i name="OMEGAMIN">    -30.00000000</i>
   <i name="OMEGATL">   -200.00000000</i>
   <i type="int" name="OMEGAGRID">     0</i>
   <i name="CSHIFT">     -0.10000000</i>
   <i type="logical" name="LSELFENERGY"> F  </i>
   <i type="logical" name="LSPECTRAL"> F  </i>
   <i type="logical" name="LSPECTRALGW"> F  </i>
   <i type="logical" name="LSINGLES"> F  </i>
   <i type="logical" name="LFERMIGW"> F  </i>
   <i type="logical" name="ODDONLYGW"> F  </i>
   <i type="logical" name="EVENONLYGW"> F  </i>
   <i type="int" name="NKREDLFX">     1</i>
   <i type="int" name="NKREDLFY">     1</i>
   <i type="int" name="NKREDLFZ">     1</i>
   <i type="int" name="MAXMEM">  2800</i>
   <i type="int" name="TELESCOPE">     0</i>
   <i type="int" name="NTAUPAR">    -1</i>
   <i type="int" name="NOMEGAPAR">    -1</i>
   <i name="DAMP_NEWTON">      0.80000001</i>
   <i name="LAMBDA">      1.00000000</i>
  </separator>
  <separator name="External order field" >
   <i name="OFIELD_KAPPA">      0.00000000</i>
   <v name="OFIELD_K">      0.00000000      0.00000000      0.00000000</v>
   <i name="OFIELD_Q6_NEAR">      0.00000000</i>
   <i name="OFIELD_Q6_FAR">      0.00000000</i>
   <i name="OFIELD_A">      0.00000000</i>
  </separator>
  <separator name="optional k-points parameters" >
   <i type="int" name="KPOINTS_OPT_MODE">     1</i>
   <i type="logical" name="LKPOINTS_OPT"> F  </i>
  </separator>
 </parameters>
 <atominfo>
  <atoms>      16 </atoms>
  <types>       3 </types>
  <array name="atoms" >
   <dimension dim="1">ion</dimension>
   <field type="string">element</field>
   <field type="int">atomtype</field>
   <set>
    <rc><c>Ga</c><c>   1</c></rc>
    <rc><c>Ti</c><c>   2</c></rc>
    <rc><c>Ti</c><c>   2</c></rc>
    <rc><c>Ti</c><c>   2</c></rc>
    <rc><c>Ti</c><c>   2</c></rc>
    <rc><c>Ti</c><c>   2</c></rc>
    <rc><c>Ti</c><c>   2</c></rc>
    <rc><c>Ti</c><c>   2</c></rc>
    <rc><c>Al</c><c>   3</c></rc>
    <rc><c>Al</c><c>   3</c></rc>
    <rc><c>Al</c><c>   3</c></rc>
    <rc><c>Al</c><c>   3</c></rc>
    <rc><c>Al</c><c>   3</c></rc>
    <rc><c>Al</c><c>   3</c></rc>
    <rc><c>Al</c><c>   3</c></rc>
    <rc><c>Al</c><c>   3</c></rc>
   </set>
  </array>
  <array name="atomtypes" >
   <dimension dim="1">type</dimension>
   <field type="int">atomspertype</field>
   <field type="string">element</field>
   <field>mass</field>
   <field>valence</field>
   <field type="string">pseudopotential</field>
   <set>
    <rc><c>   1</c><c>Ga</c><c>     69.72300000</c><c>     13.00000000</c><c>  PAW_PBE Ga_d 06Jul2010                </c></rc>
    <rc><c>   7</c><c>Ti</c><c>     47.88000000</c><c>     12.00000000</c><c>  PAW_PBE Ti_sv 26Sep2005               </c></rc>
    <rc><c>   8</c><c>Al</c><c>     26.98100000</c><c>      3.00000000</c><c>  PAW_PBE Al 04Jan2001                  </c></rc>
   </set>
  </array>
 </atominfo>
 <structure name="initialpos" >
  <crystal>
   <varray name="basis" >
    <v>       5.60695197       0.00000000       0.00000000 </v>
    <v>       0.00000000       5.60695197       0.00000000 </v>
    <v>       0.00000000       0.00000000       8.24170653 </v>
   </varray>
   <i name="volume">    259.10203137 </i>
   <varray name="rec_basis" >
    <v>       0.17835002       0.00000000       0.00000000 </v>
    <v>       0.00000000       0.17835002       0.00000000 </v>
    <v>       0.00000000       0.00000000       0.12133409 </v>
   </varray>
  </crystal>
  <varray name="positions" >
   <v>       0.00000000       0.00000000       0.00000000 </v>
   <v>       0.00000000       0.00000000       0.50000000 </v>
   <v>       0.00000000       0.50000000       0.00000000 </v>
   <v>       0.00000000       0.50000000       0.50000000 </v>
   <v>       0.50000000       0.00000000       0.00000000 </v>
   <v>       0.50000000       0.00000000       0.50000000 </v>
   <v>       0.50000000       0.50000000       0.00000000 </v>
   <v>       0.50000000       0.50000000       0.50000000 </v>
   <v>       0.25094688       0.25094688       0.25207123 </v>
   <v>       0.25094688       0.25094688       0.74792877 </v>
   <v>       0.25094688       0.74905312       0.25207123 </v>
   <v>       0.25094688       0.74905312       0.74792877 </v>
   <v>       0.74905312       0.25094688       0.25207123 </v>
   <v>       0.74905312       0.25094688       0.74792877 </v>
   <v>       0.74905312       0.74905312       0.25207123 </v>
   <v>       0.74905312       0.74905312       0.74792877 </v>
  </varray>
 </structure>
 <calculation>
  <scstep>
   <time name="dav">    3.67    3.67</time>
   <time name="total">    3.68    3.68</time>
   <energy>
    <i name="alphaZ">    315.16450473 </i>
    <i name="ewald">  -8824.03663466 </i>
    <i name="hartreedc">  -4134.54971163 </i>
    <i name="XCdc">    262.32976770 </i>
    <i name="pawpsdc">  13513.29586508 </i>
    <i name="pawaedc"> -13432.48856087 </i>
    <i name="eentropy">     -0.00137547 </i>
    <i name="bandstr">   -515.19240533 </i>
    <i name="atom">  13693.72977468 </i>
    <i name="e_fr_energy">    878.25122423 </i>
    <i name="e_wo_entrp">    878.25259970 </i>
    <i name="e_0_energy">    878.25168272 </i>
   </energy>
  </scstep>
  <scstep>
   <time name="dav">    3.98    3.98</time>
   <time name="total">    3.98    3.98</time>
   <energy>
    <i name="e_fr_energy">    -18.48033036 </i>
    <i name="e_wo_entrp">    -18.47410697 </i>
    <i name="e_0_energy">    -18.47825590 </i>
   </energy>
  </scstep>
  <scstep>
   <time name="dav">   10.54   10.54</time>
   <time name="total">   10.54   10.54</time>
   <energy>
    <i name="e_fr_energy">    -91.20441992 </i>
    <i name="e_wo_entrp">    -91.20099309 </i>
    <i name="e_0_energy">    -91.20327765 </i>
   </energy>
  </scstep>
  <scstep>
   <time name="dav">    3.96    3.96</time>
   <time name="total">    3.96    3.96</time>
   <energy>
    <i name="e_fr_energy">    -93.77969057 </i>
    <i name="e_wo_entrp">    -93.77664321 </i>
    <i name="e_0_energy">    -93.77867479 </i>
   </energy>
  </scstep>
  <scstep>
   <time name="dav">    7.26    7.26</time>
   <time name="total">    7.26    7.26</time>
   <energy>
    <i name="e_fr_energy">    -93.84517452 </i>
    <i name="e_wo_entrp">    -93.84215265 </i>
    <i name="e_0_energy">    -93.84416723 </i>
   </energy>
  </scstep>
  <scstep>
   <time name="dav">    5.52    5.52</time>
   <time name="total">    5.52    5.52</time>
   <energy>
    <i name="e_fr_energy">    -93.84673285 </i>
    <i name="e_wo_entrp">    -93.84371127 </i>
    <i name="e_0_energy">    -93.84572566 </i>
   </energy>
  </scstep>
  <scstep>
   <time name="dav">    8.25    8.25</time>
   <time name="total">    8.25    8.25</time>
   <energy>
    <i name="e_fr_energy">    -93.84679859 </i>
    <i name="e_wo_entrp">    -93.84377703 </i>
    <i name="e_0_energy">    -93.84579141 </i>
   </energy>
  </scstep>
  <scstep>
   <time name="dav">    5.00    5.00</time>
   <time name="total">    5.00    5.00</time>
   <energy>
    <i name="e_fr_energy">    -93.84680054 </i>
    <i name="e_wo_entrp">    -93.84377898 </i>
    <i name="e_0_energy">    -93.84579335 </i>
   </energy>
  </scstep>
  <scstep>
   <time name="dav">    6.98    6.98</time>
   <time name="total">    6.98    6.98</time>
   <energy>
    <i name="alphaZ">    315.16450473 </i>
    <i name="ewald">  -8824.03663466 </i>
    <i name="hartreedc">  -4134.54971163 </i>
    <i name="XCdc">    262.32976770 </i>
    <i name="pawpsdc">  13513.29586508 </i>
    <i name="pawaedc"> -13432.48856087 </i>
    <i name="eentropy">     -0.00302156 </i>
    <i name="bandstr">  -1487.28878413 </i>
    <i name="atom">  13693.72977468 </i>
    <i name="e_fr_energy">    -93.84680066 </i>
    <i name="e_wo_entrp">    -93.84377910 </i>
    <i name="e_0_energy">    -93.84579347 </i>
   </energy>
  </scstep>
  <structure>
   <crystal>
    <varray name="basis" >
     <v>       5.60695197       0.00000000       0.00000000 </v>
     <v>       0.00000000       5.60695197       0.00000000 </v>
     <v>       0.00000000       0.00000000       8.24170653 </v>
    </varray>
    <i name="volume">    259.10203137 </i>
    <varray name="rec_basis" >
     <v>       0.17835002       0.00000000       0.00000000 </v>
     <v>       0.00000000       0.17835002       0.00000000 </v>
     <v>       0.00000000       0.00000000       0.12133409 </v>
    </varray>
   </crystal>
   <varray name="positions" >
    <v>       0.00000000       0.00000000       0.00000000 </v>
    <v>       0.00000000       0.00000000       0.50000000 </v>
    <v>       0.00000000       0.50000000       0.00000000 </v>
    <v>       0.00000000       0.50000000       0.50000000 </v>
    <v>       0.50000000       0.00000000       0.00000000 </v>
    <v>       0.50000000       0.00000000       0.50000000 </v>
    <v>       0.50000000       0.50000000       0.00000000 </v>
    <v>       0.50000000       0.50000000       0.50000000 </v>
    <v>       0.25094688       0.25094688       0.25207123 </v>
    <v>       0.25094688       0.25094688       0.74792877 </v>
    <v>       0.25094688       0.74905312       0.25207123 </v>
    <v>       0.25094688       0.74905312       0.74792877 </v>
    <v>       0.74905312       0.25094688       0.25207123 </v>
    <v>       0.74905312       0.25094688       0.74792877 </v>
    <v>       0.74905312       0.74905312       0.25207123 </v>
    <v>       0.74905312       0.74905312       0.74792877 </v>
   </varray>
  </structure>
  <varray name="forces" >
   <v>       0.00000000       0.00000000       0.00000000 </v>
   <v>       0.00000000       0.00000000       0.00000000 </v>
   <v>       0.00000000       0.00000000       0.00000000 </v>
   <v>       0.00000000       0.00000000       0.00000000 </v>
   <v>       0.00000000       0.00000000       0.00000000 </v>
   <v>       0.00000000       0.00000000       0.00000000 </v>
   <v>       0.00000000       0.00000000       0.00000000 </v>
   <v>       0.00000000       0.00000000       0.00000000 </v>
   <v>      -0.00094049      -0.00094049       0.00822851 </v>
   <v>      -0.00094049      -0.00094049      -0.00822851 </v>
   <v>      -0.00094049       0.00094049       0.00822851 </v>
   <v>      -0.00094049       0.00094049      -0.00822851 </v>
   <v>       0.00094049      -0.00094049       0.00822851 </v>
   <v>       0.00094049      -0.00094049      -0.00822851 </v>
   <v>       0.00094049       0.00094049       0.00822851 </v>
   <v>       0.00094049       0.00094049      -0.00822851 </v>
  </varray>
  <varray name="stress" >
   <v>       1.79723295       0.00000000       0.00000000 </v>
   <v>       0.00000000       1.79723295       0.00000000 </v>
   <v>      -0.00000000       0.00000000       3.05497603 </v>
  </varray>
  <energy>
   <i name="e_fr_energy">    -93.84680066 </i>
   <i name="e_wo_entrp">    -93.84377910 </i>
   <i name="e_0_energy">    -93.84579347 </i>
  </energy>
  <time name="totalsc">   59.58   59.58</time>
  <eigenvalues>
   <array>
    <dimension dim="1">band</dimension>
    <dimension dim="2">kpoint</dimension>
    <dimension dim="3">spin</dimension>
    <field>eigene</field>
    <field>occ</field>
    <set>
     <set comment="spin 1">
      <set comment="kpoint 1">
       <r>  -48.4741    1.0000 </r>
       <r>  -48.4495    1.0000 </r>
       <r>  -48.3858    1.0000 </r>
       <r>  -48.3702    1.0000 </r>
       <r>  -48.3624    1.0000 </r>
       <r>  -48.2265    1.0000 </r>
       <r>  -48.1699    1.0000 </r>
       <r>  -24.8751    1.0000 </r>
       <r>  -24.8751    1.0000 </r>
       <r>  -24.8244    1.0000 </r>
       <r>  -24.8081    1.0000 </r>
       <r>  -24.8081    1.0000 </r>
       <r>  -24.7985    1.0000 </r>
       <r>  -24.7873    1.0000 </r>
       <r>  -24.7810    1.0000 </r>
       <r>  -24.7810    1.0000 </r>
       <r>  -24.7659    1.0000 </r>
       <r>  -24.7330    1.0000 </r>
       <r>  -24.7330    1.0000 </r>
       <r>  -24.7189    1.0000 </r>
       <r>  -24.5886    1.0000 </r>
       <r>  -24.5619    1.0000 </r>
       <r>  -24.3793    1.0000 </r>
       <r>  -24.3793    1.0000 </r>
       <r>  -24.2918    1.0000 </r>
       <r>  -24.2918    1.0000 </r>
       <r>  -24.2303    1.0000 </r>
       <r>  -24.2303    1.0000 </r>
       <r>   -6.5549    1.0000 </r>
       <r>   -6.5544    1.0000 </r>
       <r>   -6.5544    1.0000 </r>
       <r>   -6.5457    1.0000 </r>
       <r>   -6.5104    1.0000 </r>
       <r>   -1.3674    1.0000 </r>
       <r>    0.4073    1.0000 </r>
       <r>    1.4236    1.0000 </r>
       <r>    3.4213    1.0000 </r>
       <r>    3.4213    1.0000 </r>
       <r>    3.4479    1.0000 </r>
       <r>    3.4479    1.0000 </r>
       <r>    3.4601    1.0000 </r>
       <r>    3.7534    1.0000 </r>
       <r>    4.8239    1.0000 </r>
       <r>    5.2319    1.0000 </r>
       <r>    5.2355    1.0000 </r>
       <r>    5.6830    1.0000 </r>
       <r>    6.0750    1.0000 </r>
       <r>    6.1340    1.0000 </r>
       <r>    6.1340    1.0000 </r>
       <r>    6.4232    1.0000 </r>
       <r>    6.4232    1.0000 </r>
       <r>    6.5765    1.0000 </r>
       <r>    6.7524    1.0000 </r>
       <r>    6.7524    1.0000 </r>
       <r>    7.1272    1.0000 </r>
       <r>    7.2815    1.0000 </r>
       <r>    7.4643    1.0000 </r>
       <r>    7.6915    1.0000 </r>
       <r>    7.6915    1.0000 </r>
       <r>    7.7653    1.0000 </r>
       <r>    7.7825    1.0000 </r>
       <r>    8.2471    0.6642 </r>
       <r>    8.3247    0.0902 </r>
       <r>    8.3247    0.0902 </r>
       <r>    8.9499   -0.0000 </r>
       <r>    9.3545   -0.0000 </r>
       <r>    9.6309   -0.0000 </r>
       <r>    9.9157   -0.0000 </r>
       <r>   10.0231   -0.0000 </r>
       <r>   10.0539   -0.0000 </r>
       <r>   10.0550   -0.0000 </r>
       <r>   10.1182   -0.0000 </r>
       <r>   10.2266   -0.0000 </r>
       <r>   10.2266   -0.0000 </r>
       <r>   10.5019    0.0000 </r>
       <r>   10.5019    0.0000 </r>
       <r>   10.5246    0.0000 </r>
       <r>   10.7366    0.0000 </r>
       <r>   10.7366    0.0000 </r>
       <r>   10.9155    0.0000 </r>
       <r>   11.2443    0.0000 </r>
       <r>   11.4184    0.0000 </r>
       <r>   11.4184    0.0000 </r>
       <r>   11.6048    0.0000 </r>
       <r>   11.6048    0.0000 </r>
       <r>   11.6417    0.0000 </r>
       <r>   12.2222    0.0000 </r>
       <r>   12.4800    0.0000 </r>
       <r>   12.5111    0.0000 </r>
       <r>   12.5330    0.0000 </r>
       <r>   12.8521    0.0000 </r>
       <r>   12.8521    0.0000 </r>
       <r>   12.9392    0.0000 </r>
       <r>   13.1530    0.0000 </r>
       <r>   13.2000    0.0000 </r>
       <r>   13.2000    0.0000 </r>
       <r>   13.5689    0.0000 </r>
       <r>   13.5909    0.0000 </r>
       <r>   14.1589    0.0000 </r>
       <r>   14.3488    0.0000 </r>
       <r>   15.6224    0.0000 </r>
       <r>   15.6224    0.0000 </r>
       <r>   16.0089    0.0000 </r>
       <r>   16.2538    0.0000 </r>
       <r>   16.3409    0.0000 </r>
       <r>   16.4163    0.0000 </r>
       <r>   16.4163    0.0000 </r>
       <r>   17.2200    0.0000 </r>
       <r>   17.2266    0.0000 </r>
       <r>   17.5277    0.0000 </r>
       <r>   17.5277    0.0000 </r>
       <r>   18.7026    0.0000 </r>
       <r>   18.7378    0.0000 </r>
       <r>   18.7378    0.0000 </r>
       <r>   19.1509    0.0000 </r>
       <r>   19.2118    0.0000 </r>
       <r>   19.8390    0.0000 </r>
       <r>   19.8390    0.0000 </r>
       <r>   20.3843    0.0000 </r>
       <r>   20.3843    0.0000 </r>
       <r>   20.7336    0.0000 </r>
       <r>   20.7884    0.0000 </r>
       <r>   20.8336    0.0000 </r>
       <r>   20.8336    0.0000 </r>
       <r>   20.8528    0.0000 </r>
       <r>   21.3683    0.0000 </r>
       <r>   21.4129    0.0000 </r>
       <r>   21.4129    0.0000 </r>
      </set>
      <set comment="kpoint 2">
       <r>  -48.4717    1.0000 </r>
       <r>  -48.4496    1.0000 </r>
       <r>  -48.3832    1.0000 </r>
       <r>  -48.3725    1.0000 </r>
       <r>  -48.3626    1.0000 </r>
       <r>  -48.2275    1.0000 </r>
       <r>  -48.1714    1.0000 </r>
       <r>  -24.8733    1.0000 </r>
       <r>  -24.8466    1.0000 </r>
       <r>  -24.8219    1.0000 </r>
       <r>  -24.8038    1.0000 </r>
       <r>  -24.7988    1.0000 </r>
       <r>  -24.7849    1.0000 </r>
       <r>  -24.7826    1.0000 </r>
       <r>  -24.7781    1.0000 </r>
       <r>  -24.7761    1.0000 </r>
       <r>  -24.7662    1.0000 </r>
       <r>  -24.7374    1.0000 </r>
       <r>  -24.7211    1.0000 </r>
       <r>  -24.7037    1.0000 </r>
       <r>  -24.5892    1.0000 </r>
       <r>  -24.5635    1.0000 </r>
       <r>  -24.4127    1.0000 </r>
       <r>  -24.3794    1.0000 </r>
       <r>  -24.3251    1.0000 </r>
       <r>  -24.2900    1.0000 </r>
       <r>  -24.2619    1.0000 </r>
       <r>  -24.2322    1.0000 </r>
       <r>   -6.5543    1.0000 </r>
       <r>   -6.5543    1.0000 </r>
       <r>   -6.5541    1.0000 </r>
       <r>   -6.5434    1.0000 </r>
       <r>   -6.5100    1.0000 </r>
       <r>   -1.2396    1.0000 </r>
       <r>    0.5135    1.0000 </r>
       <r>    1.3625    1.0000 </r>
       <r>    2.4785    1.0000 </r>
       <r>    2.9017    1.0000 </r>
       <r>    3.4986    1.0000 </r>
       <r>    3.5601    1.0000 </r>
       <r>    3.7101    1.0000 </r>
       <r>    4.8470    1.0000 </r>
       <r>    5.0472    1.0000 </r>
       <r>    5.0820    1.0000 </r>
       <r>    5.2379    1.0000 </r>
       <r>    5.6905    1.0000 </r>
       <r>    5.8211    1.0000 </r>
       <r>    5.9605    1.0000 </r>
       <r>    6.1062    1.0000 </r>
       <r>    6.2964    1.0000 </r>
       <r>    6.5954    1.0000 </r>
       <r>    6.7509    1.0000 </r>
       <r>    6.7635    1.0000 </r>
       <r>    6.7880    1.0000 </r>
       <r>    6.8786    1.0000 </r>
       <r>    7.2793    1.0000 </r>
       <r>    7.4132    1.0000 </r>
       <r>    7.5561    1.0000 </r>
       <r>    7.7786    1.0000 </r>
       <r>    7.8168    1.0000 </r>
       <r>    8.0715    1.0093 </r>
       <r>    8.1884    0.9862 </r>
       <r>    8.4271   -0.0230 </r>
       <r>    8.7667   -0.0000 </r>
       <r>    9.0391   -0.0000 </r>
       <r>    9.4381   -0.0000 </r>
       <r>    9.5521   -0.0000 </r>
       <r>    9.7698   -0.0000 </r>
       <r>    9.9540   -0.0000 </r>
       <r>   10.0363   -0.0000 </r>
       <r>   10.0534   -0.0000 </r>
       <r>   10.1657   -0.0000 </r>
       <r>   10.2422   -0.0000 </r>
       <r>   10.2428   -0.0000 </r>
       <r>   10.4993    0.0000 </r>
       <r>   10.5059    0.0000 </r>
       <r>   10.5183    0.0000 </r>
       <r>   10.5534    0.0000 </r>
       <r>   10.7128    0.0000 </r>
       <r>   10.7562    0.0000 </r>
       <r>   10.7796    0.0000 </r>
       <r>   11.3729    0.0000 </r>
       <r>   11.4658    0.0000 </r>
       <r>   11.5114    0.0000 </r>
       <r>   11.6209    0.0000 </r>
       <r>   11.7053    0.0000 </r>
       <r>   12.1561    0.0000 </r>
       <r>   12.2697    0.0000 </r>
       <r>   12.3778    0.0000 </r>
       <r>   12.6541    0.0000 </r>
       <r>   12.9375    0.0000 </r>
       <r>   13.1162    0.0000 </r>
       <r>   13.1368    0.0000 </r>
       <r>   13.2377    0.0000 </r>
       <r>   13.5269    0.0000 </r>
       <r>   13.5968    0.0000 </r>
       <r>   13.6912    0.0000 </r>
       <r>   13.8100    0.0000 </r>
       <r>   14.3291    0.0000 </r>
       <r>   14.4529    0.0000 </r>
       <r>   14.9349    0.0000 </r>
       <r>   15.4993    0.0000 </r>
       <r>   15.5921    0.0000 </r>
       <r>   16.2542    0.0000 </r>
       <r>   16.2804    0.0000 </r>
       <r>   16.5178    0.0000 </r>
       <r>   16.5905    0.0000 </r>
       <r>   17.2560    0.0000 </r>
       <r>   17.3140    0.0000 </r>
       <r>   17.3216    0.0000 </r>
       <r>   17.8129    0.0000 </r>
       <r>   18.5624    0.0000 </r>
       <r>   18.6219    0.0000 </r>
       <r>   18.7884    0.0000 </r>
       <r>   18.8248    0.0000 </r>
       <r>   19.3793    0.0000 </r>
       <r>   19.4925    0.0000 </r>
       <r>   19.5571    0.0000 </r>
       <r>   19.6709    0.0000 </r>
       <r>   19.9753    0.0000 </r>
       <r>   20.0556    0.0000 </r>
       <r>   20.1551    0.0000 </r>
       <r>   20.2349    0.0000 </r>
       <r>   20.4951    0.0000 </r>
       <r>   20.6613    0.0000 </r>
       <r>   20.9129    0.0000 </r>
       <r>   20.9923    0.0000 </r>
       <r>   21.5569    0.0000 </r>
      </set>
      <set comment="kpoint 3">
       <r>  -48.4665    1.0000 </r>
       <r>  -48.4500    1.0000 </r>
       <r>  -48.3775    1.0000 </r>
       <r>  -48.3766    1.0000 </r>
       <r>  -48.3643    1.0000 </r>
       <r>  -48.2294    1.0000 </r>
       <r>  -48.1745    1.0000 </r>
       <r>  -24.8695    1.0000 </r>
       <r>  -24.8164    1.0000 </r>
       <r>  -24.8004    1.0000 </r>
       <r>  -24.7997    1.0000 </r>
       <r>  -24.7928    1.0000 </r>
       <r>  -24.7862    1.0000 </r>
       <r>  -24.7790    1.0000 </r>
       <r>  -24.7679    1.0000 </r>
       <r>  -24.7483    1.0000 </r>
       <r>  -24.7377    1.0000 </r>
       <r>  -24.7258    1.0000 </r>
       <r>  -24.6900    1.0000 </r>
       <r>  -24.6281    1.0000 </r>
       <r>  -24.5903    1.0000 </r>
       <r>  -24.5668    1.0000 </r>
       <r>  -24.5032    1.0000 </r>
       <r>  -24.4116    1.0000 </r>
       <r>  -24.3797    1.0000 </r>
       <r>  -24.3440    1.0000 </r>
       <r>  -24.2858    1.0000 </r>
       <r>  -24.2366    1.0000 </r>
       <r>   -6.5543    1.0000 </r>
       <r>   -6.5537    1.0000 </r>
       <r>   -6.5534    1.0000 </r>
       <r>   -6.5384    1.0000 </r>
       <r>   -6.5093    1.0000 </r>
       <r>   -0.8809    1.0000 </r>
       <r>    0.7939    1.0000 </r>
       <r>    0.8262    1.0000 </r>
       <r>    2.0897    1.0000 </r>
       <r>    2.3185    1.0000 </r>
       <r>    3.7097    1.0000 </r>
       <r>    3.8878    1.0000 </r>
       <r>    4.0552    1.0000 </r>
       <r>    4.4710    1.0000 </r>
       <r>    4.7061    1.0000 </r>
       <r>    5.1471    1.0000 </r>
       <r>    5.2294    1.0000 </r>
       <r>    5.6444    1.0000 </r>
       <r>    5.8862    1.0000 </r>
       <r>    5.9513    1.0000 </r>
       <r>    6.0254    1.0000 </r>
       <r>    6.6071    1.0000 </r>
       <r>    6.6788    1.0000 </r>
       <r>    6.8139    1.0000 </r>
       <r>    6.9524    1.0000 </r>
       <r>    7.0198    1.0000 </r>
       <r>    7.2902    1.0000 </r>
       <r>    7.2914    1.0000 </r>
       <r>    7.5468    1.0000 </r>
       <r>    7.6972    1.0000 </r>
       <r>    7.7655    1.0000 </r>
       <r>    7.8831    1.0000 </r>
       <r>    8.1121    1.0255 </r>
       <r>    8.4786   -0.0054 </r>
       <r>    8.6452   -0.0000 </r>
       <r>    8.8539   -0.0000 </r>
       <r>    9.0906   -0.0000 </r>
       <r>    9.2165   -0.0000 </r>
       <r>    9.3013   -0.0000 </r>
       <r>    9.4483   -0.0000 </r>
       <r>    9.6137   -0.0000 </r>
       <r>    9.9092   -0.0000 </r>
       <r>   10.0239   -0.0000 </r>
       <r>   10.1561   -0.0000 </r>
       <r>   10.1648   -0.0000 </r>
       <r>   10.2347   -0.0000 </r>
       <r>   10.3049    0.0000 </r>
       <r>   10.4066    0.0000 </r>
       <r>   10.5010    0.0000 </r>
       <r>   10.5796    0.0000 </r>
       <r>   10.6372    0.0000 </r>
       <r>   10.6496    0.0000 </r>
       <r>   11.1498    0.0000 </r>
       <r>   11.1608    0.0000 </r>
       <r>   11.1826    0.0000 </r>
       <r>   11.2104    0.0000 </r>
       <r>   11.5617    0.0000 </r>
       <r>   11.7108    0.0000 </r>
       <r>   12.1251    0.0000 </r>
       <r>   12.2068    0.0000 </r>
       <r>   12.2503    0.0000 </r>
       <r>   12.9564    0.0000 </r>
       <r>   13.1856    0.0000 </r>
       <r>   13.3453    0.0000 </r>
       <r>   13.4154    0.0000 </r>
       <r>   13.7496    0.0000 </r>
       <r>   13.8916    0.0000 </r>
       <r>   13.9833    0.0000 </r>
       <r>   14.1338    0.0000 </r>
       <r>   14.2709    0.0000 </r>
       <r>   14.3840    0.0000 </r>
       <r>   14.6921    0.0000 </r>
       <r>   14.9353    0.0000 </r>
       <r>   14.9842    0.0000 </r>
       <r>   15.5001    0.0000 </r>
       <r>   15.9136    0.0000 </r>
       <r>   16.4628    0.0000 </r>
       <r>   16.5130    0.0000 </r>
       <r>   16.5569    0.0000 </r>
       <r>   17.1909    0.0000 </r>
       <r>   17.4002    0.0000 </r>
       <r>   17.4248    0.0000 </r>
       <r>   17.5258    0.0000 </r>
       <r>   17.7194    0.0000 </r>
       <r>   17.8482    0.0000 </r>
       <r>   18.0776    0.0000 </r>
       <r>   18.1608    0.0000 </r>
       <r>   18.6033    0.0000 </r>
       <r>   18.9263    0.0000 </r>
       <r>   19.0028    0.0000 </r>
       <r>   19.2140    0.0000 </r>
       <r>   19.2808    0.0000 </r>
       <r>   19.3783    0.0000 </r>
       <r>   19.8785    0.0000 </r>
       <r>   20.3587    0.0000 </r>
       <r>   20.5950    0.0000 </r>
       <r>   20.6024    0.0000 </r>
       <r>   20.6513    0.0000 </r>
       <r>   21.1913    0.0000 </r>
       <r>   21.3061    0.0000 </r>
      </set>
      <set comment="kpoint 4">
       <r>  -48.4636    1.0000 </r>
       <r>  -48.4503    1.0000 </r>
       <r>  -48.3802    1.0000 </r>
       <r>  -48.3703    1.0000 </r>
       <r>  -48.3682    1.0000 </r>
       <r>  -48.2304    1.0000 </r>
       <r>  -48.1762    1.0000 </r>
       <r>  -24.8675    1.0000 </r>
       <r>  -24.8130    1.0000 </r>
       <r>  -24.8006    1.0000 </r>
       <r>  -24.7942    1.0000 </r>
       <r>  -24.7882    1.0000 </r>
       <r>  -24.7842    1.0000 </r>
       <r>  -24.7725    1.0000 </r>
       <r>  -24.7723    1.0000 </r>
       <r>  -24.7568    1.0000 </r>
       <r>  -24.7284    1.0000 </r>
       <r>  -24.6285    1.0000 </r>
       <r>  -24.6204    1.0000 </r>
       <r>  -24.5924    1.0000 </r>
       <r>  -24.5910    1.0000 </r>
       <r>  -24.5908    1.0000 </r>
       <r>  -24.5686    1.0000 </r>
       <r>  -24.4788    1.0000 </r>
       <r>  -24.4150    1.0000 </r>
       <r>  -24.3798    1.0000 </r>
       <r>  -24.2834    1.0000 </r>
       <r>  -24.2391    1.0000 </r>
       <r>   -6.5542    1.0000 </r>
       <r>   -6.5535    1.0000 </r>
       <r>   -6.5531    1.0000 </r>
       <r>   -6.5357    1.0000 </r>
       <r>   -6.5089    1.0000 </r>
       <r>   -0.5375    1.0000 </r>
       <r>    0.2808    1.0000 </r>
       <r>    1.2206    1.0000 </r>
       <r>    1.5142    1.0000 </r>
       <r>    2.4938    1.0000 </r>
       <r>    3.8958    1.0000 </r>
       <r>    3.9057    1.0000 </r>
       <r>    4.2916    1.0000 </r>
       <r>    4.4428    1.0000 </r>
       <r>    4.5957    1.0000 </r>
       <r>    4.7922    1.0000 </r>
       <r>    4.8453    1.0000 </r>
       <r>    5.3539    1.0000 </r>
       <r>    5.7592    1.0000 </r>
       <r>    5.9808    1.0000 </r>
       <r>    6.6459    1.0000 </r>
       <r>    6.6675    1.0000 </r>
       <r>    6.7359    1.0000 </r>
       <r>    7.0833    1.0000 </r>
       <r>    7.0990    1.0000 </r>
       <r>    7.2303    1.0000 </r>
       <r>    7.3127    1.0000 </r>
       <r>    7.4776    1.0000 </r>
       <r>    7.6765    1.0000 </r>
       <r>    7.8246    1.0000 </r>
       <r>    7.9453    1.0000 </r>
       <r>    7.9700    1.0001 </r>
       <r>    8.2968    0.2588 </r>
       <r>    8.4796   -0.0052 </r>
       <r>    8.4869   -0.0040 </r>
       <r>    8.8945   -0.0000 </r>
       <r>    8.9000   -0.0000 </r>
       <r>    9.0473   -0.0000 </r>
       <r>    9.0964   -0.0000 </r>
       <r>    9.1935   -0.0000 </r>
       <r>    9.5445   -0.0000 </r>
       <r>    9.6248   -0.0000 </r>
       <r>    9.9309   -0.0000 </r>
       <r>   10.0943   -0.0000 </r>
       <r>   10.1436   -0.0000 </r>
       <r>   10.1712   -0.0000 </r>
       <r>   10.3479    0.0000 </r>
       <r>   10.4930    0.0000 </r>
       <r>   10.6147    0.0000 </r>
       <r>   10.6572    0.0000 </r>
       <r>   10.7560    0.0000 </r>
       <r>   10.7890    0.0000 </r>
       <r>   10.9435    0.0000 </r>
       <r>   10.9515    0.0000 </r>
       <r>   11.0042    0.0000 </r>
       <r>   11.1184    0.0000 </r>
       <r>   11.3991    0.0000 </r>
       <r>   11.8280    0.0000 </r>
       <r>   11.8459    0.0000 </r>
       <r>   12.2769    0.0000 </r>
       <r>   12.3198    0.0000 </r>
       <r>   12.7769    0.0000 </r>
       <r>   13.3076    0.0000 </r>
       <r>   13.3679    0.0000 </r>
       <r>   13.4945    0.0000 </r>
       <r>   14.0671    0.0000 </r>
       <r>   14.4698    0.0000 </r>
       <r>   14.5784    0.0000 </r>
       <r>   14.6144    0.0000 </r>
       <r>   14.7520    0.0000 </r>
       <r>   14.8098    0.0000 </r>
       <r>   14.8249    0.0000 </r>
       <r>   14.9946    0.0000 </r>
       <r>   15.4158    0.0000 </r>
       <r>   15.4227    0.0000 </r>
       <r>   15.7110    0.0000 </r>
       <r>   15.7385    0.0000 </r>
       <r>   16.0981    0.0000 </r>
       <r>   16.2318    0.0000 </r>
       <r>   16.2981    0.0000 </r>
       <r>   16.5505    0.0000 </r>
       <r>   16.6878    0.0000 </r>
       <r>   17.3659    0.0000 </r>
       <r>   17.9501    0.0000 </r>
       <r>   17.9975    0.0000 </r>
       <r>   18.2267    0.0000 </r>
       <r>   18.3122    0.0000 </r>
       <r>   18.4405    0.0000 </r>
       <r>   18.8999    0.0000 </r>
       <r>   19.1271    0.0000 </r>
       <r>   19.1928    0.0000 </r>
       <r>   19.1929    0.0000 </r>
       <r>   19.2100    0.0000 </r>
       <r>   19.3168    0.0000 </r>
       <r>   19.5934    0.0000 </r>
       <r>   19.7116    0.0000 </r>
       <r>   21.2479    0.0000 </r>
       <r>   21.2767    0.0000 </r>
       <r>   21.3716    0.0000 </r>
       <r>   21.4129    0.0000 </r>
      </set>
      <set comment="kpoint 5">
       <r>  -48.4692    1.0000 </r>
       <r>  -48.4497    1.0000 </r>
       <r>  -48.3807    1.0000 </r>
       <r>  -48.3750    1.0000 </r>
       <r>  -48.3626    1.0000 </r>
       <r>  -48.2286    1.0000 </r>
       <r>  -48.1729    1.0000 </r>
       <r>  -24.8453    1.0000 </r>
       <r>  -24.8431    1.0000 </r>
       <r>  -24.8194    1.0000 </r>
       <r>  -24.7990    1.0000 </r>
       <r>  -24.7827    1.0000 </r>
       <r>  -24.7825    1.0000 </r>
       <r>  -24.7781    1.0000 </r>
       <r>  -24.7725    1.0000 </r>
       <r>  -24.7714    1.0000 </r>
       <r>  -24.7663    1.0000 </r>
       <r>  -24.7234    1.0000 </r>
       <r>  -24.7096    1.0000 </r>
       <r>  -24.7060    1.0000 </r>
       <r>  -24.5899    1.0000 </r>
       <r>  -24.5650    1.0000 </r>
       <r>  -24.4139    1.0000 </r>
       <r>  -24.4118    1.0000 </r>
       <r>  -24.3248    1.0000 </r>
       <r>  -24.3216    1.0000 </r>
       <r>  -24.2640    1.0000 </r>
       <r>  -24.2637    1.0000 </r>
       <r>   -6.5540    1.0000 </r>
       <r>   -6.5540    1.0000 </r>
       <r>   -6.5535    1.0000 </r>
       <r>   -6.5414    1.0000 </r>
       <r>   -6.5097    1.0000 </r>
       <r>   -1.1133    1.0000 </r>
       <r>    0.6197    1.0000 </r>
       <r>    1.3525    1.0000 </r>
       <r>    2.3769    1.0000 </r>
       <r>    2.7558    1.0000 </r>
       <r>    2.9368    1.0000 </r>
       <r>    3.0897    1.0000 </r>
       <r>    4.5642    1.0000 </r>
       <r>    4.7238    1.0000 </r>
       <r>    5.0242    1.0000 </r>
       <r>    5.1866    1.0000 </r>
       <r>    5.3795    1.0000 </r>
       <r>    5.7162    1.0000 </r>
       <r>    5.8483    1.0000 </r>
       <r>    5.8566    1.0000 </r>
       <r>    6.1166    1.0000 </r>
       <r>    6.3230    1.0000 </r>
       <r>    6.4342    1.0000 </r>
       <r>    6.7635    1.0000 </r>
       <r>    6.8468    1.0000 </r>
       <r>    6.9151    1.0000 </r>
       <r>    7.2479    1.0000 </r>
       <r>    7.3414    1.0000 </r>
       <r>    7.4232    1.0000 </r>
       <r>    7.6148    1.0000 </r>
       <r>    7.8117    1.0000 </r>
       <r>    7.9390    1.0000 </r>
       <r>    8.0615    1.0067 </r>
       <r>    8.1684    1.0235 </r>
       <r>    8.4312   -0.0211 </r>
       <r>    8.9417   -0.0000 </r>
       <r>    9.1548   -0.0000 </r>
       <r>    9.3988   -0.0000 </r>
       <r>    9.5039   -0.0000 </r>
       <r>    9.7986   -0.0000 </r>
       <r>    9.8716   -0.0000 </r>
       <r>    9.9183   -0.0000 </r>
       <r>   10.0085   -0.0000 </r>
       <r>   10.0400   -0.0000 </r>
       <r>   10.1931   -0.0000 </r>
       <r>   10.2270   -0.0000 </r>
       <r>   10.2933    0.0000 </r>
       <r>   10.3005    0.0000 </r>
       <r>   10.4454    0.0000 </r>
       <r>   10.4506    0.0000 </r>
       <r>   10.6563    0.0000 </r>
       <r>   10.8708    0.0000 </r>
       <r>   10.8958    0.0000 </r>
       <r>   11.1435    0.0000 </r>
       <r>   11.3680    0.0000 </r>
       <r>   11.5069    0.0000 </r>
       <r>   11.6529    0.0000 </r>
       <r>   11.7734    0.0000 </r>
       <r>   12.1339    0.0000 </r>
       <r>   12.4325    0.0000 </r>
       <r>   12.4729    0.0000 </r>
       <r>   12.6951    0.0000 </r>
       <r>   12.7784    0.0000 </r>
       <r>   12.9396    0.0000 </r>
       <r>   13.2357    0.0000 </r>
       <r>   13.3294    0.0000 </r>
       <r>   13.7927    0.0000 </r>
       <r>   13.9715    0.0000 </r>
       <r>   13.9821    0.0000 </r>
       <r>   13.9998    0.0000 </r>
       <r>   14.4698    0.0000 </r>
       <r>   14.6357    0.0000 </r>
       <r>   14.6737    0.0000 </r>
       <r>   15.2696    0.0000 </r>
       <r>   15.6409    0.0000 </r>
       <r>   16.0601    0.0000 </r>
       <r>   16.3515    0.0000 </r>
       <r>   16.4208    0.0000 </r>
       <r>   16.5209    0.0000 </r>
       <r>   16.9666    0.0000 </r>
       <r>   16.9982    0.0000 </r>
       <r>   17.3516    0.0000 </r>
       <r>   17.6799    0.0000 </r>
       <r>   18.2070    0.0000 </r>
       <r>   18.3089    0.0000 </r>
       <r>   18.3340    0.0000 </r>
       <r>   18.4287    0.0000 </r>
       <r>   18.8604    0.0000 </r>
       <r>   19.2615    0.0000 </r>
       <r>   19.5919    0.0000 </r>
       <r>   19.7616    0.0000 </r>
       <r>   19.7903    0.0000 </r>
       <r>   20.0050    0.0000 </r>
       <r>   20.0988    0.0000 </r>
       <r>   20.6324    0.0000 </r>
       <r>   21.0439    0.0000 </r>
       <r>   21.1389    0.0000 </r>
       <r>   21.1530    0.0000 </r>
       <r>   21.5521    0.0000 </r>
       <r>   21.5867    0.0000 </r>
      </set>
      <set comment="kpoint 6">
       <r>  -48.4638    1.0000 </r>
       <r>  -48.4500    1.0000 </r>
       <r>  -48.3802    1.0000 </r>
       <r>  -48.3745    1.0000 </r>
       <r>  -48.3637    1.0000 </r>
       <r>  -48.2310    1.0000 </r>
       <r>  -48.1759    1.0000 </r>
       <r>  -24.8389    1.0000 </r>
       <r>  -24.8137    1.0000 </r>
       <r>  -24.7997    1.0000 </r>
       <r>  -24.7988    1.0000 </r>
       <r>  -24.7845    1.0000 </r>
       <r>  -24.7772    1.0000 </r>
       <r>  -24.7675    1.0000 </r>
       <r>  -24.7613    1.0000 </r>
       <r>  -24.7398    1.0000 </r>
       <r>  -24.7285    1.0000 </r>
       <r>  -24.7186    1.0000 </r>
       <r>  -24.6863    1.0000 </r>
       <r>  -24.6314    1.0000 </r>
       <r>  -24.5914    1.0000 </r>
       <r>  -24.5681    1.0000 </r>
       <r>  -24.5035    1.0000 </r>
       <r>  -24.4131    1.0000 </r>
       <r>  -24.4100    1.0000 </r>
       <r>  -24.3462    1.0000 </r>
       <r>  -24.3187    1.0000 </r>
       <r>  -24.2684    1.0000 </r>
       <r>   -6.5539    1.0000 </r>
       <r>   -6.5534    1.0000 </r>
       <r>   -6.5525    1.0000 </r>
       <r>   -6.5367    1.0000 </r>
       <r>   -6.5090    1.0000 </r>
       <r>   -0.7597    1.0000 </r>
       <r>    0.9004    1.0000 </r>
       <r>    0.9323    1.0000 </r>
       <r>    2.1746    1.0000 </r>
       <r>    2.1915    1.0000 </r>
       <r>    3.0263    1.0000 </r>
       <r>    3.3423    1.0000 </r>
       <r>    3.8500    1.0000 </r>
       <r>    4.5069    1.0000 </r>
       <r>    4.5604    1.0000 </r>
       <r>    5.2975    1.0000 </r>
       <r>    5.6194    1.0000 </r>
       <r>    5.9313    1.0000 </r>
       <r>    6.0601    1.0000 </r>
       <r>    6.2045    1.0000 </r>
       <r>    6.3543    1.0000 </r>
       <r>    6.5346    1.0000 </r>
       <r>    6.6535    1.0000 </r>
       <r>    6.9755    1.0000 </r>
       <r>    7.0100    1.0000 </r>
       <r>    7.0847    1.0000 </r>
       <r>    7.2716    1.0000 </r>
       <r>    7.5613    1.0000 </r>
       <r>    7.5928    1.0000 </r>
       <r>    7.7988    1.0000 </r>
       <r>    7.8834    1.0000 </r>
       <r>    7.9270    1.0000 </r>
       <r>    8.0989    1.0194 </r>
       <r>    8.3747   -0.0314 </r>
       <r>    8.6223   -0.0000 </r>
       <r>    8.9431   -0.0000 </r>
       <r>    9.1182   -0.0000 </r>
       <r>    9.2172   -0.0000 </r>
       <r>    9.4283   -0.0000 </r>
       <r>    9.4660   -0.0000 </r>
       <r>    9.5213   -0.0000 </r>
       <r>    9.6890   -0.0000 </r>
       <r>    9.8033   -0.0000 </r>
       <r>    9.9940   -0.0000 </r>
       <r>   10.0059   -0.0000 </r>
       <r>   10.1673   -0.0000 </r>
       <r>   10.2136   -0.0000 </r>
       <r>   10.2704    0.0000 </r>
       <r>   10.3177    0.0000 </r>
       <r>   10.3574    0.0000 </r>
       <r>   10.6421    0.0000 </r>
       <r>   10.8351    0.0000 </r>
       <r>   10.9282    0.0000 </r>
       <r>   11.0149    0.0000 </r>
       <r>   11.2965    0.0000 </r>
       <r>   11.4400    0.0000 </r>
       <r>   11.7706    0.0000 </r>
       <r>   11.9919    0.0000 </r>
       <r>   12.0069    0.0000 </r>
       <r>   12.2723    0.0000 </r>
       <r>   12.3317    0.0000 </r>
       <r>   13.0490    0.0000 </r>
       <r>   13.1507    0.0000 </r>
       <r>   13.1672    0.0000 </r>
       <r>   13.2917    0.0000 </r>
       <r>   13.6039    0.0000 </r>
       <r>   13.6822    0.0000 </r>
       <r>   14.2398    0.0000 </r>
       <r>   14.2756    0.0000 </r>
       <r>   14.2861    0.0000 </r>
       <r>   14.4657    0.0000 </r>
       <r>   14.6004    0.0000 </r>
       <r>   15.0956    0.0000 </r>
       <r>   15.3182    0.0000 </r>
       <r>   15.8290    0.0000 </r>
       <r>   16.1035    0.0000 </r>
       <r>   16.1200    0.0000 </r>
       <r>   16.2000    0.0000 </r>
       <r>   16.4058    0.0000 </r>
       <r>   16.6646    0.0000 </r>
       <r>   16.9765    0.0000 </r>
       <r>   17.0577    0.0000 </r>
       <r>   17.2744    0.0000 </r>
       <r>   17.3703    0.0000 </r>
       <r>   17.4879    0.0000 </r>
       <r>   17.6994    0.0000 </r>
       <r>   17.9374    0.0000 </r>
       <r>   18.6166    0.0000 </r>
       <r>   18.9907    0.0000 </r>
       <r>   19.2267    0.0000 </r>
       <r>   19.2881    0.0000 </r>
       <r>   19.8163    0.0000 </r>
       <r>   20.0346    0.0000 </r>
       <r>   20.2474    0.0000 </r>
       <r>   20.4179    0.0000 </r>
       <r>   20.6873    0.0000 </r>
       <r>   20.8522    0.0000 </r>
       <r>   21.2395    0.0000 </r>
       <r>   21.3149    0.0000 </r>
       <r>   21.6749    0.0000 </r>
      </set>
      <set comment="kpoint 7">
       <r>  -48.4607    1.0000 </r>
       <r>  -48.4503    1.0000 </r>
       <r>  -48.3831    1.0000 </r>
       <r>  -48.3686    1.0000 </r>
       <r>  -48.3670    1.0000 </r>
       <r>  -48.2321    1.0000 </r>
       <r>  -48.1775    1.0000 </r>
       <r>  -24.8358    1.0000 </r>
       <r>  -24.8102    1.0000 </r>
       <r>  -24.8005    1.0000 </r>
       <r>  -24.7959    1.0000 </r>
       <r>  -24.7854    1.0000 </r>
       <r>  -24.7713    1.0000 </r>
       <r>  -24.7711    1.0000 </r>
       <r>  -24.7531    1.0000 </r>
       <r>  -24.7312    1.0000 </r>
       <r>  -24.7267    1.0000 </r>
       <r>  -24.6298    1.0000 </r>
       <r>  -24.6204    1.0000 </r>
       <r>  -24.5921    1.0000 </r>
       <r>  -24.5912    1.0000 </r>
       <r>  -24.5891    1.0000 </r>
       <r>  -24.5698    1.0000 </r>
       <r>  -24.4808    1.0000 </r>
       <r>  -24.4163    1.0000 </r>
       <r>  -24.4133    1.0000 </r>
       <r>  -24.3163    1.0000 </r>
       <r>  -24.2709    1.0000 </r>
       <r>   -6.5539    1.0000 </r>
       <r>   -6.5530    1.0000 </r>
       <r>   -6.5522    1.0000 </r>
       <r>   -6.5341    1.0000 </r>
       <r>   -6.5087    1.0000 </r>
       <r>   -0.4264    1.0000 </r>
       <r>    0.4127    1.0000 </r>
       <r>    1.3273    1.0000 </r>
       <r>    1.6175    1.0000 </r>
       <r>    2.3414    1.0000 </r>
       <r>    3.3480    1.0000 </r>
       <r>    3.4638    1.0000 </r>
       <r>    3.8246    1.0000 </r>
       <r>    3.8752    1.0000 </r>
       <r>    4.0903    1.0000 </r>
       <r>    5.5189    1.0000 </r>
       <r>    5.7630    1.0000 </r>
       <r>    5.8233    1.0000 </r>
       <r>    6.0897    1.0000 </r>
       <r>    6.2600    1.0000 </r>
       <r>    6.3809    1.0000 </r>
       <r>    6.7738    1.0000 </r>
       <r>    6.8205    1.0000 </r>
       <r>    7.1273    1.0000 </r>
       <r>    7.2656    1.0000 </r>
       <r>    7.2897    1.0000 </r>
       <r>    7.4447    1.0000 </r>
       <r>    7.5504    1.0000 </r>
       <r>    7.6504    1.0000 </r>
       <r>    7.9245    1.0000 </r>
       <r>    8.0323    1.0022 </r>
       <r>    8.0665    1.0079 </r>
       <r>    8.3089    0.1769 </r>
       <r>    8.3898   -0.0355 </r>
       <r>    8.4391   -0.0176 </r>
       <r>    8.8555   -0.0000 </r>
       <r>    8.9010   -0.0000 </r>
       <r>    9.2230   -0.0000 </r>
       <r>    9.2297   -0.0000 </r>
       <r>    9.3684   -0.0000 </r>
       <r>    9.3808   -0.0000 </r>
       <r>    9.5204   -0.0000 </r>
       <r>    9.6202   -0.0000 </r>
       <r>    9.8457   -0.0000 </r>
       <r>    9.9572   -0.0000 </r>
       <r>   10.1689   -0.0000 </r>
       <r>   10.1986   -0.0000 </r>
       <r>   10.2000   -0.0000 </r>
       <r>   10.3911    0.0000 </r>
       <r>   10.6001    0.0000 </r>
       <r>   10.6272    0.0000 </r>
       <r>   10.6659    0.0000 </r>
       <r>   10.7915    0.0000 </r>
       <r>   11.0386    0.0000 </r>
       <r>   11.2992    0.0000 </r>
       <r>   11.3971    0.0000 </r>
       <r>   11.7592    0.0000 </r>
       <r>   11.8979    0.0000 </r>
       <r>   12.0575    0.0000 </r>
       <r>   12.0710    0.0000 </r>
       <r>   12.4075    0.0000 </r>
       <r>   12.8339    0.0000 </r>
       <r>   13.2865    0.0000 </r>
       <r>   13.4314    0.0000 </r>
       <r>   13.7009    0.0000 </r>
       <r>   13.8852    0.0000 </r>
       <r>   13.9150    0.0000 </r>
       <r>   14.3288    0.0000 </r>
       <r>   14.3342    0.0000 </r>
       <r>   14.5684    0.0000 </r>
       <r>   14.6066    0.0000 </r>
       <r>   14.7033    0.0000 </r>
       <r>   14.8956    0.0000 </r>
       <r>   15.1631    0.0000 </r>
       <r>   15.4950    0.0000 </r>
       <r>   15.8077    0.0000 </r>
       <r>   15.9162    0.0000 </r>
       <r>   16.4702    0.0000 </r>
       <r>   16.5430    0.0000 </r>
       <r>   16.5589    0.0000 </r>
       <r>   16.9915    0.0000 </r>
       <r>   17.0767    0.0000 </r>
       <r>   17.0927    0.0000 </r>
       <r>   17.2246    0.0000 </r>
       <r>   17.2337    0.0000 </r>
       <r>   17.4440    0.0000 </r>
       <r>   18.0029    0.0000 </r>
       <r>   18.3234    0.0000 </r>
       <r>   18.6551    0.0000 </r>
       <r>   19.0323    0.0000 </r>
       <r>   19.1021    0.0000 </r>
       <r>   19.1100    0.0000 </r>
       <r>   19.8974    0.0000 </r>
       <r>   20.1639    0.0000 </r>
       <r>   20.3353    0.0000 </r>
       <r>   20.6836    0.0000 </r>
       <r>   20.9240    0.0000 </r>
       <r>   21.0494    0.0000 </r>
       <r>   21.2856    0.0000 </r>
       <r>   21.6114    0.0000 </r>
      </set>
      <set comment="kpoint 8">
       <r>  -48.4577    1.0000 </r>
       <r>  -48.4501    1.0000 </r>
       <r>  -48.3863    1.0000 </r>
       <r>  -48.3695    1.0000 </r>
       <r>  -48.3630    1.0000 </r>
       <r>  -48.2341    1.0000 </r>
       <r>  -48.1787    1.0000 </r>
       <r>  -24.8077    1.0000 </r>
       <r>  -24.7999    1.0000 </r>
       <r>  -24.7991    1.0000 </r>
       <r>  -24.7854    1.0000 </r>
       <r>  -24.7728    1.0000 </r>
       <r>  -24.7671    1.0000 </r>
       <r>  -24.7481    1.0000 </r>
       <r>  -24.7422    1.0000 </r>
       <r>  -24.7343    1.0000 </r>
       <r>  -24.6793    1.0000 </r>
       <r>  -24.6741    1.0000 </r>
       <r>  -24.6461    1.0000 </r>
       <r>  -24.6351    1.0000 </r>
       <r>  -24.5936    1.0000 </r>
       <r>  -24.5708    1.0000 </r>
       <r>  -24.5070    1.0000 </r>
       <r>  -24.5009    1.0000 </r>
       <r>  -24.4100    1.0000 </r>
       <r>  -24.4028    1.0000 </r>
       <r>  -24.3506    1.0000 </r>
       <r>  -24.3502    1.0000 </r>
       <r>   -6.5533    1.0000 </r>
       <r>   -6.5533    1.0000 </r>
       <r>   -6.5508    1.0000 </r>
       <r>   -6.5326    1.0000 </r>
       <r>   -6.5084    1.0000 </r>
       <r>   -0.4261    1.0000 </r>
       <r>    1.0722    1.0000 </r>
       <r>    1.2442    1.0000 </r>
       <r>    1.6169    1.0000 </r>
       <r>    2.3921    1.0000 </r>
       <r>    2.6440    1.0000 </r>
       <r>    2.7791    1.0000 </r>
       <r>    3.2952    1.0000 </r>
       <r>    3.7215    1.0000 </r>
       <r>    4.7853    1.0000 </r>
       <r>    4.9609    1.0000 </r>
       <r>    5.8201    1.0000 </r>
       <r>    6.3923    1.0000 </r>
       <r>    6.5823    1.0000 </r>
       <r>    6.6275    1.0000 </r>
       <r>    6.8481    1.0000 </r>
       <r>    6.9744    1.0000 </r>
       <r>    6.9798    1.0000 </r>
       <r>    7.1425    1.0000 </r>
       <r>    7.1970    1.0000 </r>
       <r>    7.3123    1.0000 </r>
       <r>    7.3472    1.0000 </r>
       <r>    7.6404    1.0000 </r>
       <r>    7.8093    1.0000 </r>
       <r>    7.9118    1.0000 </r>
       <r>    7.9398    1.0000 </r>
       <r>    8.0734    1.0098 </r>
       <r>    8.3092    0.1748 </r>
       <r>    8.3611   -0.0180 </r>
       <r>    8.6348   -0.0000 </r>
       <r>    8.7865   -0.0000 </r>
       <r>    9.0726   -0.0000 </r>
       <r>    9.2303   -0.0000 </r>
       <r>    9.2435   -0.0000 </r>
       <r>    9.4397   -0.0000 </r>
       <r>    9.5727   -0.0000 </r>
       <r>    9.5976   -0.0000 </r>
       <r>    9.6223   -0.0000 </r>
       <r>    9.7695   -0.0000 </r>
       <r>    9.8625   -0.0000 </r>
       <r>    9.9418   -0.0000 </r>
       <r>    9.9649   -0.0000 </r>
       <r>    9.9900   -0.0000 </r>
       <r>   10.0655   -0.0000 </r>
       <r>   10.1358   -0.0000 </r>
       <r>   10.3413    0.0000 </r>
       <r>   10.6285    0.0000 </r>
       <r>   10.7735    0.0000 </r>
       <r>   11.0818    0.0000 </r>
       <r>   11.3367    0.0000 </r>
       <r>   11.6910    0.0000 </r>
       <r>   11.7749    0.0000 </r>
       <r>   12.1751    0.0000 </r>
       <r>   12.1955    0.0000 </r>
       <r>   12.5033    0.0000 </r>
       <r>   12.7049    0.0000 </r>
       <r>   12.8061    0.0000 </r>
       <r>   12.9541    0.0000 </r>
       <r>   13.3110    0.0000 </r>
       <r>   13.4211    0.0000 </r>
       <r>   13.6447    0.0000 </r>
       <r>   13.7160    0.0000 </r>
       <r>   14.1011    0.0000 </r>
       <r>   14.3395    0.0000 </r>
       <r>   14.3450    0.0000 </r>
       <r>   14.5938    0.0000 </r>
       <r>   14.6785    0.0000 </r>
       <r>   14.7996    0.0000 </r>
       <r>   15.2463    0.0000 </r>
       <r>   15.4277    0.0000 </r>
       <r>   15.5491    0.0000 </r>
       <r>   15.6043    0.0000 </r>
       <r>   15.7075    0.0000 </r>
       <r>   15.7688    0.0000 </r>
       <r>   16.3795    0.0000 </r>
       <r>   16.7919    0.0000 </r>
       <r>   17.1394    0.0000 </r>
       <r>   17.1623    0.0000 </r>
       <r>   17.7079    0.0000 </r>
       <r>   17.7089    0.0000 </r>
       <r>   17.8701    0.0000 </r>
       <r>   18.3306    0.0000 </r>
       <r>   18.8499    0.0000 </r>
       <r>   19.2163    0.0000 </r>
       <r>   19.3394    0.0000 </r>
       <r>   19.4414    0.0000 </r>
       <r>   19.9972    0.0000 </r>
       <r>   20.1102    0.0000 </r>
       <r>   20.1254    0.0000 </r>
       <r>   20.4341    0.0000 </r>
       <r>   20.5039    0.0000 </r>
       <r>   20.6774    0.0000 </r>
       <r>   21.1007    0.0000 </r>
       <r>   21.1965    0.0000 </r>
       <r>   21.6134    0.0000 </r>
      </set>
      <set comment="kpoint 9">
       <r>  -48.4541    1.0000 </r>
       <r>  -48.4503    1.0000 </r>
       <r>  -48.3898    1.0000 </r>
       <r>  -48.3651    1.0000 </r>
       <r>  -48.3645    1.0000 </r>
       <r>  -48.2357    1.0000 </r>
       <r>  -48.1801    1.0000 </r>
       <r>  -24.8040    1.0000 </r>
       <r>  -24.8004    1.0000 </r>
       <r>  -24.7979    1.0000 </r>
       <r>  -24.7813    1.0000 </r>
       <r>  -24.7688    1.0000 </r>
       <r>  -24.7687    1.0000 </r>
       <r>  -24.7485    1.0000 </r>
       <r>  -24.7376    1.0000 </r>
       <r>  -24.6694    1.0000 </r>
       <r>  -24.6485    1.0000 </r>
       <r>  -24.6325    1.0000 </r>
       <r>  -24.6204    1.0000 </r>
       <r>  -24.5947    1.0000 </r>
       <r>  -24.5885    1.0000 </r>
       <r>  -24.5846    1.0000 </r>
       <r>  -24.5722    1.0000 </r>
       <r>  -24.5041    1.0000 </r>
       <r>  -24.4851    1.0000 </r>
       <r>  -24.4204    1.0000 </r>
       <r>  -24.4022    1.0000 </r>
       <r>  -24.3530    1.0000 </r>
       <r>   -6.5533    1.0000 </r>
       <r>   -6.5530    1.0000 </r>
       <r>   -6.5502    1.0000 </r>
       <r>   -6.5303    1.0000 </r>
       <r>   -6.5081    1.0000 </r>
       <r>   -0.1318    1.0000 </r>
       <r>    0.8019    1.0000 </r>
       <r>    1.6364    1.0000 </r>
       <r>    1.7496    1.0000 </r>
       <r>    1.9230    1.0000 </r>
       <r>    2.3085    1.0000 </r>
       <r>    3.0098    1.0000 </r>
       <r>    3.0833    1.0000 </r>
       <r>    3.4844    1.0000 </r>
       <r>    4.4123    1.0000 </r>
       <r>    5.0756    1.0000 </r>
       <r>    5.7213    1.0000 </r>
       <r>    6.5767    1.0000 </r>
       <r>    6.7102    1.0000 </r>
       <r>    6.8975    1.0000 </r>
       <r>    7.0475    1.0000 </r>
       <r>    7.0769    1.0000 </r>
       <r>    7.1374    1.0000 </r>
       <r>    7.1845    1.0000 </r>
       <r>    7.4467    1.0000 </r>
       <r>    7.5430    1.0000 </r>
       <r>    7.6211    1.0000 </r>
       <r>    7.7221    1.0000 </r>
       <r>    7.7541    1.0000 </r>
       <r>    8.0416    1.0032 </r>
       <r>    8.1611    1.0302 </r>
       <r>    8.2269    0.8106 </r>
       <r>    8.2932    0.2855 </r>
       <r>    8.3885   -0.0354 </r>
       <r>    8.5147   -0.0013 </r>
       <r>    8.8186   -0.0000 </r>
       <r>    8.9686   -0.0000 </r>
       <r>    9.0058   -0.0000 </r>
       <r>    9.2553   -0.0000 </r>
       <r>    9.3334   -0.0000 </r>
       <r>    9.4215   -0.0000 </r>
       <r>    9.5803   -0.0000 </r>
       <r>    9.6214   -0.0000 </r>
       <r>    9.7126   -0.0000 </r>
       <r>    9.7653   -0.0000 </r>
       <r>    9.8099   -0.0000 </r>
       <r>    9.8131   -0.0000 </r>
       <r>    9.8829   -0.0000 </r>
       <r>   10.0095   -0.0000 </r>
       <r>   10.1684   -0.0000 </r>
       <r>   10.2502   -0.0000 </r>
       <r>   10.2687    0.0000 </r>
       <r>   10.8179    0.0000 </r>
       <r>   11.3347    0.0000 </r>
       <r>   11.4476    0.0000 </r>
       <r>   11.6970    0.0000 </r>
       <r>   11.7001    0.0000 </r>
       <r>   11.9878    0.0000 </r>
       <r>   12.2008    0.0000 </r>
       <r>   12.3625    0.0000 </r>
       <r>   12.7899    0.0000 </r>
       <r>   13.0541    0.0000 </r>
       <r>   13.2310    0.0000 </r>
       <r>   13.6010    0.0000 </r>
       <r>   13.6298    0.0000 </r>
       <r>   13.8432    0.0000 </r>
       <r>   13.8937    0.0000 </r>
       <r>   13.9510    0.0000 </r>
       <r>   13.9971    0.0000 </r>
       <r>   14.1610    0.0000 </r>
       <r>   14.1897    0.0000 </r>
       <r>   14.4907    0.0000 </r>
       <r>   14.7800    0.0000 </r>
       <r>   14.8823    0.0000 </r>
       <r>   14.9422    0.0000 </r>
       <r>   15.2067    0.0000 </r>
       <r>   15.3468    0.0000 </r>
       <r>   15.4711    0.0000 </r>
       <r>   15.8574    0.0000 </r>
       <r>   16.4353    0.0000 </r>
       <r>   16.8831    0.0000 </r>
       <r>   17.6202    0.0000 </r>
       <r>   17.6392    0.0000 </r>
       <r>   17.9683    0.0000 </r>
       <r>   18.4005    0.0000 </r>
       <r>   18.4021    0.0000 </r>
       <r>   18.5813    0.0000 </r>
       <r>   18.7152    0.0000 </r>
       <r>   18.8657    0.0000 </r>
       <r>   19.2427    0.0000 </r>
       <r>   19.2503    0.0000 </r>
       <r>   19.2777    0.0000 </r>
       <r>   19.3027    0.0000 </r>
       <r>   20.1911    0.0000 </r>
       <r>   20.2861    0.0000 </r>
       <r>   20.6006    0.0000 </r>
       <r>   20.6652    0.0000 </r>
       <r>   21.0235    0.0000 </r>
       <r>   21.0662    0.0000 </r>
       <r>   21.8815    0.0000 </r>
      </set>
      <set comment="kpoint 10">
       <r>  -48.4503    1.0000 </r>
       <r>  -48.4503    1.0000 </r>
       <r>  -48.3937    1.0000 </r>
       <r>  -48.3632    1.0000 </r>
       <r>  -48.3632    1.0000 </r>
       <r>  -48.2376    1.0000 </r>
       <r>  -48.1814    1.0000 </r>
       <r>  -24.8003    1.0000 </r>
       <r>  -24.8003    1.0000 </r>
       <r>  -24.7986    1.0000 </r>
       <r>  -24.7795    1.0000 </r>
       <r>  -24.7675    1.0000 </r>
       <r>  -24.7675    1.0000 </r>
       <r>  -24.7414    1.0000 </r>
       <r>  -24.6339    1.0000 </r>
       <r>  -24.6339    1.0000 </r>
       <r>  -24.6279    1.0000 </r>
       <r>  -24.6128    1.0000 </r>
       <r>  -24.5961    1.0000 </r>
       <r>  -24.5951    1.0000 </r>
       <r>  -24.5904    1.0000 </r>
       <r>  -24.5799    1.0000 </r>
       <r>  -24.5752    1.0000 </r>
       <r>  -24.5734    1.0000 </r>
       <r>  -24.4881    1.0000 </r>
       <r>  -24.4881    1.0000 </r>
       <r>  -24.4192    1.0000 </r>
       <r>  -24.4192    1.0000 </r>
       <r>   -6.5529    1.0000 </r>
       <r>   -6.5529    1.0000 </r>
       <r>   -6.5495    1.0000 </r>
       <r>   -6.5282    1.0000 </r>
       <r>   -6.5079    1.0000 </r>
       <r>    0.0992    1.0000 </r>
       <r>    1.3560    1.0000 </r>
       <r>    1.3560    1.0000 </r>
       <r>    1.5314    1.0000 </r>
       <r>    1.9749    1.0000 </r>
       <r>    2.3674    1.0000 </r>
       <r>    2.4778    1.0000 </r>
       <r>    2.4778    1.0000 </r>
       <r>    3.6889    1.0000 </r>
       <r>    4.7106    1.0000 </r>
       <r>    4.7106    1.0000 </r>
       <r>    5.3576    1.0000 </r>
       <r>    6.7773    1.0000 </r>
       <r>    7.0010    1.0000 </r>
       <r>    7.0010    1.0000 </r>
       <r>    7.2084    1.0000 </r>
       <r>    7.4112    1.0000 </r>
       <r>    7.4112    1.0000 </r>
       <r>    7.6088    1.0000 </r>
       <r>    7.6476    1.0000 </r>
       <r>    7.6636    1.0000 </r>
       <r>    7.7469    1.0000 </r>
       <r>    7.7744    1.0000 </r>
       <r>    7.7744    1.0000 </r>
       <r>    8.1039    1.0217 </r>
       <r>    8.1760    1.0130 </r>
       <r>    8.1760    1.0130 </r>
       <r>    8.4031   -0.0330 </r>
       <r>    8.5123   -0.0014 </r>
       <r>    8.6783   -0.0000 </r>
       <r>    8.6783   -0.0000 </r>
       <r>    8.9247   -0.0000 </r>
       <r>    9.0407   -0.0000 </r>
       <r>    9.0874   -0.0000 </r>
       <r>    9.4032   -0.0000 </r>
       <r>    9.4032   -0.0000 </r>
       <r>    9.5182   -0.0000 </r>
       <r>    9.5182   -0.0000 </r>
       <r>    9.5338   -0.0000 </r>
       <r>    9.5384   -0.0000 </r>
       <r>    9.7333   -0.0000 </r>
       <r>    9.8006   -0.0000 </r>
       <r>    9.8006   -0.0000 </r>
       <r>    9.9411   -0.0000 </r>
       <r>    9.9411   -0.0000 </r>
       <r>   10.0286   -0.0000 </r>
       <r>   10.0413   -0.0000 </r>
       <r>   10.8923    0.0000 </r>
       <r>   11.6061    0.0000 </r>
       <r>   11.7637    0.0000 </r>
       <r>   11.7637    0.0000 </r>
       <r>   11.8066    0.0000 </r>
       <r>   11.8066    0.0000 </r>
       <r>   11.8565    0.0000 </r>
       <r>   12.2130    0.0000 </r>
       <r>   13.3366    0.0000 </r>
       <r>   13.4943    0.0000 </r>
       <r>   13.6530    0.0000 </r>
       <r>   13.6530    0.0000 </r>
       <r>   13.7152    0.0000 </r>
       <r>   13.7276    0.0000 </r>
       <r>   13.7276    0.0000 </r>
       <r>   13.8445    0.0000 </r>
       <r>   13.8535    0.0000 </r>
       <r>   13.8586    0.0000 </r>
       <r>   13.9631    0.0000 </r>
       <r>   13.9877    0.0000 </r>
       <r>   13.9877    0.0000 </r>
       <r>   14.3486    0.0000 </r>
       <r>   14.5251    0.0000 </r>
       <r>   14.5251    0.0000 </r>
       <r>   15.7347    0.0000 </r>
       <r>   16.0053    0.0000 </r>
       <r>   16.0053    0.0000 </r>
       <r>   16.5752    0.0000 </r>
       <r>   17.0554    0.0000 </r>
       <r>   17.1039    0.0000 </r>
       <r>   17.5226    0.0000 </r>
       <r>   18.0145    0.0000 </r>
       <r>   18.0145    0.0000 </r>
       <r>   19.1169    0.0000 </r>
       <r>   19.1169    0.0000 </r>
       <r>   19.2874    0.0000 </r>
       <r>   19.7633    0.0000 </r>
       <r>   19.9388    0.0000 </r>
       <r>   19.9388    0.0000 </r>
       <r>   19.9892    0.0000 </r>
       <r>   20.0201    0.0000 </r>
       <r>   20.0201    0.0000 </r>
       <r>   20.1248    0.0000 </r>
       <r>   20.2873    0.0000 </r>
       <r>   20.2873    0.0000 </r>
       <r>   20.3898    0.0000 </r>
       <r>   21.1483    0.0000 </r>
       <r>   21.1802    0.0000 </r>
      </set>
      <set comment="kpoint 11">
       <r>  -48.4741    1.0000 </r>
       <r>  -48.4495    1.0000 </r>
       <r>  -48.3858    1.0000 </r>
       <r>  -48.3702    1.0000 </r>
       <r>  -48.3624    1.0000 </r>
       <r>  -48.2265    1.0000 </r>
       <r>  -48.1699    1.0000 </r>
       <r>  -24.8751    1.0000 </r>
       <r>  -24.8751    1.0000 </r>
       <r>  -24.8238    1.0000 </r>
       <r>  -24.8081    1.0000 </r>
       <r>  -24.8081    1.0000 </r>
       <r>  -24.7980    1.0000 </r>
       <r>  -24.7879    1.0000 </r>
       <r>  -24.7810    1.0000 </r>
       <r>  -24.7810    1.0000 </r>
       <r>  -24.7663    1.0000 </r>
       <r>  -24.7330    1.0000 </r>
       <r>  -24.7330    1.0000 </r>
       <r>  -24.7188    1.0000 </r>
       <r>  -24.5886    1.0000 </r>
       <r>  -24.5620    1.0000 </r>
       <r>  -24.3792    1.0000 </r>
       <r>  -24.3792    1.0000 </r>
       <r>  -24.2919    1.0000 </r>
       <r>  -24.2919    1.0000 </r>
       <r>  -24.2303    1.0000 </r>
       <r>  -24.2303    1.0000 </r>
       <r>   -6.5548    1.0000 </r>
       <r>   -6.5544    1.0000 </r>
       <r>   -6.5544    1.0000 </r>
       <r>   -6.5457    1.0000 </r>
       <r>   -6.5104    1.0000 </r>
       <r>   -1.2558    1.0000 </r>
       <r>   -0.0334    1.0000 </r>
       <r>    1.8998    1.0000 </r>
       <r>    3.3074    1.0000 </r>
       <r>    3.3074    1.0000 </r>
       <r>    3.5816    1.0000 </r>
       <r>    3.5816    1.0000 </r>
       <r>    3.7185    1.0000 </r>
       <r>    3.8981    1.0000 </r>
       <r>    4.3135    1.0000 </r>
       <r>    4.8861    1.0000 </r>
       <r>    5.2873    1.0000 </r>
       <r>    5.5545    1.0000 </r>
       <r>    5.9808    1.0000 </r>
       <r>    6.1865    1.0000 </r>
       <r>    6.1865    1.0000 </r>
       <r>    6.2728    1.0000 </r>
       <r>    6.2728    1.0000 </r>
       <r>    6.5337    1.0000 </r>
       <r>    6.8968    1.0000 </r>
       <r>    6.8968    1.0000 </r>
       <r>    7.3321    1.0000 </r>
       <r>    7.3321    1.0000 </r>
       <r>    7.3594    1.0000 </r>
       <r>    7.4753    1.0000 </r>
       <r>    7.6983    1.0000 </r>
       <r>    7.7801    1.0000 </r>
       <r>    7.8346    1.0000 </r>
       <r>    8.3426    0.0217 </r>
       <r>    8.8633   -0.0000 </r>
       <r>    8.8633   -0.0000 </r>
       <r>    8.8667   -0.0000 </r>
       <r>    9.4456   -0.0000 </r>
       <r>    9.5429   -0.0000 </r>
       <r>    9.7387   -0.0000 </r>
       <r>    9.9179   -0.0000 </r>
       <r>   10.0208   -0.0000 </r>
       <r>   10.1183   -0.0000 </r>
       <r>   10.2487   -0.0000 </r>
       <r>   10.2487   -0.0000 </r>
       <r>   10.3637    0.0000 </r>
       <r>   10.4780    0.0000 </r>
[...]
       </set>
       <set comment="band 103">
        <r>  0.0000  0.2237  0.0000 </r>
        <r>  0.0000  0.0000  0.0065 </r>
        <r>  0.0005  0.0000  0.1033 </r>
        <r>  0.0000  0.0185  0.0000 </r>
        <r>  0.0003  0.0000  0.0515 </r>
        <r>  0.0000  0.0089  0.0000 </r>
        <r>  0.0000  0.0059  0.0000 </r>
        <r>  0.0000  0.0000  0.0987 </r>
        <r>  0.0009  0.0041  0.0000 </r>
        <r>  0.0009  0.0041  0.0000 </r>
        <r>  0.0035  0.0146  0.0000 </r>
        <r>  0.0035  0.0146  0.0000 </r>
        <r>  0.0035  0.0146  0.0000 </r>
        <r>  0.0035  0.0146  0.0000 </r>
        <r>  0.0009  0.0041  0.0000 </r>
        <r>  0.0009  0.0041  0.0000 </r>
       </set>
       <set comment="band 104">
        <r>  0.0000  0.2237  0.0000 </r>
        <r>  0.0000  0.0000  0.0065 </r>
        <r>  0.0003  0.0000  0.0515 </r>
        <r>  0.0000  0.0089  0.0000 </r>
        <r>  0.0005  0.0000  0.1033 </r>
        <r>  0.0000  0.0185  0.0000 </r>
        <r>  0.0000  0.0059  0.0000 </r>
        <r>  0.0000  0.0000  0.0987 </r>
        <r>  0.0035  0.0146  0.0000 </r>
        <r>  0.0035  0.0146  0.0000 </r>
        <r>  0.0009  0.0041  0.0000 </r>
        <r>  0.0009  0.0041  0.0000 </r>
        <r>  0.0009  0.0041  0.0000 </r>
        <r>  0.0009  0.0041  0.0000 </r>
        <r>  0.0035  0.0146  0.0000 </r>
        <r>  0.0035  0.0146  0.0000 </r>
       </set>
       <set comment="band 105">
        <r>  0.0000  0.0000  0.0232 </r>
        <r>  0.0000  0.0001  0.0000 </r>
        <r>  0.0000  0.0110  0.0000 </r>
        <r>  0.0714  0.0000  0.0379 </r>
        <r>  0.0000  0.0077  0.0000 </r>
        <r>  0.0497  0.0000  0.0264 </r>
        <r>  0.0000  0.0000  0.0031 </r>
        <r>  0.0000  0.0224  0.0000 </r>
        <r>  0.0039  0.0097  0.0000 </r>
        <r>  0.0039  0.0097  0.0000 </r>
        <r>  0.0063  0.0142  0.0000 </r>
        <r>  0.0063  0.0142  0.0000 </r>
        <r>  0.0063  0.0142  0.0000 </r>
        <r>  0.0063  0.0142  0.0000 </r>
        <r>  0.0039  0.0097  0.0000 </r>
        <r>  0.0039  0.0097  0.0000 </r>
       </set>
       <set comment="band 106">
        <r>  0.0000  0.0000  0.0232 </r>
        <r>  0.0000  0.0001  0.0000 </r>
        <r>  0.0000  0.0077  0.0000 </r>
        <r>  0.0497  0.0000  0.0264 </r>
        <r>  0.0000  0.0110  0.0000 </r>
        <r>  0.0714  0.0000  0.0379 </r>
        <r>  0.0000  0.0000  0.0031 </r>
        <r>  0.0000  0.0224  0.0000 </r>
        <r>  0.0063  0.0142  0.0000 </r>
        <r>  0.0063  0.0142  0.0000 </r>
        <r>  0.0039  0.0097  0.0000 </r>
        <r>  0.0039  0.0097  0.0000 </r>
        <r>  0.0039  0.0097  0.0000 </r>
        <r>  0.0039  0.0097  0.0000 </r>
        <r>  0.0063  0.0142  0.0000 </r>
        <r>  0.0063  0.0142  0.0000 </r>
       </set>
       <set comment="band 107">
        <r>  0.0000  0.0000  0.0418 </r>
        <r>  0.0000  0.0000  0.0000 </r>
        <r>  0.0000  0.0062  0.0000 </r>
        <r>  0.0000  0.0000  0.0021 </r>
        <r>  0.0000  0.0062  0.0000 </r>
        <r>  0.0000  0.0000  0.0021 </r>
        <r>  0.0052  0.0000  0.0538 </r>
        <r>  0.0000  0.0869  0.0000 </r>
        <r>  0.0055  0.0014  0.0000 </r>
        <r>  0.0055  0.0014  0.0000 </r>
        <r>  0.0055  0.0014  0.0000 </r>
        <r>  0.0055  0.0014  0.0000 </r>
        <r>  0.0055  0.0014  0.0000 </r>
        <r>  0.0055  0.0014  0.0000 </r>
        <r>  0.0055  0.0014  0.0000 </r>
        <r>  0.0055  0.0014  0.0000 </r>
       </set>
       <set comment="band 108">
        <r>  0.0000  0.0000  0.0713 </r>
        <r>  0.0000  0.0000  0.0000 </r>
        <r>  0.0000  0.0752  0.0000 </r>
        <r>  0.0000  0.0000  0.0783 </r>
        <r>  0.0000  0.0752  0.0000 </r>
        <r>  0.0000  0.0000  0.0783 </r>
        <r>  0.0000  0.0000  0.0000 </r>
        <r>  0.0000  0.0000  0.0000 </r>
        <r>  0.0000  0.0067  0.0000 </r>
        <r>  0.0000  0.0067  0.0000 </r>
        <r>  0.0000  0.0067  0.0000 </r>
        <r>  0.0000  0.0067  0.0000 </r>
        <r>  0.0000  0.0067  0.0000 </r>
        <r>  0.0000  0.0067  0.0000 </r>
        <r>  0.0000  0.0067  0.0000 </r>
        <r>  0.0000  0.0067  0.0000 </r>
       </set>
       <set comment="band 109">
        <r>  0.0000  0.0000  0.0000 </r>
        <r>  0.0000  0.0000  0.0043 </r>
        <r>  0.0000  0.0000  0.0282 </r>
        <r>  0.0000  0.0058  0.0000 </r>
        <r>  0.0000  0.0000  0.0282 </r>
        <r>  0.0000  0.0058  0.0000 </r>
        <r>  0.0000  0.0299  0.0000 </r>
        <r>  0.0966  0.0000  0.0563 </r>
        <r>  0.0018  0.0156  0.0000 </r>
        <r>  0.0018  0.0156  0.0000 </r>
        <r>  0.0018  0.0156  0.0000 </r>
        <r>  0.0018  0.0156  0.0000 </r>
        <r>  0.0018  0.0156  0.0000 </r>
        <r>  0.0018  0.0156  0.0000 </r>
        <r>  0.0018  0.0156  0.0000 </r>
        <r>  0.0018  0.0156  0.0000 </r>
       </set>
       <set comment="band 110">
        <r>  0.0000  0.0000  0.0231 </r>
        <r>  0.0000  0.0000  0.0000 </r>
        <r>  0.0000  0.0007  0.0000 </r>
        <r>  0.0000  0.0000  0.0352 </r>
        <r>  0.0000  0.0007  0.0000 </r>
        <r>  0.0000  0.0000  0.0352 </r>
        <r>  0.1360  0.0000  0.0079 </r>
        <r>  0.0000  0.0021  0.0000 </r>
        <r>  0.0001  0.0221  0.0000 </r>
        <r>  0.0001  0.0221  0.0000 </r>
        <r>  0.0001  0.0221  0.0000 </r>
        <r>  0.0001  0.0221  0.0000 </r>
        <r>  0.0001  0.0221  0.0000 </r>
        <r>  0.0001  0.0221  0.0000 </r>
        <r>  0.0001  0.0221  0.0000 </r>
        <r>  0.0001  0.0221  0.0000 </r>
       </set>
       <set comment="band 111">
        <r>  0.0000  0.0342  0.0000 </r>
        <r>  0.0000  0.0000  0.0720 </r>
        <r>  0.0932  0.0000  0.0474 </r>
        <r>  0.0000  0.0075  0.0000 </r>
        <r>  0.0185  0.0000  0.0095 </r>
        <r>  0.0000  0.0015  0.0000 </r>
        <r>  0.0000  0.0273  0.0000 </r>
        <r>  0.0000  0.0000  0.0003 </r>
        <r>  0.0002  0.0113  0.0000 </r>
        <r>  0.0002  0.0113  0.0000 </r>
        <r>  0.0004  0.0188  0.0000 </r>
        <r>  0.0004  0.0188  0.0000 </r>
        <r>  0.0004  0.0188  0.0000 </r>
        <r>  0.0004  0.0188  0.0000 </r>
        <r>  0.0002  0.0113  0.0000 </r>
        <r>  0.0002  0.0113  0.0000 </r>
       </set>
       <set comment="band 112">
        <r>  0.0000  0.0342  0.0000 </r>
        <r>  0.0000  0.0000  0.0720 </r>
        <r>  0.0185  0.0000  0.0095 </r>
        <r>  0.0000  0.0015  0.0000 </r>
        <r>  0.0932  0.0000  0.0474 </r>
        <r>  0.0000  0.0075  0.0000 </r>
        <r>  0.0000  0.0273  0.0000 </r>
        <r>  0.0000  0.0000  0.0003 </r>
        <r>  0.0004  0.0188  0.0000 </r>
        <r>  0.0004  0.0188  0.0000 </r>
        <r>  0.0002  0.0113  0.0000 </r>
        <r>  0.0002  0.0113  0.0000 </r>
        <r>  0.0002  0.0113  0.0000 </r>
        <r>  0.0002  0.0113  0.0000 </r>
        <r>  0.0004  0.0188  0.0000 </r>
        <r>  0.0004  0.0188  0.0000 </r>
       </set>
       <set comment="band 113">
        <r>  0.0198  0.0000  0.0384 </r>
        <r>  0.0000  0.0901  0.0000 </r>
        <r>  0.0000  0.0261  0.0000 </r>
        <r>  0.0000  0.0000  0.0006 </r>
        <r>  0.0000  0.0261  0.0000 </r>
        <r>  0.0000  0.0000  0.0006 </r>
        <r>  0.0000  0.0000  0.0827 </r>
        <r>  0.0000  0.0000  0.0000 </r>
        <r>  0.0075  0.0033  0.0000 </r>
        <r>  0.0075  0.0033  0.0000 </r>
        <r>  0.0075  0.0033  0.0000 </r>
        <r>  0.0075  0.0033  0.0000 </r>
        <r>  0.0075  0.0033  0.0000 </r>
        <r>  0.0075  0.0033  0.0000 </r>
        <r>  0.0075  0.0033  0.0000 </r>
        <r>  0.0075  0.0033  0.0000 </r>
       </set>
       <set comment="band 114">
        <r>  0.0000  0.0323  0.0000 </r>
        <r>  0.1308  0.0000  0.0020 </r>
        <r>  0.0000  0.0000  0.0197 </r>
        <r>  0.0000  0.0006  0.0000 </r>
        <r>  0.0000  0.0000  0.0197 </r>
        <r>  0.0000  0.0006  0.0000 </r>
        <r>  0.0000  0.0000  0.0000 </r>
        <r>  0.0000  0.0000  0.0713 </r>
        <r>  0.0001  0.0239  0.0000 </r>
        <r>  0.0001  0.0239  0.0000 </r>
        <r>  0.0001  0.0239  0.0000 </r>
        <r>  0.0001  0.0239  0.0000 </r>
        <r>  0.0001  0.0239  0.0000 </r>
        <r>  0.0001  0.0239  0.0000 </r>
        <r>  0.0001  0.0239  0.0000 </r>
        <r>  0.0001  0.0239  0.0000 </r>
       </set>
       <set comment="band 115">
        <r>  0.0000  0.0000  0.0219 </r>
        <r>  0.0000  0.0647  0.0000 </r>
        <r>  0.0000  0.0005  0.0000 </r>
        <r>  0.0001  0.0000  0.0180 </r>
        <r>  0.0000  0.0141  0.0000 </r>
        <r>  0.0017  0.0000  0.1081 </r>
        <r>  0.0000  0.0000  0.0828 </r>
        <r>  0.0000  0.0342  0.0000 </r>
        <r>  0.0000  0.0026  0.0000 </r>
        <r>  0.0000  0.0026  0.0000 </r>
        <r>  0.0000  0.0026  0.0000 </r>
        <r>  0.0000  0.0026  0.0000 </r>
        <r>  0.0000  0.0026  0.0000 </r>
        <r>  0.0000  0.0026  0.0000 </r>
        <r>  0.0000  0.0026  0.0000 </r>
        <r>  0.0000  0.0026  0.0000 </r>
       </set>
       <set comment="band 116">
        <r>  0.0000  0.0000  0.0219 </r>
        <r>  0.0000  0.0647  0.0000 </r>
        <r>  0.0000  0.0141  0.0000 </r>
        <r>  0.0017  0.0000  0.1081 </r>
        <r>  0.0000  0.0005  0.0000 </r>
        <r>  0.0001  0.0000  0.0180 </r>
        <r>  0.0000  0.0000  0.0828 </r>
        <r>  0.0000  0.0342  0.0000 </r>
        <r>  0.0000  0.0026  0.0000 </r>
        <r>  0.0000  0.0026  0.0000 </r>
        <r>  0.0000  0.0026  0.0000 </r>
        <r>  0.0000  0.0026  0.0000 </r>
        <r>  0.0000  0.0026  0.0000 </r>
        <r>  0.0000  0.0026  0.0000 </r>
        <r>  0.0000  0.0026  0.0000 </r>
        <r>  0.0000  0.0026  0.0000 </r>
       </set>
       <set comment="band 117">
        <r>  0.0000  0.0000  0.0000 </r>
        <r>  0.0000  0.0005  0.0000 </r>
        <r>  0.0000  0.0544  0.0000 </r>
        <r>  0.0438  0.0000  0.0513 </r>
        <r>  0.0000  0.0078  0.0000 </r>
        <r>  0.0063  0.0000  0.1197 </r>
        <r>  0.0000  0.0000  0.0120 </r>
        <r>  0.0000  0.0194  0.0000 </r>
        <r>  0.0003  0.0038  0.0000 </r>
        <r>  0.0003  0.0038  0.0000 </r>
        <r>  0.0012  0.0134  0.0000 </r>
        <r>  0.0012  0.0134  0.0000 </r>
        <r>  0.0012  0.0134  0.0000 </r>
        <r>  0.0012  0.0134  0.0000 </r>
        <r>  0.0003  0.0038  0.0000 </r>
        <r>  0.0003  0.0038  0.0000 </r>
       </set>
       <set comment="band 118">
        <r>  0.0000  0.0000  0.0000 </r>
        <r>  0.0000  0.0005  0.0000 </r>
        <r>  0.0000  0.0078  0.0000 </r>
        <r>  0.0063  0.0000  0.1197 </r>
        <r>  0.0000  0.0544  0.0000 </r>
        <r>  0.0438  0.0000  0.0513 </r>
        <r>  0.0000  0.0000  0.0120 </r>
        <r>  0.0000  0.0194  0.0000 </r>
        <r>  0.0012  0.0134  0.0000 </r>
        <r>  0.0012  0.0134  0.0000 </r>
        <r>  0.0003  0.0038  0.0000 </r>
        <r>  0.0003  0.0038  0.0000 </r>
        <r>  0.0003  0.0038  0.0000 </r>
        <r>  0.0003  0.0038  0.0000 </r>
        <r>  0.0012  0.0134  0.0000 </r>
        <r>  0.0012  0.0134  0.0000 </r>
       </set>
       <set comment="band 119">
        <r>  0.0000  0.0001  0.0000 </r>
        <r>  0.0000  0.0000  0.0007 </r>
        <r>  0.0071  0.0000  0.1082 </r>
        <r>  0.0000  0.0098  0.0000 </r>
        <r>  0.0372  0.0000  0.0565 </r>
        <r>  0.0000  0.0513  0.0000 </r>
        <r>  0.0000  0.0262  0.0000 </r>
        <r>  0.0000  0.0000  0.0183 </r>
        <r>  0.0015  0.0128  0.0000 </r>
        <r>  0.0015  0.0128  0.0000 </r>
        <r>  0.0003  0.0027  0.0000 </r>
        <r>  0.0003  0.0027  0.0000 </r>
        <r>  0.0003  0.0027  0.0000 </r>
        <r>  0.0003  0.0027  0.0000 </r>
        <r>  0.0015  0.0128  0.0000 </r>
        <r>  0.0015  0.0128  0.0000 </r>
       </set>
       <set comment="band 120">
        <r>  0.0000  0.0001  0.0000 </r>
        <r>  0.0000  0.0000  0.0007 </r>
        <r>  0.0372  0.0000  0.0565 </r>
        <r>  0.0000  0.0513  0.0000 </r>
        <r>  0.0071  0.0000  0.1082 </r>
        <r>  0.0000  0.0098  0.0000 </r>
        <r>  0.0000  0.0262  0.0000 </r>
        <r>  0.0000  0.0000  0.0183 </r>
        <r>  0.0003  0.0027  0.0000 </r>
        <r>  0.0003  0.0027  0.0000 </r>
        <r>  0.0015  0.0128  0.0000 </r>
        <r>  0.0015  0.0128  0.0000 </r>
        <r>  0.0015  0.0128  0.0000 </r>
        <r>  0.0015  0.0128  0.0000 </r>
        <r>  0.0003  0.0027  0.0000 </r>
        <r>  0.0003  0.0027  0.0000 </r>
       </set>
       <set comment="band 121">
        <r>  0.0000  0.0000  0.0000 </r>
        <r>  0.0000  0.0000  0.1402 </r>
        <r>  0.0000  0.0000  0.0032 </r>
        <r>  0.0000  0.0067  0.0000 </r>
        <r>  0.0000  0.0000  0.0032 </r>
        <r>  0.0000  0.0067  0.0000 </r>
        <r>  0.0000  0.0641  0.0000 </r>
        <r>  0.0544  0.0000  0.0346 </r>
        <r>  0.0007  0.0090  0.0000 </r>
        <r>  0.0007  0.0090  0.0000 </r>
        <r>  0.0007  0.0090  0.0000 </r>
        <r>  0.0007  0.0090  0.0000 </r>
        <r>  0.0007  0.0090  0.0000 </r>
        <r>  0.0007  0.0090  0.0000 </r>
        <r>  0.0007  0.0090  0.0000 </r>
        <r>  0.0007  0.0090  0.0000 </r>
       </set>
       <set comment="band 122">
        <r>  0.0000  0.0000  0.0000 </r>
        <r>  0.0000  0.0000  0.0000 </r>
        <r>  0.0000  0.0694  0.0000 </r>
        <r>  0.0000  0.0000  0.0675 </r>
        <r>  0.0000  0.0694  0.0000 </r>
        <r>  0.0000  0.0000  0.0675 </r>
        <r>  0.0000  0.0000  0.1222 </r>
        <r>  0.0000  0.0000  0.0000 </r>
        <r>  0.0000  0.0019  0.0000 </r>
        <r>  0.0000  0.0019  0.0000 </r>
        <r>  0.0000  0.0019  0.0000 </r>
        <r>  0.0000  0.0019  0.0000 </r>
        <r>  0.0000  0.0019  0.0000 </r>
        <r>  0.0000  0.0019  0.0000 </r>
        <r>  0.0000  0.0019  0.0000 </r>
        <r>  0.0000  0.0019  0.0000 </r>
       </set>
       <set comment="band 123">
        <r>  0.0000  0.0000  0.0000 </r>
        <r>  0.0000  0.0000  0.0000 </r>
        <r>  0.0000  0.0000  0.0663 </r>
        <r>  0.0000  0.0684  0.0000 </r>
        <r>  0.0000  0.0000  0.0663 </r>
        <r>  0.0000  0.0684  0.0000 </r>
        <r>  0.0000  0.0000  0.0000 </r>
        <r>  0.0000  0.0000  0.1252 </r>
        <r>  0.0000  0.0016  0.0000 </r>
        <r>  0.0000  0.0016  0.0000 </r>
        <r>  0.0000  0.0016  0.0000 </r>
        <r>  0.0000  0.0016  0.0000 </r>
        <r>  0.0000  0.0016  0.0000 </r>
        <r>  0.0000  0.0016  0.0000 </r>
        <r>  0.0000  0.0016  0.0000 </r>
        <r>  0.0000  0.0016  0.0000 </r>
       </set>
       <set comment="band 124">
        <r>  0.0000  0.0000  0.0000 </r>
        <r>  0.0000  0.0000  0.1249 </r>
        <r>  0.0000  0.0000  0.0643 </r>
        <r>  0.0000  0.0697  0.0000 </r>
        <r>  0.0000  0.0000  0.0643 </r>
        <r>  0.0000  0.0697  0.0000 </r>
        <r>  0.0000  0.0000  0.0000 </r>
        <r>  0.0000  0.0000  0.0000 </r>
        <r>  0.0000  0.0016  0.0000 </r>
        <r>  0.0000  0.0016  0.0000 </r>
        <r>  0.0000  0.0016  0.0000 </r>
        <r>  0.0000  0.0016  0.0000 </r>
        <r>  0.0000  0.0016  0.0000 </r>
        <r>  0.0000  0.0016  0.0000 </r>
        <r>  0.0000  0.0016  0.0000 </r>
        <r>  0.0000  0.0016  0.0000 </r>
       </set>
       <set comment="band 125">
        <r>  0.0007  0.0000  0.0320 </r>
        <r>  0.0000  0.0020  0.0000 </r>
        <r>  0.0000  0.0093  0.0000 </r>
        <r>  0.0000  0.0000  0.0113 </r>
        <r>  0.0000  0.0093  0.0000 </r>
        <r>  0.0000  0.0000  0.0113 </r>
        <r>  0.0000  0.0000  0.0440 </r>
        <r>  0.0000  0.0000  0.0000 </r>
        <r>  0.0025  0.0140  0.0000 </r>
        <r>  0.0025  0.0140  0.0000 </r>
        <r>  0.0025  0.0140  0.0000 </r>
        <r>  0.0025  0.0140  0.0000 </r>
        <r>  0.0025  0.0140  0.0000 </r>
        <r>  0.0025  0.0140  0.0000 </r>
        <r>  0.0025  0.0140  0.0000 </r>
        <r>  0.0025  0.0140  0.0000 </r>
       </set>
       <set comment="band 126">
        <r>  0.0000  0.0253  0.0000 </r>
        <r>  0.0000  0.0000  0.0457 </r>
        <r>  0.0000  0.0000  0.0338 </r>
        <r>  0.0000  0.0000  0.0000 </r>
        <r>  0.0001  0.0000  0.0380 </r>
        <r>  0.0000  0.0000  0.0000 </r>
        <r>  0.0000  0.0340  0.0000 </r>
        <r>  0.0000  0.0000  0.0011 </r>
        <r>  0.0060  0.0079  0.0000 </r>
        <r>  0.0056  0.0079  0.0000 </r>
        <r>  0.0020  0.0171  0.0000 </r>
        <r>  0.0019  0.0162  0.0000 </r>
        <r>  0.0019  0.0171  0.0000 </r>
        <r>  0.0019  0.0162  0.0000 </r>
        <r>  0.0061  0.0079  0.0000 </r>
        <r>  0.0057  0.0079  0.0000 </r>
       </set>
       <set comment="band 127">
        <r>  0.0000  0.0254  0.0000 </r>
        <r>  0.0000  0.0000  0.0458 </r>
        <r>  0.0001  0.0000  0.0379 </r>
        <r>  0.0000  0.0000  0.0000 </r>
        <r>  0.0000  0.0000  0.0337 </r>
        <r>  0.0000  0.0000  0.0000 </r>
        <r>  0.0000  0.0339  0.0001 </r>
        <r>  0.0000  0.0000  0.0010 </r>
        <r>  0.0020  0.0165  0.0000 </r>
        <r>  0.0021  0.0167  0.0000 </r>
        <r>  0.0056  0.0076  0.0000 </r>
        <r>  0.0057  0.0081  0.0000 </r>
        <r>  0.0060  0.0076  0.0000 </r>
        <r>  0.0061  0.0081  0.0000 </r>
        <r>  0.0018  0.0165  0.0000 </r>
        <r>  0.0020  0.0167  0.0000 </r>
       </set>
       <set comment="band 128">
        <r>  0.0000  0.0000  0.0110 </r>
        <r>  0.0000  0.0315  0.0000 </r>
        <r>  0.0000  0.0004  0.0000 </r>
        <r>  0.0001  0.0000  0.0251 </r>
        <r>  0.0000  0.0006  0.0000 </r>
        <r>  0.0002  0.0000  0.0422 </r>
        <r>  0.0000  0.0000  0.0236 </r>
        <r>  0.0000  0.0040  0.0000 </r>
        <r>  0.0007  0.0225  0.0000 </r>
        <r>  0.0010  0.0227  0.0000 </r>
        <r>  0.0118  0.0032  0.0000 </r>
        <r>  0.0094  0.0026  0.0000 </r>
        <r>  0.0093  0.0025  0.0000 </r>
        <r>  0.0117  0.0032  0.0000 </r>
        <r>  0.0010  0.0227  0.0000 </r>
        <r>  0.0007  0.0226  0.0000 </r>
       </set>
      </set>
     </set>
    </set>
   </array>
  </projected>
 </calculation>
 <structure name="finalpos" >
  <crystal>
   <varray name="basis" >
    <v>       5.60695197       0.00000000       0.00000000 </v>
    <v>       0.00000000       5.60695197       0.00000000 </v>
    <v>       0.00000000       0.00000000       8.24170653 </v>
   </varray>
   <i name="volume">    259.10203137 </i>
   <varray name="rec_basis" >
    <v>       0.17835002       0.00000000       0.00000000 </v>
    <v>       0.00000000       0.17835002       0.00000000 </v>
    <v>       0.00000000       0.00000000       0.12133409 </v>
   </varray>
  </crystal>
  <varray name="positions" >
   <v>       0.00000000       0.00000000       0.00000000 </v>
   <v>       0.00000000       0.00000000       0.50000000 </v>
   <v>       0.00000000       0.50000000       0.00000000 </v>
   <v>       0.00000000       0.50000000       0.50000000 </v>
   <v>       0.50000000       0.00000000       0.00000000 </v>
   <v>       0.50000000       0.00000000       0.50000000 </v>
   <v>       0.50000000       0.50000000       0.00000000 </v>
   <v>       0.50000000       0.50000000       0.50000000 </v>
   <v>       0.25094688       0.25094688       0.25207123 </v>
   <v>       0.25094688       0.25094688       0.74792877 </v>
   <v>       0.25094688       0.74905312       0.25207123 </v>
   <v>       0.25094688       0.74905312       0.74792877 </v>
   <v>       0.74905312       0.25094688       0.25207123 </v>
   <v>       0.74905312       0.25094688       0.74792877 </v>
   <v>       0.74905312       0.74905312       0.25207123 </v>
   <v>       0.74905312       0.74905312       0.74792877 </v>
  </varray>
 </structure>
</modeling>
