  16  16   1   0
  0.1621382E+02  0.5650682E-09  0.5650682E-09  0.8124629E-09  0.5000000E-15
  1.000000000000000E-004
  CAR 
 unknown system                          
     25.46176788    -51.81390514 1000      8.32717560      1.00000000
    -51.814  0.0000E+00  0.0000E+00
    -51.737  0.0000E+00  0.0000E+00
    -51.659  0.0000E+00  0.0000E+00
    -51.582  0.0000E+00  0.0000E+00
    -51.504  0.0000E+00  0.0000E+00
    -51.427  0.0000E+00  0.0000E+00
    -51.350  0.0000E+00  0.0000E+00
    -51.272  0.0000E+00  0.0000E+00
    -51.195  0.0000E+00  0.0000E+00
    -51.118  0.0000E+00  0.0000E+00
    -51.040  0.0000E+00  0.0000E+00
    -50.963  0.0000E+00  0.0000E+00
    -50.886  0.0000E+00  0.0000E+00
    -50.808  0.0000E+00  0.0000E+00
    -50.731  0.0000E+00  0.0000E+00
    -50.654  0.0000E+00  0.0000E+00
    -50.576  0.0000E+00  0.0000E+00
    -50.499  0.0000E+00  0.0000E+00
    -50.422  0.0000E+00  0.0000E+00
    -50.344  0.0000E+00  0.0000E+00
    -50.267  0.0000E+00  0.0000E+00
    -50.189  0.0000E+00  0.0000E+00
    -50.112  0.0000E+00  0.0000E+00
    -50.035  0.0000E+00  0.0000E+00
    -49.957  0.0000E+00  0.0000E+00
    -49.880  0.0000E+00  0.0000E+00
    -49.803  0.0000E+00  0.0000E+00
    -49.725  0.0000E+00  0.0000E+00
    -49.648  0.0000E+00  0.0000E+00
    -49.571  0.0000E+00  0.0000E+00
    -49.493  0.0000E+00  0.0000E+00
    -49.416  0.0000E+00  0.0000E+00
    -49.339  0.0000E+00  0.0000E+00
    -49.261  0.0000E+00  0.0000E+00
    -49.184  0.0000E+00  0.0000E+00
    -49.107 -0.1154E-26 -0.8927E-28
    -49.029 -0.1650E-21 -0.1276E-22
    -48.952 -0.7147E-17 -0.5528E-18
    -48.874 -0.9127E-13 -0.7061E-14
    -48.797 -0.3600E-09 -0.2785E-10
    -48.720 -0.4307E-06 -0.3335E-07
    -48.642 -0.1558E-03 -0.1209E-04
    -48.565 -0.1688E-01 -0.1318E-02
    -48.488 -0.5242E+00 -0.4187E-01
    -48.410 -0.3688E+01 -0.3272E+00
    -48.333  0.8504E+01  0.3307E+00
    -48.256  0.8159E+02  0.6642E+01
    -48.178  0.1020E+03  0.1454E+02
    -48.101  0.2423E+02  0.1641E+02
    -48.024 -0.4130E+01  0.1609E+02
    -47.946 -0.1112E+01  0.1600E+02
    -47.869 -0.5247E-01  0.1600E+02
    -47.792 -0.6859E-03  0.1600E+02
    -47.714 -0.2664E-05  0.1600E+02
    -47.637 -0.3124E-08  0.1600E+02
    -47.559 -0.1109E-11  0.1600E+02
    -47.482  0.0000E+00  0.1600E+02
    -47.405  0.0000E+00  0.1600E+02
    -47.327  0.0000E+00  0.1600E+02
    -47.250  0.0000E+00  0.1600E+02
    -47.173  0.0000E+00  0.1600E+02
    -47.095  0.0000E+00  0.1600E+02
    -47.018  0.0000E+00  0.1600E+02
    -46.941  0.0000E+00  0.1600E+02
    -46.863  0.0000E+00  0.1600E+02
    -46.786  0.0000E+00  0.1600E+02
    -46.709  0.0000E+00  0.1600E+02
    -46.631  0.0000E+00  0.1600E+02
    -46.554  0.0000E+00  0.1600E+02
    -46.477  0.0000E+00  0.1600E+02
    -46.399  0.0000E+00  0.1600E+02
    -46.322  0.0000E+00  0.1600E+02
    -46.244  0.0000E+00  0.1600E+02
    -46.167  0.0000E+00  0.1600E+02
    -46.090  0.0000E+00  0.1600E+02
    -46.012  0.0000E+00  0.1600E+02
    -45.935  0.0000E+00  0.1600E+02
    -45.858  0.0000E+00  0.1600E+02
    -45.780  0.0000E+00  0.1600E+02
    -45.703  0.0000E+00  0.1600E+02
    -45.626  0.0000E+00  0.1600E+02
    -45.548  0.0000E+00  0.1600E+02
    -45.471  0.0000E+00  0.1600E+02
    -45.394  0.0000E+00  0.1600E+02
    -45.316  0.0000E+00  0.1600E+02
    -45.239  0.0000E+00  0.1600E+02
    -45.162  0.0000E+00  0.1600E+02
    -45.084  0.0000E+00  0.1600E+02
    -45.007  0.0000E+00  0.1600E+02
    -44.929  0.0000E+00  0.1600E+02
    -44.852  0.0000E+00  0.1600E+02
    -44.775  0.0000E+00  0.1600E+02
    -44.697  0.0000E+00  0.1600E+02
    -44.620  0.0000E+00  0.1600E+02
    -44.543  0.0000E+00  0.1600E+02
    -44.465  0.0000E+00  0.1600E+02
    -44.388  0.0000E+00  0.1600E+02
    -44.311  0.0000E+00  0.1600E+02
    -44.233  0.0000E+00  0.1600E+02
    -44.156  0.0000E+00  0.1600E+02
    -44.079  0.0000E+00  0.1600E+02
    -44.001  0.0000E+00  0.1600E+02
    -43.924  0.0000E+00  0.1600E+02
    -43.847  0.0000E+00  0.1600E+02
    -43.769  0.0000E+00  0.1600E+02
    -43.692  0.0000E+00  0.1600E+02
    -43.614  0.0000E+00  0.1600E+02
    -43.537  0.0000E+00  0.1600E+02
    -43.460  0.0000E+00  0.1600E+02
    -43.382  0.0000E+00  0.1600E+02
    -43.305  0.0000E+00  0.1600E+02
    -43.228  0.0000E+00  0.1600E+02
    -43.150  0.0000E+00  0.1600E+02
    -43.073  0.0000E+00  0.1600E+02
    -42.996  0.0000E+00  0.1600E+02
    -42.918  0.0000E+00  0.1600E+02
    -42.841  0.0000E+00  0.1600E+02
    -42.764  0.0000E+00  0.1600E+02
    -42.686  0.0000E+00  0.1600E+02
    -42.609  0.0000E+00  0.1600E+02
    -42.532  0.0000E+00  0.1600E+02
    -42.454  0.0000E+00  0.1600E+02
    -42.377  0.0000E+00  0.1600E+02
    -42.299  0.0000E+00  0.1600E+02
    -42.222  0.0000E+00  0.1600E+02
    -42.145  0.0000E+00  0.1600E+02
    -42.067  0.0000E+00  0.1600E+02
    -41.990  0.0000E+00  0.1600E+02
    -41.913  0.0000E+00  0.1600E+02
    -41.835  0.0000E+00  0.1600E+02
    -41.758  0.0000E+00  0.1600E+02
    -41.681  0.0000E+00  0.1600E+02
    -41.603  0.0000E+00  0.1600E+02
    -41.526  0.0000E+00  0.1600E+02
    -41.449  0.0000E+00  0.1600E+02
    -41.371  0.0000E+00  0.1600E+02
    -41.294  0.0000E+00  0.1600E+02
    -41.217  0.0000E+00  0.1600E+02
    -41.139  0.0000E+00  0.1600E+02
    -41.062  0.0000E+00  0.1600E+02
    -40.984  0.0000E+00  0.1600E+02
    -40.907  0.0000E+00  0.1600E+02
    -40.830  0.0000E+00  0.1600E+02
    -40.752  0.0000E+00  0.1600E+02
    -40.675  0.0000E+00  0.1600E+02
    -40.598  0.0000E+00  0.1600E+02
    -40.520  0.0000E+00  0.1600E+02
    -40.443  0.0000E+00  0.1600E+02
    -40.366  0.0000E+00  0.1600E+02
    -40.288  0.0000E+00  0.1600E+02
    -40.211  0.0000E+00  0.1600E+02
    -40.134  0.0000E+00  0.1600E+02
    -40.056  0.0000E+00  0.1600E+02
    -39.979  0.0000E+00  0.1600E+02
    -39.902  0.0000E+00  0.1600E+02
    -39.824  0.0000E+00  0.1600E+02
    -39.747  0.0000E+00  0.1600E+02
    -39.669  0.0000E+00  0.1600E+02
    -39.592  0.0000E+00  0.1600E+02
    -39.515  0.0000E+00  0.1600E+02
    -39.437  0.0000E+00  0.1600E+02
    -39.360  0.0000E+00  0.1600E+02
    -39.283  0.0000E+00  0.1600E+02
    -39.205  0.0000E+00  0.1600E+02
    -39.128  0.0000E+00  0.1600E+02
    -39.051  0.0000E+00  0.1600E+02
    -38.973  0.0000E+00  0.1600E+02
    -38.896  0.0000E+00  0.1600E+02
    -38.819  0.0000E+00  0.1600E+02
    -38.741  0.0000E+00  0.1600E+02
    -38.664  0.0000E+00  0.1600E+02
    -38.587  0.0000E+00  0.1600E+02
    -38.509  0.0000E+00  0.1600E+02
    -38.432  0.0000E+00  0.1600E+02
    -38.354  0.0000E+00  0.1600E+02
    -38.277  0.0000E+00  0.1600E+02
    -38.200  0.0000E+00  0.1600E+02
    -38.122  0.0000E+00  0.1600E+02
    -38.045  0.0000E+00  0.1600E+02
    -37.968  0.0000E+00  0.1600E+02
    -37.890  0.0000E+00  0.1600E+02
    -37.813  0.0000E+00  0.1600E+02
    -37.736  0.0000E+00  0.1600E+02
    -37.658  0.0000E+00  0.1600E+02
    -37.581  0.0000E+00  0.1600E+02
    -37.504  0.0000E+00  0.1600E+02
    -37.426  0.0000E+00  0.1600E+02
    -37.349  0.0000E+00  0.1600E+02
    -37.272  0.0000E+00  0.1600E+02
    -37.194  0.0000E+00  0.1600E+02
    -37.117  0.0000E+00  0.1600E+02
    -37.039  0.0000E+00  0.1600E+02
    -36.962  0.0000E+00  0.1600E+02
    -36.885  0.0000E+00  0.1600E+02
    -36.807  0.0000E+00  0.1600E+02
    -36.730  0.0000E+00  0.1600E+02
    -36.653  0.0000E+00  0.1600E+02
    -36.575  0.0000E+00  0.1600E+02
    -36.498  0.0000E+00  0.1600E+02
    -36.421  0.0000E+00  0.1600E+02
    -36.343  0.0000E+00  0.1600E+02
    -36.266  0.0000E+00  0.1600E+02
    -36.189  0.0000E+00  0.1600E+02
    -36.111  0.0000E+00  0.1600E+02
    -36.034  0.0000E+00  0.1600E+02
    -35.957  0.0000E+00  0.1600E+02
    -35.879  0.0000E+00  0.1600E+02
    -35.802  0.0000E+00  0.1600E+02
    -35.724  0.0000E+00  0.1600E+02
    -35.647  0.0000E+00  0.1600E+02
    -35.570  0.0000E+00  0.1600E+02
    -35.492  0.0000E+00  0.1600E+02
    -35.415  0.0000E+00  0.1600E+02
    -35.338  0.0000E+00  0.1600E+02
    -35.260  0.0000E+00  0.1600E+02
    -35.183  0.0000E+00  0.1600E+02
    -35.106  0.0000E+00  0.1600E+02
    -35.028  0.0000E+00  0.1600E+02
    -34.951  0.0000E+00  0.1600E+02
    -34.874  0.0000E+00  0.1600E+02
    -34.796  0.0000E+00  0.1600E+02
    -34.719  0.0000E+00  0.1600E+02
    -34.642  0.0000E+00  0.1600E+02
    -34.564  0.0000E+00  0.1600E+02
    -34.487  0.0000E+00  0.1600E+02
    -34.409  0.0000E+00  0.1600E+02
    -34.332  0.0000E+00  0.1600E+02
    -34.255  0.0000E+00  0.1600E+02
    -34.177  0.0000E+00  0.1600E+02
    -34.100  0.0000E+00  0.1600E+02
    -34.023  0.0000E+00  0.1600E+02
    -33.945  0.0000E+00  0.1600E+02
    -33.868  0.0000E+00  0.1600E+02
    -33.791  0.0000E+00  0.1600E+02
    -33.713  0.0000E+00  0.1600E+02
    -33.636  0.0000E+00  0.1600E+02
    -33.559  0.0000E+00  0.1600E+02
    -33.481  0.0000E+00  0.1600E+02
    -33.404  0.0000E+00  0.1600E+02
    -33.327  0.0000E+00  0.1600E+02
    -33.249  0.0000E+00  0.1600E+02
    -33.172  0.0000E+00  0.1600E+02
    -33.094  0.0000E+00  0.1600E+02
    -33.017  0.0000E+00  0.1600E+02
    -32.940  0.0000E+00  0.1600E+02
    -32.862  0.0000E+00  0.1600E+02
    -32.785  0.0000E+00  0.1600E+02
    -32.708  0.0000E+00  0.1600E+02
    -32.630  0.0000E+00  0.1600E+02
    -32.553  0.0000E+00  0.1600E+02
    -32.476  0.0000E+00  0.1600E+02
    -32.398  0.0000E+00  0.1600E+02
    -32.321  0.0000E+00  0.1600E+02
    -32.244  0.0000E+00  0.1600E+02
    -32.166  0.0000E+00  0.1600E+02
    -32.089  0.0000E+00  0.1600E+02
    -32.012  0.0000E+00  0.1600E+02
    -31.934  0.0000E+00  0.1600E+02
    -31.857  0.0000E+00  0.1600E+02
    -31.779  0.0000E+00  0.1600E+02
    -31.702  0.0000E+00  0.1600E+02
    -31.625  0.0000E+00  0.1600E+02
    -31.547  0.0000E+00  0.1600E+02
    -31.470  0.0000E+00  0.1600E+02
    -31.393  0.0000E+00  0.1600E+02
    -31.315  0.0000E+00  0.1600E+02
    -31.238  0.0000E+00  0.1600E+02
    -31.161  0.0000E+00  0.1600E+02
    -31.083  0.0000E+00  0.1600E+02
    -31.006  0.0000E+00  0.1600E+02
    -30.929  0.0000E+00  0.1600E+02
    -30.851  0.0000E+00  0.1600E+02
    -30.774  0.0000E+00  0.1600E+02
    -30.697  0.0000E+00  0.1600E+02
    -30.619  0.0000E+00  0.1600E+02
    -30.542  0.0000E+00  0.1600E+02
    -30.464  0.0000E+00  0.1600E+02
    -30.387  0.0000E+00  0.1600E+02
    -30.310  0.0000E+00  0.1600E+02
    -30.232  0.0000E+00  0.1600E+02
    -30.155  0.0000E+00  0.1600E+02
    -30.078  0.0000E+00  0.1600E+02
    -30.000  0.0000E+00  0.1600E+02
    -29.923  0.0000E+00  0.1600E+02
    -29.846  0.0000E+00  0.1600E+02
    -29.768  0.0000E+00  0.1600E+02
    -29.691  0.0000E+00  0.1600E+02
    -29.614  0.0000E+00  0.1600E+02
    -29.536  0.0000E+00  0.1600E+02
    -29.459  0.0000E+00  0.1600E+02
    -29.382  0.0000E+00  0.1600E+02
    -29.304  0.0000E+00  0.1600E+02
    -29.227  0.0000E+00  0.1600E+02
    -29.149  0.0000E+00  0.1600E+02
    -29.072  0.0000E+00  0.1600E+02
    -28.995  0.0000E+00  0.1600E+02
    -28.917  0.0000E+00  0.1600E+02
    -28.840  0.0000E+00  0.1600E+02
    -28.763  0.0000E+00  0.1600E+02
    -28.685  0.0000E+00  0.1600E+02
    -28.608  0.0000E+00  0.1600E+02
    -28.531  0.0000E+00  0.1600E+02
    -28.453  0.0000E+00  0.1600E+02
    -28.376  0.0000E+00  0.1600E+02
    -28.299  0.0000E+00  0.1600E+02
    -28.221  0.0000E+00  0.1600E+02
    -28.144  0.0000E+00  0.1600E+02
    -28.067  0.0000E+00  0.1600E+02
    -27.989  0.0000E+00  0.1600E+02
    -27.912  0.0000E+00  0.1600E+02
    -27.834  0.0000E+00  0.1600E+02
    -27.757  0.0000E+00  0.1600E+02
    -27.680  0.0000E+00  0.1600E+02
    -27.602  0.0000E+00  0.1600E+02
    -27.525  0.0000E+00  0.1600E+02
    -27.448  0.0000E+00  0.1600E+02
    -27.370  0.0000E+00  0.1600E+02
    -27.293  0.0000E+00  0.1600E+02
    -27.216  0.0000E+00  0.1600E+02
    -27.138  0.0000E+00  0.1600E+02
    -27.061  0.0000E+00  0.1600E+02
    -26.984  0.0000E+00  0.1600E+02
    -26.906  0.0000E+00  0.1600E+02
    -26.829  0.0000E+00  0.1600E+02
    -26.752  0.0000E+00  0.1600E+02
    -26.674  0.0000E+00  0.1600E+02
    -26.597  0.0000E+00  0.1600E+02
    -26.519  0.0000E+00  0.1600E+02
    -26.442  0.0000E+00  0.1600E+02
    -26.365  0.0000E+00  0.1600E+02
    -26.287  0.0000E+00  0.1600E+02
    -26.210  0.0000E+00  0.1600E+02
    -26.133  0.0000E+00  0.1600E+02
    -26.055  0.0000E+00  0.1600E+02
    -25.978  0.0000E+00  0.1600E+02
    -25.901  0.0000E+00  0.1600E+02
    -25.823  0.0000E+00  0.1600E+02
    -25.746  0.0000E+00  0.1600E+02
    -25.669  0.0000E+00  0.1600E+02
    -25.591 -0.2474E-31  0.1600E+02
    -25.514 -0.1203E-25  0.1600E+02
    -25.437 -0.1341E-20  0.1600E+02
    -25.359 -0.4562E-16  0.1600E+02
    -25.282 -0.4609E-12  0.1600E+02
    -25.204 -0.1455E-08  0.1600E+02
    -25.127 -0.1408E-05  0.1600E+02
    -25.050 -0.4167E-03  0.1600E+02
    -24.972 -0.3746E-01  0.1600E+02
    -24.895 -0.9792E+00  0.1592E+02
    -24.818 -0.5744E+01  0.1548E+02
    -24.740  0.1621E+02  0.1673E+02
    -24.663  0.1299E+03  0.2678E+02
    -24.586  0.1749E+03  0.4031E+02
    -24.508  0.8039E+02  0.4653E+02
    -24.431  0.4018E+02  0.4963E+02
    -24.354  0.4762E+02  0.5332E+02
    -24.276  0.6769E+02  0.5855E+02
    -24.199  0.5996E+02  0.6319E+02
    -24.122  0.1367E+02  0.6425E+02
    -24.044 -0.2524E+01  0.6405E+02
    -23.967 -0.6716E+00  0.6400E+02
    -23.889 -0.3110E-01  0.6400E+02
    -23.812 -0.3917E-03  0.6400E+02
    -23.735 -0.1447E-05  0.6400E+02
    -23.657 -0.1602E-08  0.6400E+02
    -23.580 -0.5353E-12  0.6400E+02
    -23.503  0.0000E+00  0.6400E+02
    -23.425  0.0000E+00  0.6400E+02
    -23.348  0.0000E+00  0.6400E+02
    -23.271  0.0000E+00  0.6400E+02
    -23.193  0.0000E+00  0.6400E+02
    -23.116  0.0000E+00  0.6400E+02
    -23.039  0.0000E+00  0.6400E+02
    -22.961  0.0000E+00  0.6400E+02
    -22.884  0.0000E+00  0.6400E+02
    -22.807  0.0000E+00  0.6400E+02
    -22.729  0.0000E+00  0.6400E+02
    -22.652  0.0000E+00  0.6400E+02
    -22.574  0.0000E+00  0.6400E+02
    -22.497  0.0000E+00  0.6400E+02
    -22.420  0.0000E+00  0.6400E+02
    -22.342  0.0000E+00  0.6400E+02
    -22.265  0.0000E+00  0.6400E+02
    -22.188  0.0000E+00  0.6400E+02
    -22.110  0.0000E+00  0.6400E+02
    -22.033  0.0000E+00  0.6400E+02
    -21.956  0.0000E+00  0.6400E+02
    -21.878  0.0000E+00  0.6400E+02
    -21.801  0.0000E+00  0.6400E+02
    -21.724  0.0000E+00  0.6400E+02
    -21.646  0.0000E+00  0.6400E+02
    -21.569  0.0000E+00  0.6400E+02
    -21.492  0.0000E+00  0.6400E+02
    -21.414  0.0000E+00  0.6400E+02
    -21.337  0.0000E+00  0.6400E+02
    -21.259  0.0000E+00  0.6400E+02
    -21.182  0.0000E+00  0.6400E+02
    -21.105  0.0000E+00  0.6400E+02
    -21.027  0.0000E+00  0.6400E+02
    -20.950  0.0000E+00  0.6400E+02
    -20.873  0.0000E+00  0.6400E+02
    -20.795  0.0000E+00  0.6400E+02
    -20.718  0.0000E+00  0.6400E+02
    -20.641  0.0000E+00  0.6400E+02
    -20.563  0.0000E+00  0.6400E+02
    -20.486  0.0000E+00  0.6400E+02
    -20.409  0.0000E+00  0.6400E+02
    -20.331  0.0000E+00  0.6400E+02
    -20.254  0.0000E+00  0.6400E+02
    -20.177  0.0000E+00  0.6400E+02
    -20.099  0.0000E+00  0.6400E+02
    -20.022  0.0000E+00  0.6400E+02
    -19.944  0.0000E+00  0.6400E+02
    -19.867  0.0000E+00  0.6400E+02
    -19.790  0.0000E+00  0.6400E+02
    -19.712  0.0000E+00  0.6400E+02
    -19.635  0.0000E+00  0.6400E+02
    -19.558  0.0000E+00  0.6400E+02
    -19.480  0.0000E+00  0.6400E+02
    -19.403  0.0000E+00  0.6400E+02
    -19.326  0.0000E+00  0.6400E+02
    -19.248  0.0000E+00  0.6400E+02
    -19.171  0.0000E+00  0.6400E+02
    -19.094  0.0000E+00  0.6400E+02
    -19.016  0.0000E+00  0.6400E+02
    -18.939  0.0000E+00  0.6400E+02
    -18.862  0.0000E+00  0.6400E+02
    -18.784  0.0000E+00  0.6400E+02
    -18.707  0.0000E+00  0.6400E+02
    -18.629  0.0000E+00  0.6400E+02
    -18.552  0.0000E+00  0.6400E+02
    -18.475  0.0000E+00  0.6400E+02
    -18.397  0.0000E+00  0.6400E+02
    -18.320  0.0000E+00  0.6400E+02
    -18.243  0.0000E+00  0.6400E+02
    -18.165  0.0000E+00  0.6400E+02
    -18.088  0.0000E+00  0.6400E+02
    -18.011  0.0000E+00  0.6400E+02
    -17.933  0.0000E+00  0.6400E+02
    -17.856  0.0000E+00  0.6400E+02
    -17.779  0.0000E+00  0.6400E+02
    -17.701  0.0000E+00  0.6400E+02
    -17.624  0.0000E+00  0.6400E+02
    -17.547  0.0000E+00  0.6400E+02
    -17.469  0.0000E+00  0.6400E+02
    -17.392  0.0000E+00  0.6400E+02
    -17.314  0.0000E+00  0.6400E+02
    -17.237  0.0000E+00  0.6400E+02
    -17.160  0.0000E+00  0.6400E+02
    -17.082  0.0000E+00  0.6400E+02
    -17.005  0.0000E+00  0.6400E+02
    -16.928  0.0000E+00  0.6400E+02
    -16.850  0.0000E+00  0.6400E+02
    -16.773  0.0000E+00  0.6400E+02
    -16.696  0.0000E+00  0.6400E+02
    -16.618  0.0000E+00  0.6400E+02
    -16.541  0.0000E+00  0.6400E+02
    -16.464  0.0000E+00  0.6400E+02
    -16.386  0.0000E+00  0.6400E+02
    -16.309  0.0000E+00  0.6400E+02
    -16.232  0.0000E+00  0.6400E+02
    -16.154  0.0000E+00  0.6400E+02
    -16.077  0.0000E+00  0.6400E+02
    -15.999  0.0000E+00  0.6400E+02
    -15.922  0.0000E+00  0.6400E+02
    -15.845  0.0000E+00  0.6400E+02
    -15.767  0.0000E+00  0.6400E+02
    -15.690  0.0000E+00  0.6400E+02
    -15.613  0.0000E+00  0.6400E+02
    -15.535  0.0000E+00  0.6400E+02
    -15.458  0.0000E+00  0.6400E+02
    -15.381  0.0000E+00  0.6400E+02
    -15.303  0.0000E+00  0.6400E+02
    -15.226  0.0000E+00  0.6400E+02
    -15.149  0.0000E+00  0.6400E+02
    -15.071  0.0000E+00  0.6400E+02
    -14.994  0.0000E+00  0.6400E+02
    -14.917  0.0000E+00  0.6400E+02
    -14.839  0.0000E+00  0.6400E+02
    -14.762  0.0000E+00  0.6400E+02
    -14.684  0.0000E+00  0.6400E+02
    -14.607  0.0000E+00  0.6400E+02
    -14.530  0.0000E+00  0.6400E+02
    -14.452  0.0000E+00  0.6400E+02
    -14.375  0.0000E+00  0.6400E+02
    -14.298  0.0000E+00  0.6400E+02
    -14.220  0.0000E+00  0.6400E+02
    -14.143  0.0000E+00  0.6400E+02
    -14.066  0.0000E+00  0.6400E+02
    -13.988  0.0000E+00  0.6400E+02
    -13.911  0.0000E+00  0.6400E+02
    -13.834  0.0000E+00  0.6400E+02
    -13.756  0.0000E+00  0.6400E+02
    -13.679  0.0000E+00  0.6400E+02
    -13.602  0.0000E+00  0.6400E+02
    -13.524  0.0000E+00  0.6400E+02
    -13.447  0.0000E+00  0.6400E+02
    -13.369  0.0000E+00  0.6400E+02
    -13.292  0.0000E+00  0.6400E+02
    -13.215  0.0000E+00  0.6400E+02
    -13.137  0.0000E+00  0.6400E+02
    -13.060  0.0000E+00  0.6400E+02
    -12.983  0.0000E+00  0.6400E+02
    -12.905  0.0000E+00  0.6400E+02
    -12.828  0.0000E+00  0.6400E+02
    -12.751  0.0000E+00  0.6400E+02
    -12.673  0.0000E+00  0.6400E+02
    -12.596  0.0000E+00  0.6400E+02
    -12.519  0.0000E+00  0.6400E+02
    -12.441  0.0000E+00  0.6400E+02
    -12.364  0.0000E+00  0.6400E+02
    -12.287  0.0000E+00  0.6400E+02
    -12.209  0.0000E+00  0.6400E+02
    -12.132  0.0000E+00  0.6400E+02
    -12.054  0.0000E+00  0.6400E+02
    -11.977  0.0000E+00  0.6400E+02
    -11.900  0.0000E+00  0.6400E+02
    -11.822  0.0000E+00  0.6400E+02
    -11.745  0.0000E+00  0.6400E+02
    -11.668  0.0000E+00  0.6400E+02
    -11.590  0.0000E+00  0.6400E+02
    -11.513  0.0000E+00  0.6400E+02
    -11.436  0.0000E+00  0.6400E+02
    -11.358  0.0000E+00  0.6400E+02
    -11.281  0.0000E+00  0.6400E+02
    -11.204  0.0000E+00  0.6400E+02
    -11.126  0.0000E+00  0.6400E+02
    -11.049  0.0000E+00  0.6400E+02
    -10.972  0.0000E+00  0.6400E+02
    -10.894  0.0000E+00  0.6400E+02
    -10.817  0.0000E+00  0.6400E+02
    -10.739  0.0000E+00  0.6400E+02
    -10.662  0.0000E+00  0.6400E+02
    -10.585  0.0000E+00  0.6400E+02
    -10.507  0.0000E+00  0.6400E+02
    -10.430  0.0000E+00  0.6400E+02
    -10.353  0.0000E+00  0.6400E+02
    -10.275  0.0000E+00  0.6400E+02
    -10.198  0.0000E+00  0.6400E+02
    -10.121  0.0000E+00  0.6400E+02
    -10.043  0.0000E+00  0.6400E+02
     -9.966  0.0000E+00  0.6400E+02
     -9.889  0.0000E+00  0.6400E+02
     -9.811  0.0000E+00  0.6400E+02
     -9.734  0.0000E+00  0.6400E+02
     -9.657  0.0000E+00  0.6400E+02
     -9.579  0.0000E+00  0.6400E+02
     -9.502  0.0000E+00  0.6400E+02
     -9.424  0.0000E+00  0.6400E+02
     -9.347  0.0000E+00  0.6400E+02
     -9.270  0.0000E+00  0.6400E+02
     -9.192  0.0000E+00  0.6400E+02
     -9.115  0.0000E+00  0.6400E+02
     -9.038  0.0000E+00  0.6400E+02
     -8.960  0.0000E+00  0.6400E+02
     -8.883  0.0000E+00  0.6400E+02
     -8.806  0.0000E+00  0.6400E+02
     -8.728  0.0000E+00  0.6400E+02
     -8.651  0.0000E+00  0.6400E+02
     -8.574  0.0000E+00  0.6400E+02
     -8.496  0.0000E+00  0.6400E+02
     -8.419  0.0000E+00  0.6400E+02
     -8.342  0.0000E+00  0.6400E+02
     -8.264  0.0000E+00  0.6400E+02
     -8.187  0.0000E+00  0.6400E+02
     -8.109  0.0000E+00  0.6400E+02
     -8.032  0.0000E+00  0.6400E+02
     -7.955  0.0000E+00  0.6400E+02
     -7.877  0.0000E+00  0.6400E+02
     -7.800  0.0000E+00  0.6400E+02
     -7.723  0.0000E+00  0.6400E+02
     -7.645  0.0000E+00  0.6400E+02
     -7.568  0.0000E+00  0.6400E+02
     -7.491  0.0000E+00  0.6400E+02
     -7.413  0.0000E+00  0.6400E+02
     -7.336  0.0000E+00  0.6400E+02
     -7.259  0.0000E+00  0.6400E+02
     -7.181  0.0000E+00  0.6400E+02
     -7.104  0.0000E+00  0.6400E+02
     -7.027  0.0000E+00  0.6400E+02
     -6.949  0.0000E+00  0.6400E+02
     -6.872  0.0000E+00  0.6400E+02
     -6.794  0.0000E+00  0.6400E+02
     -6.717  0.0000E+00  0.6400E+02
     -6.640  0.0000E+00  0.6400E+02
     -6.562  0.0000E+00  0.6400E+02
     -6.485  0.0000E+00  0.6400E+02
     -6.408  0.0000E+00  0.6400E+02
     -6.330  0.0000E+00  0.6400E+02
     -6.253  0.0000E+00  0.6400E+02
     -6.176  0.0000E+00  0.6400E+02
     -6.098  0.0000E+00  0.6400E+02
     -6.021  0.0000E+00  0.6400E+02
     -5.944  0.0000E+00  0.6400E+02
     -5.866  0.0000E+00  0.6400E+02
     -5.789  0.0000E+00  0.6400E+02
     -5.712  0.0000E+00  0.6400E+02
     -5.634  0.0000E+00  0.6400E+02
     -5.557  0.0000E+00  0.6400E+02
     -5.479  0.0000E+00  0.6400E+02
     -5.402  0.0000E+00  0.6400E+02
     -5.325  0.0000E+00  0.6400E+02
     -5.247  0.0000E+00  0.6400E+02
     -5.170  0.0000E+00  0.6400E+02
     -5.093  0.0000E+00  0.6400E+02
     -5.015  0.0000E+00  0.6400E+02
     -4.938  0.0000E+00  0.6400E+02
     -4.861  0.0000E+00  0.6400E+02
     -4.783  0.0000E+00  0.6400E+02
     -4.706  0.0000E+00  0.6400E+02
     -4.629  0.0000E+00  0.6400E+02
     -4.551  0.0000E+00  0.6400E+02
     -4.474  0.0000E+00  0.6400E+02
     -4.397  0.0000E+00  0.6400E+02
     -4.319  0.0000E+00  0.6400E+02
     -4.242  0.0000E+00  0.6400E+02
     -4.164  0.0000E+00  0.6400E+02
     -4.087  0.0000E+00  0.6400E+02
     -4.010  0.0000E+00  0.6400E+02
     -3.932  0.0000E+00  0.6400E+02
     -3.855  0.0000E+00  0.6400E+02
     -3.778  0.0000E+00  0.6400E+02
     -3.700  0.0000E+00  0.6400E+02
     -3.623  0.0000E+00  0.6400E+02
     -3.546  0.0000E+00  0.6400E+02
     -3.468  0.0000E+00  0.6400E+02
     -3.391  0.0000E+00  0.6400E+02
     -3.314  0.0000E+00  0.6400E+02
     -3.236  0.0000E+00  0.6400E+02
     -3.159  0.0000E+00  0.6400E+02
     -3.081  0.0000E+00  0.6400E+02
     -3.004  0.0000E+00  0.6400E+02
     -2.927  0.0000E+00  0.6400E+02
     -2.849  0.0000E+00  0.6400E+02
     -2.772  0.0000E+00  0.6400E+02
     -2.695  0.0000E+00  0.6400E+02
     -2.617  0.0000E+00  0.6400E+02
     -2.540  0.0000E+00  0.6400E+02
     -2.463  0.0000E+00  0.6400E+02
     -2.385  0.0000E+00  0.6400E+02
     -2.308  0.0000E+00  0.6400E+02
     -2.231  0.0000E+00  0.6400E+02
     -2.153  0.0000E+00  0.6400E+02
     -2.076  0.0000E+00  0.6400E+02
     -1.999  0.0000E+00  0.6400E+02
     -1.921  0.0000E+00  0.6400E+02
     -1.844  0.0000E+00  0.6400E+02
     -1.766  0.0000E+00  0.6400E+02
     -1.689  0.0000E+00  0.6400E+02
     -1.612  0.0000E+00  0.6400E+02
     -1.534 -0.5841E-30  0.6400E+02
     -1.457 -0.9657E-25  0.6400E+02
     -1.380 -0.4774E-20  0.6400E+02
     -1.302 -0.6749E-16  0.6400E+02
     -1.225 -0.2981E-12  0.6400E+02
     -1.148 -0.3843E-09  0.6400E+02
     -1.070 -0.1465E-06  0.6400E+02
     -0.993 -0.1662E-04  0.6400E+02
     -0.916 -0.5698E-03  0.6400E+02
     -0.838 -0.5843E-02  0.6400E+02
     -0.761 -0.9007E-02  0.6400E+02
     -0.684  0.1068E+00  0.6401E+02
     -0.606  0.4455E+00  0.6404E+02
     -0.529  0.6074E+00  0.6409E+02
     -0.451  0.6738E+00  0.6414E+02
     -0.374  0.1250E+01  0.6424E+02
     -0.297  0.1076E+01  0.6432E+02
     -0.219  0.7167E+00  0.6438E+02
     -0.142  0.1506E+01  0.6449E+02
     -0.065  0.1744E+01  0.6463E+02
      0.013  0.1278E+01  0.6473E+02
      0.090  0.1688E+01  0.6486E+02
      0.167  0.1837E+01  0.6500E+02
      0.245  0.1085E+01  0.6508E+02
      0.322  0.2177E+01  0.6525E+02
      0.399  0.2530E+01  0.6545E+02
      0.477  0.2256E+01  0.6562E+02
      0.554  0.2346E+01  0.6580E+02
      0.631  0.1791E+01  0.6594E+02
      0.709  0.2015E+01  0.6610E+02
      0.786  0.3206E+01  0.6635E+02
      0.864  0.3499E+01  0.6662E+02
      0.941  0.2831E+01  0.6684E+02
      1.018  0.3312E+01  0.6709E+02
      1.096  0.2857E+01  0.6731E+02
      1.173  0.2557E+01  0.6751E+02
      1.250  0.3496E+01  0.6778E+02
      1.328  0.2644E+01  0.6799E+02
      1.405  0.2529E+01  0.6818E+02
      1.482  0.3598E+01  0.6846E+02
      1.560  0.3505E+01  0.6873E+02
      1.637  0.2966E+01  0.6896E+02
      1.714  0.3261E+01  0.6921E+02
      1.792  0.3249E+01  0.6946E+02
      1.869  0.3267E+01  0.6972E+02
      1.946  0.2903E+01  0.6994E+02
      2.024  0.2694E+01  0.7015E+02
      2.101  0.2462E+01  0.7034E+02
      2.179  0.2959E+01  0.7057E+02
      2.256  0.4554E+01  0.7092E+02
      2.333  0.4087E+01  0.7124E+02
      2.411  0.3148E+01  0.7148E+02
      2.488  0.3244E+01  0.7173E+02
      2.565  0.2680E+01  0.7194E+02
      2.643  0.3207E+01  0.7219E+02
      2.720  0.3363E+01  0.7245E+02
      2.797  0.3280E+01  0.7270E+02
      2.875  0.2866E+01  0.7292E+02
      2.952  0.3777E+01  0.7321E+02
      3.029  0.4024E+01  0.7353E+02
      3.107  0.3356E+01  0.7379E+02
      3.184  0.4473E+01  0.7413E+02
      3.261  0.4321E+01  0.7447E+02
      3.339  0.4395E+01  0.7481E+02
      3.416  0.5499E+01  0.7523E+02
      3.494  0.4222E+01  0.7556E+02
      3.571  0.3268E+01  0.7581E+02
      3.648  0.4309E+01  0.7614E+02
      3.726  0.4188E+01  0.7647E+02
      3.803  0.3915E+01  0.7677E+02
      3.880  0.5142E+01  0.7717E+02
      3.958  0.4888E+01  0.7755E+02
      4.035  0.3641E+01  0.7783E+02
      4.112  0.3532E+01  0.7810E+02
      4.190  0.3718E+01  0.7839E+02
      4.267  0.4329E+01  0.7872E+02
      4.344  0.4455E+01  0.7907E+02
      4.422  0.3692E+01  0.7935E+02
      4.499  0.3396E+01  0.7962E+02
      4.576  0.3741E+01  0.7991E+02
      4.654  0.3146E+01  0.8015E+02
      4.731  0.4142E+01  0.8047E+02
      4.809  0.7055E+01  0.8102E+02
      4.886  0.6572E+01  0.8152E+02
      4.963  0.5388E+01  0.8194E+02
      5.041  0.4678E+01  0.8230E+02
      5.118  0.4848E+01  0.8268E+02
      5.195  0.6262E+01  0.8316E+02
      5.273  0.6091E+01  0.8363E+02
      5.350  0.5045E+01  0.8402E+02
      5.427  0.5260E+01  0.8443E+02
      5.505  0.5800E+01  0.8488E+02
      5.582  0.6700E+01  0.8540E+02
      5.659  0.8040E+01  0.8602E+02
      5.737  0.8445E+01  0.8667E+02
      5.814  0.9329E+01  0.8739E+02
      5.891  0.8341E+01  0.8804E+02
      5.969  0.8367E+01  0.8869E+02
      6.046  0.9517E+01  0.8942E+02
      6.124  0.1131E+02  0.9030E+02
      6.201  0.1203E+02  0.9123E+02
      6.278  0.1116E+02  0.9209E+02
      6.356  0.1045E+02  0.9290E+02
      6.433  0.1171E+02  0.9381E+02
      6.510  0.1428E+02  0.9491E+02
      6.588  0.1520E+02  0.9609E+02
      6.665  0.1369E+02  0.9714E+02
      6.742  0.1443E+02  0.9826E+02
      6.820  0.1895E+02  0.9973E+02
      6.897  0.2037E+02  0.1013E+03
      6.974  0.1654E+02  0.1026E+03
      7.052  0.1248E+02  0.1035E+03
      7.129  0.9467E+01  0.1043E+03
      7.206  0.7510E+01  0.1049E+03
      7.284  0.6455E+01  0.1054E+03
      7.361  0.6493E+01  0.1059E+03
      7.439  0.7166E+01  0.1064E+03
      7.516  0.7717E+01  0.1070E+03
      7.593  0.1028E+02  0.1078E+03
      7.671  0.1573E+02  0.1090E+03
      7.748  0.1746E+02  0.1104E+03
      7.825  0.1371E+02  0.1114E+03
      7.903  0.1341E+02  0.1125E+03
      7.980  0.1554E+02  0.1137E+03
      8.057  0.1849E+02  0.1151E+03
      8.135  0.2107E+02  0.1167E+03
      8.212  0.1962E+02  0.1183E+03
      8.289  0.1549E+02  0.1195E+03
      8.367  0.1454E+02  0.1206E+03
      8.444  0.1246E+02  0.1215E+03
      8.521  0.1101E+02  0.1224E+03
      8.599  0.1418E+02  0.1235E+03
      8.676  0.1190E+02  0.1244E+03
      8.754  0.8844E+01  0.1251E+03
      8.831  0.9598E+01  0.1258E+03
      8.908  0.1050E+02  0.1266E+03
      8.986  0.1222E+02  0.1276E+03
      9.063  0.9856E+01  0.1284E+03
      9.140  0.8472E+01  0.1290E+03
      9.218  0.1290E+02  0.1300E+03
      9.295  0.1418E+02  0.1311E+03
      9.372  0.1389E+02  0.1322E+03
      9.450  0.1474E+02  0.1333E+03
      9.527  0.1457E+02  0.1344E+03
      9.604  0.1632E+02  0.1357E+03
      9.682  0.1709E+02  0.1370E+03
      9.759  0.1977E+02  0.1386E+03
      9.836  0.1959E+02  0.1401E+03
      9.914  0.1666E+02  0.1414E+03
      9.991  0.1859E+02  0.1428E+03
     10.069  0.2247E+02  0.1445E+03
     10.146  0.2761E+02  0.1467E+03
     10.223  0.3123E+02  0.1491E+03
     10.301  0.2818E+02  0.1513E+03
     10.378  0.2747E+02  0.1534E+03
     10.455  0.2582E+02  0.1554E+03
     10.533  0.2136E+02  0.1570E+03
     10.610  0.2198E+02  0.1587E+03
     10.687  0.2154E+02  0.1604E+03
     10.765  0.1550E+02  0.1616E+03
     10.842  0.1283E+02  0.1626E+03
     10.919  0.1274E+02  0.1636E+03
     10.997  0.1083E+02  0.1644E+03
     11.074  0.8231E+01  0.1651E+03
     11.151  0.9594E+01  0.1658E+03
     11.229  0.9786E+01  0.1666E+03
     11.306  0.6606E+01  0.1671E+03
     11.384  0.8355E+01  0.1677E+03
     11.461  0.9148E+01  0.1684E+03
     11.538  0.7476E+01  0.1690E+03
     11.616  0.7672E+01  0.1696E+03
     11.693  0.7392E+01  0.1702E+03
     11.770  0.6544E+01  0.1707E+03
     11.848  0.7968E+01  0.1713E+03
     11.925  0.1081E+02  0.1721E+03
     12.002  0.1083E+02  0.1730E+03