       N       E                     dE             d eps       ncg     rms          rms(c)
DAV:   1     0.924446353731E+03    0.92445E+03   -0.59719E+04 15360   0.104E+03
DAV:   2    -0.228321058960E+02   -0.94728E+03   -0.90598E+03 16128   0.284E+02
DAV:   3    -0.966056756606E+02   -0.73774E+02   -0.72183E+02 29952   0.674E+01
DAV:   4    -0.990928881922E+02   -0.24872E+01   -0.24865E+01 15872   0.111E+01
DAV:   5    -0.991470319493E+02   -0.54144E-01   -0.54142E-01 22912   0.163E+00
DAV:   6    -0.991487157675E+02   -0.16838E-02   -0.16838E-02 19264   0.276E-01
DAV:   7    -0.991487877376E+02   -0.71970E-04   -0.71970E-04 24896   0.542E-02
DAV:   8    -0.991487898322E+02   -0.20946E-05   -0.20943E-05 17600   0.765E-03
DAV:   9    -0.991487899357E+02   -0.10351E-06   -0.10395E-06 21184   0.159E-03
   1 F= -.99148790E+02 E0= -.99148493E+02  d E =-.889900E-03
