 vasp.6.5.0 16Dec24 (build Apr 17 2025 17:55:45) complex                        
  
 executed on             LinuxIFC date 2025.06.04  14:51:46
 running   64 mpi-ranks, on    1 nodes
 distrk:  each k-point on   64 cores,    1 groups
 distr:  one band on NCORE=   1 cores,   64 groups


--------------------------------------------------------------------------------------------------------


 INCAR:
   ISTART = 1
   ICHARG = 11
   PREC = N
   LREAL = .FALSE.
   ENCUT = 520
   ALGO = N
   NELM = 500
   EDIFF = 1E-06
   IBRION = -1
   ISIF = 3
   NSW = 0
   EDIFFG = -0.01
   LAECHG = .T.
   SYMPREC = 1E-6
   NEDOS = 1000
   LORBIT = 10
   ISMEAR = 1
   SIGMA = 0.1

 POTCAR:    PAW_PBE Ti_sv 26Sep2005               
 POTCAR:    PAW_PBE Al 04Jan2001                  
 -----------------------------------------------------------------------------
|                                                                             |
|           W    W    AA    RRRRR   N    N  II  N    N   GGGG   !!!           |
|           W    W   A  A   R    R  NN   N  II  NN   N  G    G  !!!           |
|           W    W  A    A  R    R  N N  N  II  N N  N  G       !!!           |
|           W WW W  AAAAAA  RRRRR   N  N N  II  N  N N  G  GGG   !            |
|           WW  WW  A    A  R   R   N   NN  II  N   NN  G    G                |
|           W    W  A    A  R    R  N    N  II  N    N   GGGG   !!!           |
|                                                                             |
|     For optimal performance we recommend to set                             |
|       NCORE = 2 up to number-of-cores-per-socket                            |
|     NCORE specifies how many cores store one orbital (NPAR=cpu/NCORE).      |
|     This setting can greatly improve the performance of VASP for DFT.       |
|     The default, NCORE=1 might be grossly inefficient on modern             |
|     multi-core architectures or massively parallel machines. Do your        |
|     own testing! More info at https://www.vasp.at/wiki/index.php/NCORE      |
|     Unfortunately you need to use the default for GW and RPA                |
|     calculations (for HF NCORE is supported but not extensively tested      |
|     yet).                                                                   |
|                                                                             |
 -----------------------------------------------------------------------------

 POTCAR:    PAW_PBE Ti_sv 26Sep2005               
   SHA256 =  4d747badb5a5ea28d858fbac70885b3f8929d6fd9e5b0dbe1ecb9878dc164da1 Ti_sv/POTCAR          
   COPYR  = (c) Copyright 26Sep2005 Georg Kresse                                                    
   COPYR  = This file is part of the software VASP. Any use, copying, and all other rights are regul
   COPYR  = If you do not have a valid VASP license, you may not use, copy or distribute this file. 
   VRHFIN =Ti: 3p4s3d                                                                               
   LEXCH  = PE                                                                                      
   EATOM  =  1588.0892 eV,  116.7213 Ry                                                             
                                                                                                    
   TITEL  = PAW_PBE Ti_sv 26Sep2005                                                                 
   LULTRA =        F    use ultrasoft PP ?                                                          
   IUNSCR =        1    unscreen: 0-lin 1-nonlin 2-no                                               
   RPACOR =    2.000    partial core radius                                                         
   POMASS =   47.880; ZVAL   =   12.000    mass and valenz                                          
   RCORE  =    2.300    outmost cutoff radius                                                       
   RWIGS  =    2.300; RWIGS  =    1.217    wigner-seitz radius (au A)                               
   ENMAX  =  274.610; ENMIN  =  205.957 eV                                                          
   ICORE  =        3    local potential                                                             
   LCOR   =        T    correct aug charges                                                         
   LPAW   =        T    paw PP                                                                      
   EAUG   =  482.848                                                                                
   RMAX   =    2.348    core radius for proj-oper                                                   
   RAUG   =    1.300    factor for augmentation sphere                                              
   RDEP   =    2.381    radius for radial grids                                                     
   RDEPT  =    1.930    core radius for aug-charge                                                  
                                                                                                    
   Atomic configuration                                                                             
    8 entries                                                                                       
     n  l   j            E        occ.                                                              
     1  0  0.50     -4865.3608   2.0000                                                             
     2  0  0.50      -533.1368   2.0000                                                             
     2  1  1.50      -440.5031   6.0000                                                             
     3  0  0.50       -59.3186   2.0000                                                             
     4  0  0.50        -3.7291   1.0000                                                             
     3  1  1.50       -35.7012   6.0000                                                             
     3  2  2.50        -1.9157   3.0000                                                             
     4  3  2.50        -1.3606   0.0000                                                             
   Description                                                                                      
     l       E           TYP  RCUT    TYP  RCUT                                                     
     0    -59.3185931     23  1.800                                                                 
     0     -3.7290822     23  2.300                                                                 
     1    -35.7012045     23  2.300                                                                 
     1     -1.3605826     23  2.300                                                                 
     2     -1.9156920     23  2.300                                                                 
     2     -0.0236318     23  2.300                                                                 
     3     -1.3605826     23  2.300                                                                 
  local pseudopotential read in
  partial core-charges read in
  partial kinetic energy density read in
  atomic valenz-charges read in
  non local Contribution for L=           0  read in
    real space projection operators read in
  non local Contribution for L=           0  read in
    real space projection operators read in
  non local Contribution for L=           1  read in
    real space projection operators read in
  non local Contribution for L=           1  read in
    real space projection operators read in
  non local Contribution for L=           2  read in
    real space projection operators read in
  non local Contribution for L=           2  read in
    real space projection operators read in
    PAW grid and wavefunctions read in
 
   number of l-projection  operators is LMAX  =           6
   number of lm-projection operators is LMMAX =          18
 
 POTCAR:    PAW_PBE Al 04Jan2001                  
   SHA256 =  17880443556af62b473fe41b62a467bd001ad55d2cabe504a3f22e34d4e9db96 Al/POTCAR             
   COPYR  = (c) Copyright 04Jan2001 Georg Kresse                                                    
   COPYR  = This file is part of the software VASP. Any use, copying, and all other rights are regul
   COPYR  = If you do not have a valid VASP license, you may not use, copy or distribute this file. 
   VRHFIN =Al: s2p1                                                                                 
   LEXCH  = PE                                                                                      
   EATOM  =    53.5387 eV,    3.9350 Ry                                                             
                                                                                                    
   TITEL  = PAW_PBE Al 04Jan2001                                                                    
   LULTRA =        F    use ultrasoft PP ?                                                          
   IUNSCR =        1    unscreen: 0-lin 1-nonlin 2-no                                               
   RPACOR =    1.500    partial core radius                                                         
   POMASS =   26.981; ZVAL   =    3.000    mass and valenz                                          
   RCORE  =    1.900    outmost cutoff radius                                                       
   RWIGS  =    2.650; RWIGS  =    1.402    wigner-seitz radius (au A)                               
   ENMAX  =  240.300; ENMIN  =  180.225 eV                                                          
   ICORE  =        2    local potential                                                             
   LCOR   =        T    correct aug charges                                                         
   LPAW   =        T    paw PP                                                                      
   EAUG   =  291.052                                                                                
   DEXC   =    0.000                                                                                
   RMAX   =    1.939    core radius for proj-oper                                                   
   RAUG   =    1.300    factor for augmentation sphere                                              
   RDEP   =    1.966    radius for radial grids                                                     
   RDEPT  =    1.856    core radius for aug-charge                                                  
                                                                                                    
   Atomic configuration                                                                             
    6 entries                                                                                       
     n  l   j            E        occ.                                                              
     1  0  0.50     -1511.1048   2.0000                                                             
     2  0  0.50      -108.1629   2.0000                                                             
     2  1  1.50       -69.6402   6.0000                                                             
     3  0  0.50        -7.7528   2.0000                                                             
     3  1  1.50        -2.7121   1.0000                                                             
     3  2  2.50        -2.7212   0.0000                                                             
   Description                                                                                      
     l       E           TYP  RCUT    TYP  RCUT                                                     
     0     -7.7528455     23  1.900                                                                 
     0     -3.3096929     23  1.900                                                                 
     1     -2.7120682     23  1.900                                                                 
     1     13.6058260     23  1.900                                                                 
     2     -2.7211652      7  1.900                                                                 
  local pseudopotential read in
  partial core-charges read in
  partial kinetic energy density read in
  atomic valenz-charges read in
  non local Contribution for L=           0  read in
    real space projection operators read in
  non local Contribution for L=           0  read in
    real space projection operators read in
  non local Contribution for L=           1  read in
    real space projection operators read in
  non local Contribution for L=           1  read in
    real space projection operators read in
    PAW grid and wavefunctions read in
 
   number of l-projection  operators is LMAX  =           4
   number of lm-projection operators is LMMAX =           8
 
  PAW_PBE Ti_sv 26Sep2005               :
 energy of atom  1       EATOM=-1588.0892
 kinetic energy error for atom=    0.0042 (will be added to EATOM!!)
  PAW_PBE Al 04Jan2001                  :
 energy of atom  2       EATOM=  -53.5387
 kinetic energy error for atom=    0.0002 (will be added to EATOM!!)
 
 
 POSCAR: Ti1 Al1
  positions in direct lattice
  velocities in cartesian coordinates


 exchange-correlation table for PE
   RHO(1)=    0.500       N(1)  =     2000
   RHO(2)=  100.500       N(2)  =     4000
 


--------------------------------------------------------------------------------------------------------


 ion  position               nearest neighbor table
   1  0.000  0.000  0.000-   3 2.83   5 2.83   3 2.83   5 2.83  11 2.85  12 2.85  13 2.85  14 2.85
                            15 2.85  16 2.85   9 2.85  10 2.85
   2  0.000  0.000  0.500-   4 2.83   6 2.83   4 2.83   6 2.83  11 2.85  12 2.85  13 2.85  14 2.85
                            15 2.85  16 2.85   9 2.85  10 2.85
   3  0.000  0.500  0.000-   1 2.83   7 2.83   1 2.83   7 2.83  11 2.85  12 2.85  13 2.85  14 2.85
                            15 2.85  16 2.85   9 2.85  10 2.85
   4  0.000  0.500  0.500-   2 2.83   8 2.83   2 2.83   8 2.83  11 2.85  12 2.85  13 2.85  14 2.85
                            15 2.85  16 2.85   9 2.85  10 2.85
   5  0.500  0.000  0.000-   1 2.83   7 2.83   7 2.83   1 2.83  11 2.85  12 2.85  13 2.85  14 2.85
                            15 2.85  16 2.85   9 2.85  10 2.85
   6  0.500  0.000  0.500-   2 2.83   8 2.83   8 2.83   2 2.83  11 2.85  12 2.85  13 2.85  14 2.85
                            15 2.85  16 2.85   9 2.85  10 2.85
   7  0.500  0.500  0.000-   3 2.83   5 2.83   5 2.83   3 2.83  11 2.85  12 2.85  13 2.85  14 2.85
                            15 2.85  16 2.85   9 2.85  10 2.85
   8  0.500  0.500  0.500-   4 2.83   6 2.83   6 2.83   4 2.83  11 2.85  12 2.85  13 2.85  14 2.85
                            15 2.85  16 2.85   9 2.85  10 2.85
   9  0.250  0.250  0.250-  11 2.83  13 2.83  11 2.83  13 2.83   5 2.85   6 2.85   7 2.85   8 2.85
                             1 2.85   2 2.85   3 2.85   4 2.85
  10  0.250  0.250  0.750-  12 2.83  14 2.83  12 2.83  14 2.83   5 2.85   6 2.85   7 2.85   8 2.85
                             1 2.85   2 2.85   3 2.85   4 2.85
  11  0.250  0.750  0.250-   9 2.83  15 2.83   9 2.83  15 2.83   5 2.85   6 2.85   7 2.85   8 2.85
                             1 2.85   2 2.85   3 2.85   4 2.85
  12  0.250  0.750  0.750-  10 2.83  16 2.83  10 2.83  16 2.83   5 2.85   6 2.85   7 2.85   8 2.85
                             1 2.85   2 2.85   3 2.85   4 2.85
  13  0.750  0.250  0.250-   9 2.83  15 2.83  15 2.83   9 2.83   5 2.85   6 2.85   7 2.85   8 2.85
                             1 2.85   2 2.85   3 2.85   4 2.85
  14  0.750  0.250  0.750-  10 2.83  16 2.83  16 2.83  10 2.83   5 2.85   6 2.85   7 2.85   8 2.85
                             1 2.85   2 2.85   3 2.85   4 2.85
  15  0.750  0.750  0.250-  11 2.83  13 2.83  13 2.83  11 2.83   5 2.85   6 2.85   7 2.85   8 2.85
                             1 2.85   2 2.85   3 2.85   4 2.85
  16  0.750  0.750  0.750-  12 2.83  14 2.83  14 2.83  12 2.83   5 2.85   6 2.85   7 2.85   8 2.85
                             1 2.85   2 2.85   3 2.85   4 2.85
 
  LATTYP: Found a simple tetragonal cell.
 ALAT       =     5.6506817720
 C/A-ratio  =     1.4378139695
  
  Lattice vectors:
  
 A1 = (   5.6506817720,   0.0000000000,   0.0000000000)
 A2 = (   0.0000000000,   5.6506817720,   0.0000000000)
 A3 = (   0.0000000000,   0.0000000000,   8.1246291889)


Analysis of symmetry for initial positions (statically):
=====================================================================
 Subroutine PRICEL returns following result:
 
  LATTYP: Found a simple tetragonal cell.
 ALAT       =     2.8253408860
 C/A-ratio  =     1.4378139695
  
  Lattice vectors:
  
 A1 = (   2.8253408860,   0.0000000000,   0.0000000000)
 A2 = (   0.0000000000,   2.8253408860,   0.0000000000)
 A3 = (   0.0000000000,   0.0000000000,   4.0623145945)
 
   8 primitive cells build up your supercell.
 

 Routine SETGRP: Setting up the symmetry group for a 
 simple tetragonal supercell.


 Subroutine GETGRP returns: Found 16 space group operations
 (whereof 16 operations were pure point group operations)
 out of a pool of 16 trial point group operations.


The static configuration has the point symmetry D_4h.


Analysis of symmetry for dynamics (positions and initial velocities):
=====================================================================
 Subroutine PRICEL returns following result:
 
  LATTYP: Found a simple tetragonal cell.
 ALAT       =     2.8253408860
 C/A-ratio  =     1.4378139695
  
  Lattice vectors:
  
 A1 = (   2.8253408860,   0.0000000000,   0.0000000000)
 A2 = (   0.0000000000,   2.8253408860,   0.0000000000)
 A3 = (   0.0000000000,   0.0000000000,   4.0623145945)
 
   8 primitive cells build up your supercell.
 

 Routine SETGRP: Setting up the symmetry group for a 
 simple tetragonal supercell.


 Subroutine GETGRP returns: Found 16 space group operations
 (whereof 16 operations were pure point group operations)
 out of a pool of 16 trial point group operations.


The dynamic configuration has the point symmetry D_4h.


 Subroutine INISYM returns: Found 16 space group operations
 (whereof 16 operations are pure point group operations),
 and found     8 'primitive' translations


----------------------------------------------------------------------------------------

                                     Primitive cell                                     

  volume of cell :      32.4276

  direct lattice vectors                    reciprocal lattice vectors
     2.825340886  0.000000000  0.000000000     0.353939592  0.000000000  0.000000000
     0.000000000  2.825340886  0.000000000     0.000000000  0.353939592  0.000000000
     0.000000000  0.000000000  4.062314594     0.000000000  0.000000000  0.246165081

  length of vectors
     2.825340886  2.825340886  4.062314594     0.353939592  0.353939592  0.246165081

  position of ions in fractional coordinates (direct lattice)
     0.000000000  0.000000000  0.000000000
     0.500000000  0.500000000  0.500000000

  ion indices of the primitive-cell ions
   primitive index   ion index
                 1           1
                 2           9

----------------------------------------------------------------------------------------

 
 
 KPOINTS: K-Spacing Value to Generate K-Mesh: 0.02

Automatic generation of k-mesh.
 Grid dimensions read from file:
 generate k-points for:    9    9    6

 Generating k-lattice:

  Cartesian coordinates                     Fractional coordinates (reciprocal lattice)
     0.019663311  0.000000000  0.000000000     0.111111111  0.000000000  0.000000000
     0.000000000  0.019663311  0.000000000     0.000000000  0.111111111  0.000000000
     0.000000000  0.000000000  0.020513757     0.000000000  0.000000000  0.166666667

  Length of vectors
     0.019663311  0.019663311  0.020513757

  Shift w.r.t. Gamma in fractional coordinates (k-lattice)
     0.000000000  0.000000000  0.000000000

 
 Subroutine IBZKPT returns following result:
 ===========================================
 
 Found     60 irreducible k-points:
 
 Following reciprocal coordinates:
            Coordinates               Weight
  0.000000  0.000000  0.000000      1.000000
  0.111111  0.000000  0.000000      4.000000
  0.222222  0.000000  0.000000      4.000000
  0.333333  0.000000  0.000000      4.000000
  0.444444  0.000000  0.000000      4.000000
  0.111111  0.111111  0.000000      4.000000
  0.222222  0.111111  0.000000      8.000000
  0.333333  0.111111  0.000000      8.000000
  0.444444  0.111111  0.000000      8.000000
  0.222222  0.222222  0.000000      4.000000
  0.333333  0.222222  0.000000      8.000000
  0.444444  0.222222  0.000000      8.000000
  0.333333  0.333333  0.000000      4.000000
  0.444444  0.333333  0.000000      8.000000
  0.444444  0.444444  0.000000      4.000000
  0.000000  0.000000  0.166667      2.000000
  0.111111  0.000000  0.166667      8.000000
  0.222222  0.000000  0.166667      8.000000
  0.333333  0.000000  0.166667      8.000000
  0.444444  0.000000  0.166667      8.000000
  0.111111  0.111111  0.166667      8.000000
  0.222222  0.111111  0.166667     16.000000
  0.333333  0.111111  0.166667     16.000000
  0.444444  0.111111  0.166667     16.000000
  0.222222  0.222222  0.166667      8.000000
  0.333333  0.222222  0.166667     16.000000
  0.444444  0.222222  0.166667     16.000000
  0.333333  0.333333  0.166667      8.000000
  0.444444  0.333333  0.166667     16.000000
  0.444444  0.444444  0.166667      8.000000
  0.000000  0.000000  0.333333      2.000000
  0.111111  0.000000  0.333333      8.000000
  0.222222  0.000000  0.333333      8.000000
  0.333333  0.000000  0.333333      8.000000
  0.444444  0.000000  0.333333      8.000000
  0.111111  0.111111  0.333333      8.000000
  0.222222  0.111111  0.333333     16.000000
  0.333333  0.111111  0.333333     16.000000
  0.444444  0.111111  0.333333     16.000000
  0.222222  0.222222  0.333333      8.000000
  0.333333  0.222222  0.333333     16.000000
  0.444444  0.222222  0.333333     16.000000
  0.333333  0.333333  0.333333      8.000000
  0.444444  0.333333  0.333333     16.000000
  0.444444  0.444444  0.333333      8.000000
  0.000000  0.000000  0.500000      1.000000
  0.111111  0.000000  0.500000      4.000000
  0.222222  0.000000  0.500000      4.000000
  0.333333  0.000000  0.500000      4.000000
  0.444444  0.000000  0.500000      4.000000
  0.111111  0.111111  0.500000      4.000000
  0.222222  0.111111  0.500000      8.000000
  0.333333  0.111111  0.500000      8.000000
  0.444444  0.111111  0.500000      8.000000
  0.222222  0.222222  0.500000      4.000000
  0.333333  0.222222  0.500000      8.000000
  0.444444  0.222222  0.500000      8.000000
  0.333333  0.333333  0.500000      4.000000
  0.444444  0.333333  0.500000      8.000000
  0.444444  0.444444  0.500000      4.000000
 
 Following cartesian coordinates:
            Coordinates               Weight
  0.000000  0.000000  0.000000      1.000000
  0.019663  0.000000  0.000000      4.000000
  0.039327  0.000000  0.000000      4.000000
  0.058990  0.000000  0.000000      4.000000
  0.078653  0.000000  0.000000      4.000000
  0.019663  0.019663  0.000000      4.000000
  0.039327  0.019663  0.000000      8.000000
  0.058990  0.019663  0.000000      8.000000
  0.078653  0.019663  0.000000      8.000000
  0.039327  0.039327  0.000000      4.000000
  0.058990  0.039327  0.000000      8.000000
  0.078653  0.039327  0.000000      8.000000
  0.058990  0.058990  0.000000      4.000000
  0.078653  0.058990  0.000000      8.000000
  0.078653  0.078653  0.000000      4.000000
  0.000000  0.000000  0.020514      2.000000
  0.019663  0.000000  0.020514      8.000000
  0.039327  0.000000  0.020514      8.000000
  0.058990  0.000000  0.020514      8.000000
  0.078653  0.000000  0.020514      8.000000
  0.019663  0.019663  0.020514      8.000000
  0.039327  0.019663  0.020514     16.000000
  0.058990  0.019663  0.020514     16.000000
  0.078653  0.019663  0.020514     16.000000
  0.039327  0.039327  0.020514      8.000000
  0.058990  0.039327  0.020514     16.000000
  0.078653  0.039327  0.020514     16.000000
  0.058990  0.058990  0.020514      8.000000
  0.078653  0.058990  0.020514     16.000000
  0.078653  0.078653  0.020514      8.000000
  0.000000  0.000000  0.041028      2.000000
  0.019663  0.000000  0.041028      8.000000
  0.039327  0.000000  0.041028      8.000000
  0.058990  0.000000  0.041028      8.000000
  0.078653  0.000000  0.041028      8.000000
  0.019663  0.019663  0.041028      8.000000
  0.039327  0.019663  0.041028     16.000000
  0.058990  0.019663  0.041028     16.000000
  0.078653  0.019663  0.041028     16.000000
  0.039327  0.039327  0.041028      8.000000
  0.058990  0.039327  0.041028     16.000000
  0.078653  0.039327  0.041028     16.000000
  0.058990  0.058990  0.041028      8.000000
  0.078653  0.058990  0.041028     16.000000
  0.078653  0.078653  0.041028      8.000000
  0.000000  0.000000  0.061541      1.000000
  0.019663  0.000000  0.061541      4.000000
  0.039327  0.000000  0.061541      4.000000
  0.058990  0.000000  0.061541      4.000000
  0.078653  0.000000  0.061541      4.000000
  0.019663  0.019663  0.061541      4.000000
  0.039327  0.019663  0.061541      8.000000
  0.058990  0.019663  0.061541      8.000000
  0.078653  0.019663  0.061541      8.000000
  0.039327  0.039327  0.061541      4.000000
  0.058990  0.039327  0.061541      8.000000
  0.078653  0.039327  0.061541      8.000000
  0.058990  0.058990  0.061541      4.000000
  0.078653  0.058990  0.061541      8.000000
  0.078653  0.078653  0.061541      4.000000
 


--------------------------------------------------------------------------------------------------------




 Dimension of arrays:
   k-points           NKPTS =     60   k-points in BZ     NKDIM =     60   number of bands    NBANDS=    128
   number of dos      NEDOS =   1000   number of ions     NIONS =     16
   non local maximal  LDIM  =      6   non local SUM 2l+1 LMDIM =     18
   total plane-waves  NPLWV =  49152
   max r-space proj   IRMAX =      1   max aug-charges    IRDMAX=   7573
   dimension x,y,z NGX =    32 NGY =   32 NGZ =   48
   dimension x,y,z NGXF=    64 NGYF=   64 NGZF=   96
   support grid    NGXF=    64 NGYF=   64 NGZF=   96
   ions per type =               8   8
   NGX,Y,Z   is equivalent  to a cutoff of   9.41,  9.41,  9.82 a.u.
   NGXF,Y,Z  is equivalent  to a cutoff of  18.83, 18.83, 19.64 a.u.

 SYSTEM =  unknown system                          
 POSCAR =  Ti1 Al1                                 

 Startparameter for this run:
   NWRITE =      2    write-flag & timer
   PREC   = n         normal or accurate (medium, high low for compatibility)
   ISTART =      0    job   : 0-new  1-cont  2-samecut
   ICHARG =     11    charge: 1-file 2-atom 10-const
   ISPIN  =      1    spin polarized calculation?
   LNONCOLLINEAR =      F non collinear calculations
   LSORBIT =      F    spin-orbit coupling
   INIWAV =      1    electr: 0-lowe 1-rand  2-diag
   LASPH  =      F    aspherical Exc in radial PAW
 Electronic Relaxation 1
   ENCUT  =  520.0 eV  38.22 Ry    6.18 a.u.  10.51 10.51 15.11*2*pi/ulx,y,z
   ENINI  =  520.0     initial cutoff
   ENAUG  =  482.8 eV  augmentation charge cutoff
   NELM   =    500;   NELMIN=  2; NELMDL=  0     # of ELM steps 
   EDIFF  = 0.1E-05   stopping-criterion for ELM
   LREAL  =      F    real-space projection
   NLSPLINE    = F    spline interpolate recip. space projectors
   LCOMPAT=      F    compatible to vasp.4.4
   GGA_COMPAT  = T    GGA compatible to vasp.4.4-vasp.4.6
   LMAXPAW     = -100 max onsite density
   LMAXMIX     =    2 max onsite mixed and CHGCAR
   VOSKOWN=      0    Vosko Wilk Nusair interpolation
   ROPT   =    0.00000   0.00000
 Ionic relaxation
   EDIFFG = -.1E-01   stopping-criterion for IOM
   NSW    =      0    number of steps for IOM
   NBLOCK =      1;   KBLOCK =      1    inner block; outer block 
   IBRION =     -1    ionic relax: 0-MD 1-quasi-New 2-CG
   NFREE  =      0    steps in history (QN), initial steepest desc. (CG)
   ISIF   =      3    stress and relaxation
   IWAVPR =     10    prediction:  0-non 1-charg 2-wave 3-comb
   ISYM   =      2    0-nonsym 1-usesym 2-fastsym
   LCORR  =      T    Harris-Foulkes like correction to forces

   POTIM  = 0.5000    time-step for ionic-motion
   TEIN   =    0.0    initial temperature
   TEBEG  =    0.0;   TEEND  =   0.0 temperature during run
   SMASS  =  -3.00    Nose mass-parameter (am)
   estimated Nose-frequenzy (Omega)   =  0.10E-29 period in steps = 0.13E+47 mass=  -0.730E-27a.u.
   SCALEE = 1.0000    scale energy and forces
   NPACO  =    256;   APACO  = 10.0  distance and # of slots for P.C.
   PSTRESS=    0.0 pullay stress

  Mass of Ions in am
   POMASS =  47.88 26.98
  Ionic Valenz
   ZVAL   =  12.00  3.00
  Atomic Wigner-Seitz radii
   RWIGS  =  -1.00 -1.00
  virtual crystal weights 
   VCA    =   1.00  1.00
   NELECT =     120.0000    total number of electrons
   NUPDOWN=      -1.0000    fix difference up-down

 DOS related values:
   EMIN   =  10.00;   EMAX   =-10.00  energy-range for DOS
   EFERMI =   0.00;   METHOD = LEGACY      
   ISMEAR =     1;   SIGMA  =   0.10  broadening in eV -4-tet -1-fermi 0-gaus
   EFERMI_NEDOS =   21; number of points for ismear=-14 and -15

 Electronic relaxation 2 (details)
   IALGO  =     38    algorithm
   LDIAG  =      T    sub-space diagonalisation (order eigenvalues)
   LSUBROT=      F    optimize rotation matrix (better conditioning)
   TURBO    =      0    0=normal 1=particle mesh
   IRESTART =      0    0=no restart 2=restart with 2 vectors
   NREBOOT  =      0    no. of reboots
   NMIN     =      0    reboot dimension
   EREF     =   0.00    reference energy to select bands
   IMIX   =      4    mixing-type and parameters
     AMIX     =   0.40;   BMIX     =  1.00
     AMIX_MAG =   1.60;   BMIX_MAG =  1.00
     AMIN     =   0.10
     WC   =   100.;   INIMIX=   1;  MIXPRE=   1;  MAXMIX= -45

 Intra band minimization:
   WEIMIN = 0.0000     energy-eigenvalue tresh-hold
   EBREAK =  0.20E-08  absolut break condition
   DEPER  =   0.30     relativ break condition  

   TIME   =   0.40     timestep for ELM

  volume/ion in A,a.u.               =      16.21       109.42
  Fermi-wavevector in a.u.,A,eV,Ry     =   1.266097  2.392576 21.810146  1.603001
  Thomas-Fermi vector in A             =   2.399315
 
 Write flags
   LWAVE        =      T    write WAVECAR
   LDOWNSAMPLE  =      F    k-point downsampling of WAVECAR
   LCHARG       =      T    write CHGCAR
   LVTOT        =      F    write LOCPOT, total local potential
   LVHAR        =      F    write LOCPOT, Hartree potential only
   WRT_POTENTIAL= false  ! write potential to hdf5 file
   LELF         =      F    write electronic localiz. function (ELF)
   LORBIT       =     10    0 simple, 1 ext, 2 COOP (PROOUT), +10 PAW based schemes


 Python interface
   PLUGINS active      =      F    recompile with -DPLUGINS to activate
 
 Dipole corrections
   LMONO      =      F    monopole corrections only (constant potential shift)
   LDIPOL     =      F    correct potential (dipole corrections)
   IDIPOL     =      0    1-x, 2-y, 3-z, 4-all directions 
   EPSILON    =  1.0000000 bulk dielectric constant
   LVACPOTAV  =      F  vacuum potentials using an averaging scheme for the charge density
   VACPOTFLAT =  0.1000000 required flatness to determine vacuum potential
 
Coulomb truncation method
  LTRUNCATE          =      F  Coulomb kernel truncation to be used
  IDIMENSIONALITY    =      3  Dimensionality of cutoff (0 molecules / 2 surfaces)
  ISURFACE           =     -1  Direction of surface normal
  LCOARSEN           =      F  Coarsen the charge grid before padding, preferred

 
 Exchange correlation treatment:
   GGA     = PE    functional components
   XC_C    = 1    coefficients multiplying the functional components
   LIBXC   =     F    Libxc                    
   VOSKOWN =     0    Vosko Wilk Nusair interpolation
   LHFCALC =     F    Hartree Fock is set to
   LHFONE  =     F    Hartree Fock one center treatment
   AEXX    =    0.0000 exact exchange contribution

 Parameters of functionals:
   PE:
     No parameter
 
 Van der Waals corrections
   IVDW    =     0    specifies the selected vdW correction

 Linear response parameters
   LEPSILON=     F    determine dielectric tensor
   LRPA    =     F    only Hartree local field effects (RPA)
   LNABLA  =     F    use nabla operator in PAW spheres
   LVEL    =     F    velocity operator in full k-point grid
   CSHIFT  =0.1000    complex shift for real part using Kramers Kronig
   OMEGAMAX=  -1.0    maximum frequency
   DEG_THRESHOLD= 0.2000000E-02 threshold for treating states as degnerate
   RTIME   =   -0.100 relaxation time in fs
  (WPLASMAI=    0.000 imaginary part of plasma frequency in eV, 0.658/RTIME)
   DFIELD  = 0.0000000 0.0000000 0.0000000 field for delta impulse in time
 
  Optional k-point grid parameters
   LKPOINTS_OPT  =     F    use optional k-point grid
   KPOINTS_OPT_MODE=     1    mode for optional k-point grid
 
 Orbital magnetization related:
   ORBITALMAG=     F  switch on orbital magnetization
   LCHIMAG   =     F  perturbation theory with respect to B field
   DQ        =  0.001000  dq finite difference perturbation B field
   LLRAUG    =     F  two centre corrections for induced B field
   LBONE     =     F  B-component reconstruction in AE one-centre
   LVGVCALC  =     T  calculate vGv susceptibility
   LVGVAPPL  =     F  apply vGv susceptibility instead of pGv for G=0

 Random number generation:
   RANDOM_GENERATOR = DEFAULT
   PCG_SEED         = not used


--------------------------------------------------------------------------------------------------------


 Static calculation
 charge density and potential remain constant during run
 non-spin polarized calculation
 Variant of blocked Davidson
 Davidson routine will perform the subspace rotation
 perform sub-space diagonalisation
    after iterative eigenvector-optimisation
 no mixing
 using additional bands           68
 reciprocal scheme for non local part
 use partial core corrections
 calculate Harris-corrections to forces 
   (improved forces if not selfconsistent)
 use gradient corrections 
 WARNING: stress and forces are not correct
  (second derivative of E(xc) not defined)
 use of overlap-Matrix (Vanderbilt PP)
 Methfessel and Paxton  Order N= 1 SIGMA  =   0.10


--------------------------------------------------------------------------------------------------------


  energy-cutoff  :      520.00
  volume of cell :      259.42
      direct lattice vectors                 reciprocal lattice vectors
     5.650681772  0.000000000  0.000000000     0.176969796  0.000000000  0.000000000
     0.000000000  5.650681772  0.000000000     0.000000000  0.176969796  0.000000000
     0.000000000  0.000000000  8.124629189     0.000000000  0.000000000  0.123082540

  length of vectors
     5.650681772  5.650681772  8.124629189     0.176969796  0.176969796  0.123082540


 
 k-points in units of 2pi/SCALE and weight: K-Spacing Value to Generate K-Mesh: 0.02
   0.00000000  0.00000000  0.00000000       0.002
   0.01966331  0.00000000  0.00000000       0.008
   0.03932662  0.00000000  0.00000000       0.008
   0.05898993  0.00000000  0.00000000       0.008
   0.07865324  0.00000000  0.00000000       0.008
   0.01966331  0.01966331  0.00000000       0.008
   0.03932662  0.01966331  0.00000000       0.016
   0.05898993  0.01966331  0.00000000       0.016
   0.07865324  0.01966331  0.00000000       0.016
   0.03932662  0.03932662  0.00000000       0.008
   0.05898993  0.03932662  0.00000000       0.016
   0.07865324  0.03932662  0.00000000       0.016
   0.05898993  0.05898993  0.00000000       0.008
   0.07865324  0.05898993  0.00000000       0.016
   0.07865324  0.07865324  0.00000000       0.008
   0.00000000  0.00000000  0.02051376       0.004
   0.01966331  0.00000000  0.02051376       0.016
   0.03932662  0.00000000  0.02051376       0.016
   0.05898993  0.00000000  0.02051376       0.016
   0.07865324  0.00000000  0.02051376       0.016
   0.01966331  0.01966331  0.02051376       0.016
   0.03932662  0.01966331  0.02051376       0.033
   0.05898993  0.01966331  0.02051376       0.033
   0.07865324  0.01966331  0.02051376       0.033
   0.03932662  0.03932662  0.02051376       0.016
   0.05898993  0.03932662  0.02051376       0.033
   0.07865324  0.03932662  0.02051376       0.033
   0.05898993  0.05898993  0.02051376       0.016
   0.07865324  0.05898993  0.02051376       0.033
   0.07865324  0.07865324  0.02051376       0.016
   0.00000000  0.00000000  0.04102751       0.004
   0.01966331  0.00000000  0.04102751       0.016
   0.03932662  0.00000000  0.04102751       0.016
   0.05898993  0.00000000  0.04102751       0.016
   0.07865324  0.00000000  0.04102751       0.016
   0.01966331  0.01966331  0.04102751       0.016
   0.03932662  0.01966331  0.04102751       0.033
   0.05898993  0.01966331  0.04102751       0.033
   0.07865324  0.01966331  0.04102751       0.033
   0.03932662  0.03932662  0.04102751       0.016
   0.05898993  0.03932662  0.04102751       0.033
   0.07865324  0.03932662  0.04102751       0.033
   0.05898993  0.05898993  0.04102751       0.016
   0.07865324  0.05898993  0.04102751       0.033
   0.07865324  0.07865324  0.04102751       0.016
   0.00000000  0.00000000  0.06154127       0.002
   0.01966331  0.00000000  0.06154127       0.008
   0.03932662  0.00000000  0.06154127       0.008
   0.05898993  0.00000000  0.06154127       0.008
   0.07865324  0.00000000  0.06154127       0.008
   0.01966331  0.01966331  0.06154127       0.008
   0.03932662  0.01966331  0.06154127       0.016
   0.05898993  0.01966331  0.06154127       0.016
   0.07865324  0.01966331  0.06154127       0.016
   0.03932662  0.03932662  0.06154127       0.008
   0.05898993  0.03932662  0.06154127       0.016
   0.07865324  0.03932662  0.06154127       0.016
   0.05898993  0.05898993  0.06154127       0.008
   0.07865324  0.05898993  0.06154127       0.016
   0.07865324  0.07865324  0.06154127       0.008
 
 k-points in reciprocal lattice and weights: K-Spacing Value to Generate K-Mesh: 0.02
   0.00000000  0.00000000  0.00000000       0.002
   0.11111111  0.00000000  0.00000000       0.008
   0.22222222  0.00000000  0.00000000       0.008
   0.33333333  0.00000000  0.00000000       0.008
   0.44444444  0.00000000  0.00000000       0.008
   0.11111111  0.11111111  0.00000000       0.008
   0.22222222  0.11111111  0.00000000       0.016
   0.33333333  0.11111111  0.00000000       0.016
   0.44444444  0.11111111  0.00000000       0.016
   0.22222222  0.22222222  0.00000000       0.008
   0.33333333  0.22222222  0.00000000       0.016
   0.44444444  0.22222222  0.00000000       0.016
   0.33333333  0.33333333  0.00000000       0.008
   0.44444444  0.33333333  0.00000000       0.016
   0.44444444  0.44444444  0.00000000       0.008
   0.00000000  0.00000000  0.16666667       0.004
   0.11111111  0.00000000  0.16666667       0.016
   0.22222222  0.00000000  0.16666667       0.016
   0.33333333  0.00000000  0.16666667       0.016
   0.44444444  0.00000000  0.16666667       0.016
   0.11111111  0.11111111  0.16666667       0.016
   0.22222222  0.11111111  0.16666667       0.033
   0.33333333  0.11111111  0.16666667       0.033
   0.44444444  0.11111111  0.16666667       0.033
   0.22222222  0.22222222  0.16666667       0.016
   0.33333333  0.22222222  0.16666667       0.033
   0.44444444  0.22222222  0.16666667       0.033
   0.33333333  0.33333333  0.16666667       0.016
   0.44444444  0.33333333  0.16666667       0.033
   0.44444444  0.44444444  0.16666667       0.016
   0.00000000  0.00000000  0.33333333       0.004
   0.11111111  0.00000000  0.33333333       0.016
   0.22222222  0.00000000  0.33333333       0.016
   0.33333333  0.00000000  0.33333333       0.016
   0.44444444  0.00000000  0.33333333       0.016
   0.11111111  0.11111111  0.33333333       0.016
   0.22222222  0.11111111  0.33333333       0.033
   0.33333333  0.11111111  0.33333333       0.033
   0.44444444  0.11111111  0.33333333       0.033
   0.22222222  0.22222222  0.33333333       0.016
   0.33333333  0.22222222  0.33333333       0.033
   0.44444444  0.22222222  0.33333333       0.033
   0.33333333  0.33333333  0.33333333       0.016
   0.44444444  0.33333333  0.33333333       0.033
   0.44444444  0.44444444  0.33333333       0.016
   0.00000000  0.00000000  0.50000000       0.002
   0.11111111  0.00000000  0.50000000       0.008
   0.22222222  0.00000000  0.50000000       0.008
   0.33333333  0.00000000  0.50000000       0.008
   0.44444444  0.00000000  0.50000000       0.008
   0.11111111  0.11111111  0.50000000       0.008
   0.22222222  0.11111111  0.50000000       0.016
   0.33333333  0.11111111  0.50000000       0.016
   0.44444444  0.11111111  0.50000000       0.016
   0.22222222  0.22222222  0.50000000       0.008
   0.33333333  0.22222222  0.50000000       0.016
   0.44444444  0.22222222  0.50000000       0.016
   0.33333333  0.33333333  0.50000000       0.008
   0.44444444  0.33333333  0.50000000       0.016
   0.44444444  0.44444444  0.50000000       0.008
 
 position of ions in fractional coordinates (direct lattice) 
   0.00000000  0.00000000  0.00000000
   0.00000000  0.00000000  0.50000000
   0.00000000  0.50000000  0.00000000
   0.00000000  0.50000000  0.50000000
   0.50000000  0.00000000  0.00000000
   0.50000000  0.00000000  0.50000000
   0.50000000  0.50000000  0.00000000
   0.50000000  0.50000000  0.50000000
   0.25000000  0.25000000  0.25000000
   0.25000000  0.25000000  0.75000000
   0.25000000  0.75000000  0.25000000
   0.25000000  0.75000000  0.75000000
   0.75000000  0.25000000  0.25000000
   0.75000000  0.25000000  0.75000000
   0.75000000  0.75000000  0.25000000
   0.75000000  0.75000000  0.75000000
 
 position of ions in cartesian coordinates  (Angst):
   0.00000000  0.00000000  0.00000000
   0.00000000  0.00000000  4.06231459
   0.00000000  2.82534089  0.00000000
   0.00000000  2.82534089  4.06231459
   2.82534089  0.00000000  0.00000000
   2.82534089  0.00000000  4.06231459
   2.82534089  2.82534089  0.00000000
   2.82534089  2.82534089  4.06231459
   1.41267044  1.41267044  2.03115730
   1.41267044  1.41267044  6.09347189
   1.41267044  4.23801133  2.03115730
   1.41267044  4.23801133  6.09347189
   4.23801133  1.41267044  2.03115730
   4.23801133  1.41267044  6.09347189
   4.23801133  4.23801133  2.03115730
   4.23801133  4.23801133  6.09347189
 


--------------------------------------------------------------------------------------------------------


 k-point     1 :   0.0000 0.0000 0.0000  plane waves:    6979
 k-point     2 :   0.1111 0.0000 0.0000  plane waves:    6995
 k-point     3 :   0.2222 0.0000 0.0000  plane waves:    6993
 k-point     4 :   0.3333 0.0000 0.0000  plane waves:    6995
 k-point     5 :   0.4444 0.0000 0.0000  plane waves:    6981
 k-point     6 :   0.1111 0.1111 0.0000  plane waves:    6991
 k-point     7 :   0.2222 0.1111 0.0000  plane waves:    7003
 k-point     8 :   0.3333 0.1111 0.0000  plane waves:    6997
 k-point     9 :   0.4444 0.1111 0.0000  plane waves:    6989
 k-point    10 :   0.2222 0.2222 0.0000  plane waves:    7013
 k-point    11 :   0.3333 0.2222 0.0000  plane waves:    6986
 k-point    12 :   0.4444 0.2222 0.0000  plane waves:    6956
 k-point    13 :   0.3333 0.3333 0.0000  plane waves:    6973
 k-point    14 :   0.4444 0.3333 0.0000  plane waves:    6947
 k-point    15 :   0.4444 0.4444 0.0000  plane waves:    6946
 k-point    16 :   0.0000 0.0000 0.1667  plane waves:    7006
 k-point    17 :   0.1111 0.0000 0.1667  plane waves:    7000
 k-point    18 :   0.2222 0.0000 0.1667  plane waves:    6991
 k-point    19 :   0.3333 0.0000 0.1667  plane waves:    6992
 k-point    20 :   0.4444 0.0000 0.1667  plane waves:    6984
 k-point    21 :   0.1111 0.1111 0.1667  plane waves:    6997
 k-point    22 :   0.2222 0.1111 0.1667  plane waves:    6991
 k-point    23 :   0.3333 0.1111 0.1667  plane waves:    6989
 k-point    24 :   0.4444 0.1111 0.1667  plane waves:    6991
 k-point    25 :   0.2222 0.2222 0.1667  plane waves:    6992
 k-point    26 :   0.3333 0.2222 0.1667  plane waves:    6984
 k-point    27 :   0.4444 0.2222 0.1667  plane waves:    6976
 k-point    28 :   0.3333 0.3333 0.1667  plane waves:    6977
 k-point    29 :   0.4444 0.3333 0.1667  plane waves:    6963
 k-point    30 :   0.4444 0.4444 0.1667  plane waves:    6950
 k-point    31 :   0.0000 0.0000 0.3333  plane waves:    7006
 k-point    32 :   0.1111 0.0000 0.3333  plane waves:    7003
 k-point    33 :   0.2222 0.0000 0.3333  plane waves:    7006
 k-point    34 :   0.3333 0.0000 0.3333  plane waves:    6993
 k-point    35 :   0.4444 0.0000 0.3333  plane waves:    6974
 k-point    36 :   0.1111 0.1111 0.3333  plane waves:    6999
 k-point    37 :   0.2222 0.1111 0.3333  plane waves:    6986
 k-point    38 :   0.3333 0.1111 0.3333  plane waves:    6990
 k-point    39 :   0.4444 0.1111 0.3333  plane waves:    6994
 k-point    40 :   0.2222 0.2222 0.3333  plane waves:    6986
 k-point    41 :   0.3333 0.2222 0.3333  plane waves:    7001
 k-point    42 :   0.4444 0.2222 0.3333  plane waves:    6983
 k-point    43 :   0.3333 0.3333 0.3333  plane waves:    6983
 k-point    44 :   0.4444 0.3333 0.3333  plane waves:    6965
 k-point    45 :   0.4444 0.4444 0.3333  plane waves:    6950
 k-point    46 :   0.0000 0.0000 0.5000  plane waves:    7014
 k-point    47 :   0.1111 0.0000 0.5000  plane waves:    7000
 k-point    48 :   0.2222 0.0000 0.5000  plane waves:    6974
 k-point    49 :   0.3333 0.0000 0.5000  plane waves:    6978
 k-point    50 :   0.4444 0.0000 0.5000  plane waves:    7004
 k-point    51 :   0.1111 0.1111 0.5000  plane waves:    7000
 k-point    52 :   0.2222 0.1111 0.5000  plane waves:    6976
 k-point    53 :   0.3333 0.1111 0.5000  plane waves:    6972
 k-point    54 :   0.4444 0.1111 0.5000  plane waves:    6988
 k-point    55 :   0.2222 0.2222 0.5000  plane waves:    6986
 k-point    56 :   0.3333 0.2222 0.5000  plane waves:    6992
 k-point    57 :   0.4444 0.2222 0.5000  plane waves:    6986
 k-point    58 :   0.3333 0.3333 0.5000  plane waves:    7014
 k-point    59 :   0.4444 0.3333 0.5000  plane waves:    7000
 k-point    60 :   0.4444 0.4444 0.5000  plane waves:    6970

 maximum and minimum number of plane-waves per node :      7014     6946

 maximum number of plane-waves:      7014
 maximum index in each direction: 
   IXMAX=   10   IYMAX=   10   IZMAX=   15
   IXMIN=  -10   IYMIN=  -10   IZMIN=  -15


 serial   3D FFT for wavefunctions
 parallel 3D FFT for charge:
    minimum data exchange during FFTs selected (reduces bandwidth)


 total amount of memory used by VASP MPI-rank0   170474. kBytes
=======================================================================

   base                                    :      30000. kBytes
   nonl-proj                               :     123453. kBytes
   fftplans                                :        434. kBytes
   grid                                    :       2331. kBytes
   one-center                              :        248. kBytes
   wavefun                                 :      14008. kBytes
 
     INWAV:  cpu time      0.0000: real time      0.0000
 initial charge density was supplied:
 number of electron     119.9999793 magnetization 
 keeping initial charge density in first step


--------------------------------------------------------------------------------------------------------


 Maximum index for augmentation-charges          455 (set IRDMAX)


--------------------------------------------------------------------------------------------------------


 First call to EWALD:  gamma=   0.278
 Maximum number of real-space cells   3x   3x   2
 Maximum number of reciprocal cells   2x   2x   3

    FEWALD:  cpu time      0.0009: real time      0.0009


--------------------------------------- Ionic step        1  -------------------------------------------




--------------------------------------- Iteration      1(   1)  ---------------------------------------


    POTLOK:  cpu time      0.0081: real time      0.0081
    SETDIJ:  cpu time      0.0022: real time      0.0022
     EDDAV:  cpu time      7.4049: real time      7.4052
       DOS:  cpu time      0.0010: real time      0.0010
    --------------------------------------------
      LOOP:  cpu time      7.4162: real time      7.4165

 eigenvalue-minimisations  : 15360
 total energy-change (2. order) : 0.9244464E+03  (-0.5971888E+04)
 number of electron     119.9999793 magnetization 
 augmentation part      119.9999793 magnetization 

 Free energy of the ion-electron system (eV)
  ---------------------------------------------------
  alpha Z        PSCENC =       302.45033193
  Ewald energy   TEWEN  =     -8685.12768637
  -Hartree energ DENC   =     -3930.14505695
  -exchange      EXHF   =         0.00000000
  -V(xc)+E(xc)   XCENC  =       279.29652063
  PAW double counting   =     13277.44161293   -12838.39576300
  entropy T*S    EENTRO =        -0.00564827
  eigenvalues    EBANDS =      -614.05551229
  atomic energy  EATOM  =     13132.98755513
  Solvation  Ediel_sol  =         0.00000000
  ---------------------------------------------------
  free energy    TOTEN  =       924.44635373 eV

  energy without entropy =      924.45200201  energy(sigma->0) =      924.44823649


--------------------------------------------------------------------------------------------------------




--------------------------------------- Iteration      1(   2)  ---------------------------------------


     EDDAV:  cpu time      7.9376: real time      7.9379
       DOS:  cpu time      0.0010: real time      0.0010
    --------------------------------------------
      LOOP:  cpu time      7.9385: real time      7.9389

 eigenvalue-minimisations  : 16128
 total energy-change (2. order) :-0.9472785E+03  (-0.9059829E+03)
 number of electron     119.9999793 magnetization 
 augmentation part      119.9999793 magnetization 

 Free energy of the ion-electron system (eV)
  ---------------------------------------------------
  alpha Z        PSCENC =       302.45033193
  Ewald energy   TEWEN  =     -8685.12768637
  -Hartree energ DENC   =     -3930.14505695
  -exchange      EXHF   =         0.00000000
  -V(xc)+E(xc)   XCENC  =       279.29652063
  PAW double counting   =     13277.44161293   -12838.39576300
  entropy T*S    EENTRO =         0.00065496
  eigenvalues    EBANDS =     -1561.34027516
  atomic energy  EATOM  =     13132.98755513
  Solvation  Ediel_sol  =         0.00000000
  ---------------------------------------------------
  free energy    TOTEN  =       -22.83210590 eV

  energy without entropy =      -22.83276086  energy(sigma->0) =      -22.83232422


--------------------------------------------------------------------------------------------------------




--------------------------------------- Iteration      1(   3)  ---------------------------------------


     EDDAV:  cpu time     21.7977: real time     21.7985
       DOS:  cpu time      0.0008: real time      0.0008
    --------------------------------------------
      LOOP:  cpu time     21.7986: real time     21.7994

 eigenvalue-minimisations  : 29952
 total energy-change (2. order) :-0.7377357E+02  (-0.7218347E+02)
 number of electron     119.9999793 magnetization 
 augmentation part      119.9999793 magnetization 

 Free energy of the ion-electron system (eV)
  ---------------------------------------------------
  alpha Z        PSCENC =       302.45033193
  Ewald energy   TEWEN  =     -8685.12768637
  -Hartree energ DENC   =     -3930.14505695
  -exchange      EXHF   =         0.00000000
  -V(xc)+E(xc)   XCENC  =       279.29652063
  PAW double counting   =     13277.44161293   -12838.39576300
  entropy T*S    EENTRO =        -0.00139780
  eigenvalues    EBANDS =     -1635.11179216
  atomic energy  EATOM  =     13132.98755513
  Solvation  Ediel_sol  =         0.00000000
  ---------------------------------------------------
  free energy    TOTEN  =       -96.60567566 eV

  energy without entropy =      -96.60427787  energy(sigma->0) =      -96.60520973


--------------------------------------------------------------------------------------------------------




--------------------------------------- Iteration      1(   4)  ---------------------------------------


     EDDAV:  cpu time      7.7839: real time      7.7840
       DOS:  cpu time      0.0011: real time      0.0011
    --------------------------------------------
      LOOP:  cpu time      7.7850: real time      7.7852

 eigenvalue-minimisations  : 15872
 total energy-change (2. order) :-0.2487213E+01  (-0.2486478E+01)
 number of electron     119.9999793 magnetization 
 augmentation part      119.9999793 magnetization 

 Free energy of the ion-electron system (eV)
  ---------------------------------------------------
  alpha Z        PSCENC =       302.45033193
  Ewald energy   TEWEN  =     -8685.12768637
  -Hartree energ DENC   =     -3930.14505695
  -exchange      EXHF   =         0.00000000
  -V(xc)+E(xc)   XCENC  =       279.29652063
  PAW double counting   =     13277.44161293   -12838.39576300
  entropy T*S    EENTRO =        -0.00090327
  eigenvalues    EBANDS =     -1637.59949922
  atomic energy  EATOM  =     13132.98755513
  Solvation  Ediel_sol  =         0.00000000
  ---------------------------------------------------
  free energy    TOTEN  =       -99.09288819 eV

  energy without entropy =      -99.09198493  energy(sigma->0) =      -99.09258710


--------------------------------------------------------------------------------------------------------




--------------------------------------- Iteration      1(   5)  ---------------------------------------


     EDDAV:  cpu time     14.8466: real time     14.8471
       DOS:  cpu time      0.0009: real time      0.0009
    --------------------------------------------
      LOOP:  cpu time     14.8475: real time     14.8480

 eigenvalue-minimisations  : 22912
 total energy-change (2. order) :-0.5414376E-01  (-0.5414244E-01)
 number of electron     119.9999793 magnetization 
 augmentation part      119.9999793 magnetization 

 Free energy of the ion-electron system (eV)
  ---------------------------------------------------
  alpha Z        PSCENC =       302.45033193
  Ewald energy   TEWEN  =     -8685.12768637
  -Hartree energ DENC   =     -3930.14505695
  -exchange      EXHF   =         0.00000000
  -V(xc)+E(xc)   XCENC  =       279.29652063
  PAW double counting   =     13277.44161293   -12838.39576300
  entropy T*S    EENTRO =        -0.00089017
  eigenvalues    EBANDS =     -1637.65365608
  atomic energy  EATOM  =     13132.98755513
  Solvation  Ediel_sol  =         0.00000000
  ---------------------------------------------------
  free energy    TOTEN  =       -99.14703195 eV

  energy without entropy =      -99.14614178  energy(sigma->0) =      -99.14673523


--------------------------------------------------------------------------------------------------------




--------------------------------------- Iteration      1(   6)  ---------------------------------------


     EDDAV:  cpu time     10.8210: real time     10.8214
       DOS:  cpu time      0.0009: real time      0.0009
    --------------------------------------------
      LOOP:  cpu time     10.8220: real time     10.8224

 eigenvalue-minimisations  : 19264
 total energy-change (2. order) :-0.1683818E-02  (-0.1683817E-02)
 number of electron     119.9999793 magnetization 
 augmentation part      119.9999793 magnetization 

 Free energy of the ion-electron system (eV)
  ---------------------------------------------------
  alpha Z        PSCENC =       302.45033193
  Ewald energy   TEWEN  =     -8685.12768637
  -Hartree energ DENC   =     -3930.14505695
  -exchange      EXHF   =         0.00000000
  -V(xc)+E(xc)   XCENC  =       279.29652063
  PAW double counting   =     13277.44161293   -12838.39576300
  entropy T*S    EENTRO =        -0.00088991
  eigenvalues    EBANDS =     -1637.65534015
  atomic energy  EATOM  =     13132.98755513
  Solvation  Ediel_sol  =         0.00000000
  ---------------------------------------------------
  free energy    TOTEN  =       -99.14871577 eV

  energy without entropy =      -99.14782585  energy(sigma->0) =      -99.14841913


--------------------------------------------------------------------------------------------------------




--------------------------------------- Iteration      1(   7)  ---------------------------------------


     EDDAV:  cpu time     16.7218: real time     16.7238
       DOS:  cpu time      0.0009: real time      0.0009
    --------------------------------------------
      LOOP:  cpu time     16.7227: real time     16.7248

 eigenvalue-minimisations  : 24896
 total energy-change (2. order) :-0.7197013E-04  (-0.7196971E-04)
 number of electron     119.9999793 magnetization 
 augmentation part      119.9999793 magnetization 

 Free energy of the ion-electron system (eV)
  ---------------------------------------------------
  alpha Z        PSCENC =       302.45033193
  Ewald energy   TEWEN  =     -8685.12768637
  -Hartree energ DENC   =     -3930.14505695
  -exchange      EXHF   =         0.00000000
  -V(xc)+E(xc)   XCENC  =       279.29652063
  PAW double counting   =     13277.44161293   -12838.39576300
  entropy T*S    EENTRO =        -0.00088990
  eigenvalues    EBANDS =     -1637.65541213
  atomic energy  EATOM  =     13132.98755513
  Solvation  Ediel_sol  =         0.00000000
  ---------------------------------------------------
  free energy    TOTEN  =       -99.14878774 eV

  energy without entropy =      -99.14789784  energy(sigma->0) =      -99.14849110


--------------------------------------------------------------------------------------------------------




--------------------------------------- Iteration      1(   8)  ---------------------------------------


     EDDAV:  cpu time      9.7752: real time      9.7786
       DOS:  cpu time      0.0009: real time      0.0009
    --------------------------------------------
      LOOP:  cpu time      9.7761: real time      9.7795

 eigenvalue-minimisations  : 17600
 total energy-change (2. order) :-0.2094564E-05  (-0.2094282E-05)
 number of electron     119.9999793 magnetization 
 augmentation part      119.9999793 magnetization 

 Free energy of the ion-electron system (eV)
  ---------------------------------------------------
  alpha Z        PSCENC =       302.45033193
  Ewald energy   TEWEN  =     -8685.12768637
  -Hartree energ DENC   =     -3930.14505695
  -exchange      EXHF   =         0.00000000
  -V(xc)+E(xc)   XCENC  =       279.29652063
  PAW double counting   =     13277.44161293   -12838.39576300
  entropy T*S    EENTRO =        -0.00088990
  eigenvalues    EBANDS =     -1637.65541423
  atomic energy  EATOM  =     13132.98755513
  Solvation  Ediel_sol  =         0.00000000
  ---------------------------------------------------
  free energy    TOTEN  =       -99.14878983 eV

  energy without entropy =      -99.14789993  energy(sigma->0) =      -99.14849320


--------------------------------------------------------------------------------------------------------




--------------------------------------- Iteration      1(   9)  ---------------------------------------


     EDDAV:  cpu time     14.5444: real time     14.5490
       DOS:  cpu time      0.0017: real time      0.0016
    --------------------------------------------
      LOOP:  cpu time     14.5460: real time     14.5506

 eigenvalue-minimisations  : 21184
 total energy-change (2. order) :-0.1035060E-06  (-0.1039517E-06)
 number of electron     119.9999793 magnetization 
 augmentation part      119.9999793 magnetization 

 Free energy of the ion-electron system (eV)
  ---------------------------------------------------
  alpha Z        PSCENC =       302.45033193
  Ewald energy   TEWEN  =     -8685.12768637
  -Hartree energ DENC   =     -3930.14505695
  -exchange      EXHF   =         0.00000000
  -V(xc)+E(xc)   XCENC  =       279.29652063
  PAW double counting   =     13277.44161293   -12838.39576300
  entropy T*S    EENTRO =        -0.00088990
  eigenvalues    EBANDS =     -1637.65541433
  atomic energy  EATOM  =     13132.98755513
  Solvation  Ediel_sol  =         0.00000000
  ---------------------------------------------------
  free energy    TOTEN  =       -99.14878994 eV

  energy without entropy =      -99.14790004  energy(sigma->0) =      -99.14849330


--------------------------------------------------------------------------------------------------------




 average (electrostatic) potential at core
  the test charge radii are     1.0397  1.0406
  (the norm of the test charge is              1.0000)
       1 -72.2916       2 -72.2916       3 -72.2916       4 -72.2916       5 -72.2916
       6 -72.2916       7 -72.2916       8 -72.2916       9 -71.3282      10 -71.3282
      11 -71.3282      12 -71.3282      13 -71.3282      14 -71.3282      15 -71.3282
      16 -71.3282
 
 
 
 E-fermi :   8.3272     XC(G=0): -11.0388     alpha+bet :-16.2322

 val. band max:        8.3239171952   @ k =   0.2222   0.0000   0.0000
 cond. band min:       8.3275835338   @ k =   0.2222   0.0000   0.1667
 fundamental gap:      0.0036663386
 Fermi energy:         8.3271755982

 k-point     1 :       0.0000    0.0000    0.0000
  band No.  band energies     occupation 
      1     -48.3014      2.00000
      2     -48.3008      2.00000
      3     -48.2439      2.00000
      4     -48.2439      2.00000
      5     -48.2434      2.00000
      6     -48.2434      2.00000
      7     -48.1885      2.00000
      8     -48.1881      2.00000
      9     -24.7265      2.00000
     10     -24.7265      2.00000
     11     -24.7238      2.00000
     12     -24.7238      2.00000
     13     -24.7143      2.00000
     14     -24.6970      2.00000
     15     -24.6595      2.00000
     16     -24.6595      2.00000
     17     -24.6581      2.00000
     18     -24.6581      2.00000
     19     -24.6523      2.00000
     20     -24.6523      2.00000
     21     -24.6398      2.00000
     22     -24.6398      2.00000
     23     -24.5976      2.00000
     24     -24.5869      2.00000
     25     -24.2551      2.00000
     26     -24.2551      2.00000
     27     -24.2546      2.00000
     28     -24.2546      2.00000
     29     -24.2136      2.00000
     30     -24.2136      2.00000
     31     -24.2130      2.00000
     32     -24.2130      2.00000
     33      -0.7127      2.00000
     34       0.7641      2.00000
     35       3.0640      2.00000
     36       3.4100      2.00000
     37       3.4100      2.00000
     38       3.7561      2.00000
     39       3.7561      2.00000
     40       3.7936      2.00000
     41       3.7936      2.00000
     42       5.1439      2.00000
     43       5.3922      2.00000
     44       5.3922      2.00000
     45       5.8284      2.00000
     46       6.0606      2.00000
     47       6.0606      2.00000
     48       6.4711      2.00000
     49       6.6386      2.00000
     50       6.6386      2.00000
     51       7.1276      2.00000
     52       7.1276      2.00000
     53       7.1736      2.00000
     54       7.1736      2.00000
     55       7.4811      2.00000
     56       7.6516      2.00000
     57       7.8495      2.00000
     58       7.8495      2.00000
     59       7.9146      2.00000
     60       7.9888      2.00002
     61       8.0763      2.00222
     62       8.0763      2.00222
     63       8.1237      2.01428
     64       8.1237      2.01428
     65       8.9772     -0.00000
     66       9.7073     -0.00000
     67       9.7073     -0.00000
     68      10.0767     -0.00000
     69      10.0767     -0.00000
     70      10.0781     -0.00000
     71      10.1212     -0.00000
     72      10.1212     -0.00000
     73      10.1300     -0.00000
     74      10.1300     -0.00000
     75      10.4531      0.00000
     76      10.4788      0.00000
     77      10.4788      0.00000
     78      10.6078      0.00000
     79      10.6078      0.00000
     80      10.8336      0.00000
     81      10.8336      0.00000
     82      11.0352      0.00000
     83      11.6355      0.00000
     84      11.6491      0.00000
     85      12.1340      0.00000
     86      12.1340      0.00000
     87      12.4962      0.00000
     88      12.4962      0.00000
     89      12.4985      0.00000
     90      12.5008      0.00000
     91      12.6386      0.00000
     92      12.6386      0.00000
     93      13.2879      0.00000
     94      13.3477      0.00000
     95      13.3477      0.00000
     96      13.4487      0.00000
     97      13.4487      0.00000
     98      13.6570      0.00000
     99      13.6570      0.00000
    100      13.9746      0.00000
    101      13.9746      0.00000
    102      14.3181      0.00000
    103      14.5165      0.00000
    104      14.6680      0.00000
    105      16.2354      0.00000
    106      16.3133      0.00000
    107      16.3133      0.00000
    108      16.6082      0.00000
    109      16.6722      0.00000
    110      16.6722      0.00000
    111      17.4169      0.00000
    112      17.7213      0.00000
    113      18.6683      0.00000
    114      18.6683      0.00000
    115      19.0549      0.00000
    116      19.0549      0.00000
    117      19.3889      0.00000
    118      19.3889      0.00000
    119      19.9484      0.00000
    120      20.5528      0.00000
    121      20.5528      0.00000
    122      20.5732      0.00000
    123      20.5732      0.00000
    124      20.9727      0.00000
    125      20.9766      0.00000
    126      20.9766      0.00000
    127      21.0255      0.00000
    128      21.0256      0.00000

 k-point     2 :       0.1111    0.0000    0.0000
  band No.  band energies     occupation 
      1     -48.2997      2.00000
      2     -48.2990      2.00000
      3     -48.2456      2.00000
      4     -48.2452      2.00000
      5     -48.2422      2.00000
      6     -48.2418      2.00000
      7     -48.1902      2.00000
      8     -48.1898      2.00000
      9     -24.7245      2.00000
     10     -24.7219      2.00000
     11     -24.7126      2.00000
     12     -24.7125      2.00000
     13     -24.7100      2.00000
     14     -24.6953      2.00000
     15     -24.6615      2.00000
     16     -24.6601      2.00000
     17     -24.6542      2.00000
     18     -24.6507      2.00000
     19     -24.6464      2.00000
     20     -24.6450      2.00000
     21     -24.6415      2.00000
     22     -24.6382      2.00000
     23     -24.5992      2.00000
     24     -24.5885      2.00000
     25     -24.2698      2.00000
     26     -24.2691      2.00000
     27     -24.2539      2.00000
     28     -24.2533      2.00000
     29     -24.2274      2.00000
     30     -24.2267      2.00000
     31     -24.2149      2.00000
     32     -24.2142      2.00000
     33      -0.6519      2.00000
     34       0.8088      2.00000
     35       2.9017      2.00000
     36       3.1319      2.00000
     37       3.2002      2.00000
     38       3.4599      2.00000
     39       3.7908      2.00000
     40       3.8535      2.00000
     41       4.6972      2.00000
     42       5.0940      2.00000
     43       5.4143      2.00000
     44       5.6524      2.00000
     45       5.8621      2.00000
     46       5.9033      2.00000
     47       6.0451      2.00000
     48       6.5211      2.00000
     49       6.5300      2.00000
     50       6.6714      2.00000
     51       6.6726      2.00000
     52       7.1215      2.00000
     53       7.1478      2.00000
     54       7.2208      2.00000
     55       7.5045      2.00000
     56       7.6645      2.00000
     57       7.6849      2.00000
     58       7.8832      2.00000
     59       7.9330      2.00000
     60       8.0298      2.00022
     61       8.0615      2.00112
     62       8.1436      2.02619
     63       8.1741      2.05256
     64       8.5844     -0.00167
     65       9.0006     -0.00000
     66       9.7019     -0.00000
     67       9.7283     -0.00000
     68       9.9503     -0.00000
     69       9.9944     -0.00000
     70      10.1147     -0.00000
     71      10.1350     -0.00000
     72      10.1682     -0.00000
     73      10.1891     -0.00000
     74      10.2907     -0.00000
     75      10.4258      0.00000
     76      10.4890      0.00000
     77      10.5482      0.00000
     78      10.5835      0.00000
     79      10.5921      0.00000
     80      10.6544      0.00000
     81      10.8224      0.00000
     82      10.9172      0.00000
     83      11.5744      0.00000
     84      11.5927      0.00000
     85      11.7688      0.00000
     86      12.1363      0.00000
     87      12.2095      0.00000
     88      12.3793      0.00000
     89      12.4268      0.00000
     90      12.4302      0.00000
     91      12.6275      0.00000
     92      13.0741      0.00000
     93      13.2588      0.00000
     94      13.3744      0.00000
     95      13.4382      0.00000
     96      13.6138      0.00000
     97      13.6770      0.00000
     98      13.8119      0.00000
     99      13.8200      0.00000
    100      13.9736      0.00000
    101      14.0664      0.00000
    102      14.4104      0.00000
    103      14.5114      0.00000
    104      14.7088      0.00000
    105      15.6934      0.00000
    106      15.9806      0.00000
    107      16.2783      0.00000
    108      16.5845      0.00000
    109      16.7521      0.00000
    110      16.8019      0.00000
    111      17.6930      0.00000
    112      18.2085      0.00000
    113      18.4242      0.00000
    114      18.7411      0.00000
    115      19.0789      0.00000
    116      19.3083      0.00000
    117      19.3395      0.00000
    118      19.4041      0.00000
    119      19.4433      0.00000
    120      19.6466      0.00000
    121      20.1660      0.00000
    122      20.2565      0.00000
    123      20.4435      0.00000
    124      20.4642      0.00000
    125      20.4951      0.00000
    126      20.6181      0.00000
    127      20.6786      0.00000
    128      20.7632      0.00000

 k-point     3 :       0.2222    0.0000    0.0000
  band No.  band energies     occupation 
      1     -48.2947      2.00000
      2     -48.2941      2.00000
      3     -48.2506      2.00000
      4     -48.2502      2.00000
      5     -48.2374      2.00000
      6     -48.2370      2.00000
      7     -48.1950      2.00000
      8     -48.1946      2.00000
      9     -24.7187      2.00000
     10     -24.7162      2.00000
     11     -24.7071      2.00000
     12     -24.6903      2.00000
     13     -24.6727      2.00000
     14     -24.6702      2.00000
     15     -24.6674      2.00000
     16     -24.6658      2.00000
     17     -24.6596      2.00000
     18     -24.6465      2.00000
     19     -24.6460      2.00000
     20     -24.6336      2.00000
     21     -24.6085      2.00000
     22     -24.6072      2.00000
     23     -24.6040      2.00000
     24     -24.5931      2.00000
     25     -24.3117      2.00000
     26     -24.3109      2.00000
     27     -24.2670      2.00000
     28     -24.2663      2.00000
     29     -24.2503      2.00000
     30     -24.2498      2.00000
     31     -24.2185      2.00000
     32     -24.2178      2.00000
     33      -0.4704      2.00000
     34       0.9422      2.00000
     35       2.1003      2.00000
     36       2.7595      2.00000
     37       3.3326      2.00000
     38       3.6084      2.00000
     39       3.8928      2.00000
     40       4.0314      2.00000
     41       4.9530      2.00000
     42       5.4778      2.00000
     43       5.5195      2.00000
     44       5.6268      2.00000
     45       5.8710      2.00000
     46       5.9607      2.00000
     47       5.9978      2.00000
     48       6.2412      2.00000
     49       6.4402      2.00000
     50       6.6630      2.00000
     51       6.7674      2.00000
     52       6.7730      2.00000
     53       6.9782      2.00000
     54       7.4962      2.00000
     55       7.5634      2.00000
     56       7.7782      2.00000
     57       7.7824      2.00000
     58       7.8920      2.00000
     59       7.8981      2.00000
     60       7.9922      2.00002
     61       8.0055      2.00005
     62       8.3239      1.05512
     63       8.3389      0.80349
     64       9.0697     -0.00000
     65       9.1447     -0.00000
     66       9.6328     -0.00000
     67       9.6348     -0.00000
     68       9.6748     -0.00000
     69       9.7896     -0.00000
     70      10.1749     -0.00000
     71      10.2264     -0.00000
     72      10.2434     -0.00000
     73      10.2801     -0.00000
     74      10.3420      0.00000
     75      10.3572      0.00000
     76      10.5186      0.00000
     77      10.5199      0.00000
     78      10.5474      0.00000
     79      10.6875      0.00000
     80      10.7436      0.00000
     81      10.7903      0.00000
     82      10.8143      0.00000
     83      10.9543      0.00000
     84      11.4064      0.00000
     85      11.4352      0.00000
     86      12.0470      0.00000
     87      12.0825      0.00000
     88      12.1383      0.00000
     89      12.2754      0.00000
     90      12.4346      0.00000
     91      12.5915      0.00000
     92      12.8276      0.00000
     93      13.4717      0.00000
     94      13.4818      0.00000
     95      13.8691      0.00000
     96      13.9691      0.00000
     97      14.0707      0.00000
     98      14.2366      0.00000
     99      14.2477      0.00000
    100      14.2855      0.00000
    101      14.3034      0.00000
    102      14.3731      0.00000
    103      14.6047      0.00000
    104      14.6621      0.00000
    105      14.8702      0.00000
    106      15.3661      0.00000
    107      16.1708      0.00000
    108      16.9812      0.00000
    109      17.2588      0.00000
    110      17.3286      0.00000
    111      17.7788      0.00000
    112      17.8459      0.00000
    113      17.8920      0.00000
    114      18.6113      0.00000
    115      18.9184      0.00000
    116      18.9532      0.00000
    117      18.9545      0.00000
    118      18.9723      0.00000
    119      19.1513      0.00000
    120      19.3526      0.00000
    121      19.5795      0.00000
    122      19.6642      0.00000
    123      19.8487      0.00000
    124      20.0761      0.00000
    125      20.1478      0.00000
    126      20.2127      0.00000
    127      20.3166      0.00000
    128      20.8212      0.00000

 k-point     4 :       0.3333    0.0000    0.0000
  band No.  band energies     occupation 
      1     -48.2871      2.00000
      2     -48.2865      2.00000
      3     -48.2583      2.00000
      4     -48.2578      2.00000
      5     -48.2301      2.00000
      6     -48.2297      2.00000
      7     -48.2024      2.00000
      8     -48.2020      2.00000
      9     -24.7098      2.00000
     10     -24.7075      2.00000
     11     -24.6989      2.00000
     12     -24.6827      2.00000
     13     -24.6763      2.00000
     14     -24.6746      2.00000
     15     -24.6679      2.00000
     16     -24.6541      2.00000
     17     -24.6387      2.00000
     18     -24.6266      2.00000
     19     -24.6113      2.00000
     20     -24.6111      2.00000
     21     -24.6089      2.00000
     22     -24.6002      2.00000
     23     -24.5502      2.00000
     24     -24.5489      2.00000
     25     -24.3755      2.00000
     26     -24.3744      2.00000
     27     -24.3273      2.00000
     28     -24.3265      2.00000
     29     -24.2448      2.00000
     30     -24.2442      2.00000
     31     -24.2240      2.00000
     32     -24.2234      2.00000
     33      -0.1713      2.00000
     34       1.1620      2.00000
     35       1.3838      2.00000
     36       2.2830      2.00000
     37       3.6574      2.00000
     38       3.8521      2.00000
     39       4.0553      2.00000
     40       4.3220      2.00000
     41       4.7452      2.00000
     42       5.0522      2.00000
     43       5.2231      2.00000
     44       5.5747      2.00000
     45       5.7882      2.00000
     46       5.9184      2.00000
     47       6.1166      2.00000
     48       6.4811      2.00000
     49       6.7746      2.00000
     50       6.8729      2.00000
     51       6.9197      2.00000
     52       6.9345      2.00000
     53       6.9535      2.00000
     54       7.5735      2.00000
     55       7.6145      2.00000
     56       7.6558      2.00000
     57       7.7041      2.00000
     58       7.9113      2.00000
     59       7.9421      2.00000
     60       8.1546      2.03484
     61       8.1883      2.06437
     62       8.5686     -0.00337
     63       8.6392     -0.00009
     64       9.0938     -0.00000
     65       9.1808     -0.00000
     66       9.2329     -0.00000
     67       9.4057     -0.00000
     68       9.6016     -0.00000
     69       9.7668     -0.00000
     70       9.8857     -0.00000
     71      10.0235     -0.00000
     72      10.2368     -0.00000
     73      10.3157     -0.00000
     74      10.4041      0.00000
     75      10.4432      0.00000
     76      10.4577      0.00000
     77      10.4798      0.00000
     78      10.4966      0.00000
     79      10.5644      0.00000
     80      10.6134      0.00000
     81      10.7417      0.00000
     82      11.0390      0.00000
     83      11.1673      0.00000
     84      11.2072      0.00000
     85      11.4111      0.00000
     86      11.7022      0.00000
     87      11.7572      0.00000
     88      12.1232      0.00000
     89      12.2005      0.00000
     90      12.3311      0.00000
     91      12.5228      0.00000
     92      12.8043      0.00000
     93      13.1765      0.00000
     94      13.7158      0.00000
     95      13.7681      0.00000
     96      13.9556      0.00000
     97      14.2795      0.00000
     98      14.5289      0.00000
     99      14.5290      0.00000
    100      14.6373      0.00000
    101      14.8278      0.00000
    102      14.9459      0.00000
    103      14.9658      0.00000
    104      15.0104      0.00000
    105      15.2032      0.00000
    106      15.2345      0.00000
    107      15.9853      0.00000
    108      16.5508      0.00000
    109      17.1457      0.00000
    110      17.3358      0.00000
    111      17.6201      0.00000
    112      17.7202      0.00000
    113      17.9124      0.00000
    114      18.0236      0.00000
    115      18.0758      0.00000
    116      18.0913      0.00000
    117      18.1586      0.00000
    118      18.8660      0.00000
    119      18.9622      0.00000
    120      19.1221      0.00000
    121      19.2729      0.00000
    122      19.4057      0.00000
    123      19.4451      0.00000
    124      19.5579      0.00000
    125      19.7167      0.00000
    126      19.9275      0.00000
    127      21.0310      0.00000
    128      21.1819      0.00000

 k-point     5 :       0.4444    0.0000    0.0000
  band No.  band energies     occupation 
      1     -48.2777      2.00000
      2     -48.2772      2.00000
      3     -48.2677      2.00000
      4     -48.2672      2.00000
      5     -48.2211      2.00000
      6     -48.2206      2.00000
      7     -48.2115      2.00000
      8     -48.2110      2.00000
      9     -24.6989      2.00000
     10     -24.6968      2.00000
     11     -24.6888      2.00000
     12     -24.6873      2.00000
     13     -24.6854      2.00000
     14     -24.6781      2.00000
     15     -24.6734      2.00000
     16     -24.6635      2.00000
     17     -24.6298      2.00000
[...]
     90      12.4446      0.00000
     91      12.4755      0.00000
     92      12.4755      0.00000
     93      12.6685      0.00000
     94      12.6685      0.00000
     95      13.2462      0.00000
     96      13.2462      0.00000
     97      13.6498      0.00000
     98      13.6498      0.00000
     99      14.5608      0.00000
    100      14.5608      0.00000
    101      15.1694      0.00000
    102      15.1694      0.00000
    103      15.3788      0.00000
    104      15.3788      0.00000
    105      16.8787      0.00000
    106      16.8787      0.00000
    107      17.0181      0.00000
    108      17.0181      0.00000
    109      17.1962      0.00000
    110      17.1962      0.00000
    111      17.3377      0.00000
    112      17.3377      0.00000
    113      17.3676      0.00000
    114      17.3676      0.00000
    115      17.5725      0.00000
    116      17.5725      0.00000
    117      17.7095      0.00000
    118      17.7095      0.00000
    119      18.7021      0.00000
    120      18.7021      0.00000
    121      18.7535      0.00000
    122      18.7535      0.00000
    123      19.8767      0.00000
    124      19.8767      0.00000
    125      20.0670      0.00000
    126      20.0670      0.00000
    127      20.3967      0.00000
    128      20.4015      0.00000

 k-point    60 :       0.4444    0.4444    0.5000
  band No.  band energies     occupation 
      1     -48.2542      2.00000
      2     -48.2542      2.00000
      3     -48.2443      2.00000
      4     -48.2443      2.00000
      5     -48.2443      2.00000
      6     -48.2443      2.00000
      7     -48.2346      2.00000
      8     -48.2346      2.00000
      9     -24.6576      2.00000
     10     -24.6576      2.00000
     11     -24.6476      2.00000
     12     -24.6476      2.00000
     13     -24.6476      2.00000
     14     -24.6476      2.00000
     15     -24.6379      2.00000
     16     -24.6379      2.00000
     17     -24.5113      2.00000
     18     -24.5113      2.00000
     19     -24.5113      2.00000
     20     -24.5113      2.00000
     21     -24.5077      2.00000
     22     -24.5077      2.00000
     23     -24.4942      2.00000
     24     -24.4942      2.00000
     25     -24.4377      2.00000
     26     -24.4377      2.00000
     27     -24.4240      2.00000
     28     -24.4240      2.00000
     29     -24.4213      2.00000
     30     -24.4213      2.00000
     31     -24.4213      2.00000
     32     -24.4213      2.00000
     33       1.5704      2.00000
     34       1.5704      2.00000
     35       2.0281      2.00000
     36       2.0281      2.00000
     37       2.0281      2.00000
     38       2.0281      2.00000
     39       2.4725      2.00000
     40       2.4725      2.00000
     41       6.0299      2.00000
     42       6.0299      2.00000
     43       6.2606      2.00000
     44       6.2606      2.00000
     45       6.2606      2.00000
     46       6.2606      2.00000
     47       6.4189      2.00000
     48       6.4189      2.00000
     49       7.6812      2.00000
     50       7.6812      2.00000
     51       7.6812      2.00000
     52       7.6812      2.00000
     53       7.7012      2.00000
     54       7.7012      2.00000
     55       8.0625      2.00117
     56       8.0625      2.00117
     57       8.2160      2.06634
     58       8.2160      2.06634
     59       8.3811      0.21801
     60       8.3811      0.21801
     61       8.4906     -0.04294
     62       8.4906     -0.04294
     63       8.4906     -0.04294
     64       8.4906     -0.04294
     65       9.0015     -0.00000
     66       9.0015     -0.00000
     67       9.0304     -0.00000
     68       9.0304     -0.00000
     69       9.0304     -0.00000
     70       9.0304     -0.00000
     71       9.2023     -0.00000
     72       9.2023     -0.00000
     73       9.9741     -0.00000
     74       9.9741     -0.00000
     75      10.0368     -0.00000
     76      10.0368     -0.00000
     77      10.0368     -0.00000
     78      10.0368     -0.00000
     79      10.1384     -0.00000
     80      10.1384     -0.00000
     81      11.4611      0.00000
     82      11.4611      0.00000
     83      11.6833      0.00000
     84      11.6833      0.00000
     85      11.6833      0.00000
     86      11.6833      0.00000
     87      11.9640      0.00000
     88      11.9640      0.00000
     89      12.6683      0.00000
     90      12.6683      0.00000
     91      12.7371      0.00000
     92      12.7371      0.00000
     93      12.7371      0.00000
     94      12.7371      0.00000
     95      13.1444      0.00000
     96      13.1444      0.00000
     97      13.7588      0.00000
     98      13.7588      0.00000
     99      14.3831      0.00000
    100      14.3831      0.00000
    101      14.3831      0.00000
    102      14.3831      0.00000
    103      14.4868      0.00000
    104      14.4868      0.00000
    105      17.3749      0.00000
    106      17.3749      0.00000
    107      17.3941      0.00000
    108      17.3941      0.00000
    109      17.5335      0.00000
    110      17.5335      0.00000
    111      17.5335      0.00000
    112      17.5335      0.00000
    113      17.9446      0.00000
    114      17.9446      0.00000
    115      17.9446      0.00000
    116      17.9446      0.00000
    117      18.3865      0.00000
    118      18.3865      0.00000
    119      18.4550      0.00000
    120      18.4550      0.00000
    121      19.0519      0.00000
    122      19.0519      0.00000
    123      19.2031      0.00000
    124      19.2031      0.00000
    125      19.5811      0.00000
    126      19.5811      0.00000
    127      19.5811      0.00000
    128      19.5811      0.00000


--------------------------------------------------------------------------------------------------------


 soft charge-density along one line, spin component           1
         0         1         2         3         4         5         6         7         8         9
 total charge-density along one line
 
 pseudopotential strength for first ion, spin component:           1
 -3.787 -19.447   0.000   0.000  -0.000  -0.000  -0.000   0.000
-19.447   7.496   0.000   0.000  -0.000   0.000   0.000  -0.000
  0.000   0.000 -22.368   0.000  -0.000   7.034  -0.000   0.000
  0.000   0.000   0.000 -22.478  -0.000  -0.000   7.109   0.000
 -0.000  -0.000  -0.000  -0.000 -22.368   0.000   0.000   7.034
 -0.000   0.000   7.034  -0.000   0.000   6.632   0.000  -0.000
 -0.000   0.000  -0.000   7.109   0.000   0.000   6.603  -0.000
  0.000  -0.000   0.000   0.000   7.034  -0.000  -0.000   6.632
 -0.000  -0.000  -0.000  -0.000   0.000   0.000   0.000  -0.000
  0.000   0.000   0.000   0.000  -0.000  -0.000  -0.000   0.000
 -0.044  -0.013  -0.000   0.000   0.000   0.000  -0.000  -0.000
 -0.000  -0.000  -0.000  -0.000   0.000   0.000   0.000  -0.000
  0.000   0.000  -0.000  -0.000  -0.000   0.000   0.000   0.000
 -0.000  -0.000  -0.000  -0.000   0.000   0.000   0.000  -0.000
  0.000   0.000   0.000   0.000  -0.000  -0.000  -0.000   0.000
 -0.055  -0.015  -0.000   0.000   0.000   0.000  -0.000  -0.000
 -0.000  -0.000  -0.000  -0.000   0.000   0.000   0.000  -0.000
  0.000   0.000  -0.000  -0.000  -0.000   0.000   0.000   0.000
 total augmentation occupancy for first ion, spin component:           1
  2.000   0.000   0.000   0.000   0.000   0.000   0.000   0.000   0.000   0.000   0.000   0.000   0.000   0.000   0.000   0.000
  0.000   1.000   0.000   0.000   0.000   0.000   0.000   0.000   0.000   0.000   0.000   0.000   0.000   0.000   0.000   0.000
  0.000   0.000   2.000   0.000   0.000   0.000   0.000   0.000   0.000   0.000   0.000   0.000   0.000   0.000   0.000   0.000
  0.000   0.000   0.000   2.000   0.000   0.000   0.000   0.000   0.000   0.000   0.000   0.000   0.000   0.000   0.000   0.000
  0.000   0.000   0.000   0.000   2.000   0.000   0.000   0.000   0.000   0.000   0.000   0.000   0.000   0.000   0.000   0.000
  0.000   0.000   0.000   0.000   0.000   0.000   0.000   0.000   0.000   0.000   0.000   0.000   0.000   0.000   0.000   0.000
  0.000   0.000   0.000   0.000   0.000   0.000   0.000   0.000   0.000   0.000   0.000   0.000   0.000   0.000   0.000   0.000
  0.000   0.000   0.000   0.000   0.000   0.000   0.000   0.000   0.000   0.000   0.000   0.000   0.000   0.000   0.000   0.000
  0.000   0.000   0.000   0.000   0.000   0.000   0.000   0.000   0.600   0.000   0.000   0.000   0.000   0.000   0.000   0.000
  0.000   0.000   0.000   0.000   0.000   0.000   0.000   0.000   0.000   0.600   0.000   0.000   0.000   0.000   0.000   0.000
  0.000   0.000   0.000   0.000   0.000   0.000   0.000   0.000   0.000   0.000   0.600   0.000   0.000   0.000   0.000   0.000
  0.000   0.000   0.000   0.000   0.000   0.000   0.000   0.000   0.000   0.000   0.000   0.600   0.000   0.000   0.000   0.000
  0.000   0.000   0.000   0.000   0.000   0.000   0.000   0.000   0.000   0.000   0.000   0.000   0.600   0.000   0.000   0.000
  0.000   0.000   0.000   0.000   0.000   0.000   0.000   0.000   0.000   0.000   0.000   0.000   0.000   0.000   0.000   0.000
  0.000   0.000   0.000   0.000   0.000   0.000   0.000   0.000   0.000   0.000   0.000   0.000   0.000   0.000   0.000   0.000
  0.000   0.000   0.000   0.000   0.000   0.000   0.000   0.000   0.000   0.000   0.000   0.000   0.000   0.000   0.000   0.000
  0.000   0.000   0.000   0.000   0.000   0.000   0.000   0.000   0.000   0.000   0.000   0.000   0.000   0.000   0.000   0.000
  0.000   0.000   0.000   0.000   0.000   0.000   0.000   0.000   0.000   0.000   0.000   0.000   0.000   0.000   0.000   0.000


------------------------ aborting loop because EDIFF is reached ----------------------------------------





 total charge

# of ion       s       p       d       tot
------------------------------------------
    1        2.201   6.117   1.959  10.277
    2        2.201   6.117   1.959  10.277
    3        2.201   6.117   1.959  10.277
    4        2.201   6.117   1.959  10.277
    5        2.201   6.117   1.959  10.277
    6        2.201   6.117   1.959  10.277
    7        2.201   6.117   1.959  10.277
    8        2.201   6.117   1.959  10.277
    9        0.411   0.417   0.000   0.828
   10        0.411   0.417   0.000   0.828
   11        0.411   0.417   0.000   0.828
   12        0.411   0.417   0.000   0.828
   13        0.411   0.417   0.000   0.828
   14        0.411   0.417   0.000   0.828
   15        0.411   0.417   0.000   0.828
   16        0.411   0.417   0.000   0.828
--------------------------------------------------
tot         20.902  52.270  15.669  88.841
 
    CHARGE:  cpu time      0.0700: real time      0.0700
    FORLOC:  cpu time      0.0005: real time      0.0005
    FORNL :  cpu time      1.1684: real time      1.1690
    STRESS:  cpu time      3.2856: real time      3.2868
    FORCOR:  cpu time      0.0081: real time      0.0080
    FORHAR:  cpu time      0.0015: real time      0.0015
    OFIELD:  cpu time      0.0000: real time      0.0000

  FORCE on cell =-STRESS in cart. coord.  units (eV):
  Direction    XX          YY          ZZ          XY          YZ          ZX
  --------------------------------------------------------------------------------------
  Alpha Z   302.45033   302.45033   302.45033
  Ewald   -2316.54182 -2316.54182 -4052.05886    -0.00000    -0.00000    -0.00000
  Hartree  1817.93749  1817.93749   295.41612    -0.00000    -0.00000    -0.00000
  E(xc)    -576.55660  -576.55660  -578.26203    -0.00000    -0.00000     0.00000
  Local   -1141.86681 -1141.86681  2155.40154    -0.00000     0.00000    -0.00000
  n-local  -113.29879  -148.85427   -75.89631    -4.03061     1.10887     1.90646
  augment   494.05048   494.05048   471.13592    -0.00000     0.00000     0.00000
  Kinetic  1532.46074  1571.33779  1483.05525     2.24231    -2.77326    -1.42538
  Fock        0.00000     0.00000     0.00000     0.00000     0.00000     0.00000
  -------------------------------------------------------------------------------------
  Total       0.29580     0.29580     1.24196     0.00000     0.00000    -0.00000
  in kB       1.82688     1.82688     7.67033     0.00000     0.00000    -0.00000
  external pressure =        3.77 kB  Pullay stress =        0.00 kB


 VOLUME and BASIS-vectors are now :
 -----------------------------------------------------------------------------
  energy-cutoff  :      520.00
  volume of cell :      259.42
      direct lattice vectors                 reciprocal lattice vectors
     5.650681772  0.000000000  0.000000000     0.176969796  0.000000000  0.000000000
     0.000000000  5.650681772  0.000000000     0.000000000  0.176969796  0.000000000
     0.000000000  0.000000000  8.124629189     0.000000000  0.000000000  0.123082540

  length of vectors
     5.650681772  5.650681772  8.124629189     0.176969796  0.176969796  0.123082540


 FORCES acting on ions
    electron-ion (+dipol)            ewald-force                    non-local-force                 convergence-correction
 -----------------------------------------------------------------------------------------------
   -.125E-14 -.121E-14 -.503E-13   0.103E-13 -.178E-14 -.178E-13   0.000E+00 -.786E-23 0.331E-23   0.573E-13 -.103E-12 -.293E-12
   -.125E-14 -.121E-14 0.107E-11   0.102E-13 -.178E-14 0.178E-13   0.232E-22 -.931E-23 0.993E-23   0.379E-13 0.137E-14 -.244E-12
   -.125E-14 0.394E-12 -.583E-13   0.103E-13 -.613E-14 -.178E-13   0.000E+00 0.000E+00 0.662E-23   0.932E-13 -.137E-12 -.305E-12
   -.125E-14 0.394E-12 0.106E-11   0.952E-14 -.613E-14 0.178E-13   -.993E-23 -.672E-24 -.662E-23   0.390E-13 -.110E-14 -.245E-12
   0.393E-12 -.191E-14 -.681E-11   -.380E-13 0.613E-14 -.178E-13   0.331E-23 0.116E-22 -.993E-23   -.113E-12 0.111E-12 -.209E-12
   0.393E-12 -.191E-14 0.429E-11   -.378E-13 0.613E-14 0.178E-13   -.331E-23 0.000E+00 -.993E-23   -.982E-13 0.973E-13 -.347E-12
   0.393E-12 0.393E-12 -.199E-11   -.380E-13 0.178E-14 -.178E-13   -.951E-23 -.132E-22 0.199E-22   -.217E-12 -.139E-13 -.302E-12
   0.393E-12 0.393E-12 0.253E-11   -.372E-13 0.178E-14 0.178E-13   -.331E-23 -.496E-23 0.827E-23   -.969E-13 0.843E-13 -.342E-12
   -.693E-14 -.546E-14 -.279E-12   0.214E-13 0.899E-16 -.131E-14   0.000E+00 -.414E-23 0.207E-23   0.532E-14 -.615E-15 0.564E-13
   -.722E-14 -.489E-14 -.304E-12   0.208E-13 0.849E-16 0.139E-14   -.414E-23 -.145E-23 0.331E-23   -.457E-14 -.128E-14 0.595E-14
   -.650E-14 -.158E-13 -.249E-12   0.211E-13 -.389E-15 -.132E-14   0.000E+00 0.258E-23 0.264E-23   0.283E-14 0.540E-14 0.588E-13
   -.689E-14 -.132E-13 -.275E-12   0.206E-13 -.394E-15 0.138E-14   0.827E-24 -.476E-23 0.207E-23   -.512E-14 0.143E-14 0.477E-14
   -.888E-14 0.635E-12 0.478E-12   0.634E-14 0.504E-15 -.138E-14   0.827E-24 -.310E-23 -.414E-23   -.238E-14 -.690E-14 0.377E-13
   -.883E-14 -.195E-13 0.767E-12   0.687E-14 0.499E-15 0.132E-14   0.000E+00 -.124E-23 0.186E-23   0.706E-14 -.384E-14 -.188E-13
   -.877E-14 0.446E-12 0.888E-13   0.655E-14 0.251E-16 -.139E-14   -.827E-24 -.414E-23 -.393E-23   0.129E-14 0.969E-14 0.464E-13
   -.840E-14 0.457E-12 0.432E-12   0.709E-14 0.201E-16 0.131E-14   0.496E-23 0.659E-24 -.165E-23   0.774E-14 0.542E-15 -.218E-13
 -----------------------------------------------------------------------------------------------
   0.150E-11 0.305E-11 0.696E-12   0.114E-15 0.440E-15 -.394E-30   0.207E-23 -.400E-22 0.237E-22   -.286E-12 0.429E-13 -.212E-11
 
 
 POSITION                                       TOTAL-FORCE (eV/Angst)
 -----------------------------------------------------------------------------------
      0.00000      0.00000      0.00000        -0.000000     -0.000000      0.000000
      0.00000      0.00000      4.06231         0.000000      0.000000      0.000000
      0.00000      2.82534      0.00000        -0.000000     -0.000000      0.000000
      0.00000      2.82534      4.06231         0.000000      0.000000     -0.000000
      2.82534      0.00000      0.00000         0.000000      0.000000      0.000000
      2.82534      0.00000      4.06231        -0.000000     -0.000000     -0.000000
      2.82534      2.82534      0.00000         0.000000      0.000000      0.000000
      2.82534      2.82534      4.06231         0.000000     -0.000000     -0.000000
      1.41267      1.41267      2.03116        -0.000000      0.000000      0.000000
      1.41267      1.41267      6.09347         0.000000      0.000000     -0.000000
      1.41267      4.23801      2.03116         0.000000     -0.000000     -0.000000
      1.41267      4.23801      6.09347         0.000000      0.000000     -0.000000
      4.23801      1.41267      2.03116        -0.000000     -0.000000     -0.000000
      4.23801      1.41267      6.09347         0.000000      0.000000      0.000000
      4.23801      4.23801      2.03116        -0.000000      0.000000     -0.000000
      4.23801      4.23801      6.09347        -0.000000     -0.000000      0.000000
 -----------------------------------------------------------------------------------
    total drift:                                0.000000      0.000000     -0.000000


--------------------------------------------------------------------------------------------------------



  FREE ENERGIE OF THE ION-ELECTRON SYSTEM (eV)
  ---------------------------------------------------
  free  energy   TOTEN  =       -99.14878994 eV

  energy  without entropy=      -99.14790004  energy(sigma->0) =      -99.14849330
 


--------------------------------------------------------------------------------------------------------


    POTLOK:  cpu time      0.0080: real time      0.0080


--------------------------------------------------------------------------------------------------------


 writing wavefunctions
     LOOP+:  cpu time    120.5192: real time    120.5389
    4ORBIT:  cpu time      0.0000: real time      0.0000



 total charge

# of ion       s       p       d       tot
------------------------------------------
    1        2.201   6.117   1.959  10.277
    2        2.201   6.117   1.959  10.277
    3        2.201   6.117   1.959  10.277
    4        2.201   6.117   1.959  10.277
    5        2.201   6.117   1.959  10.277
    6        2.201   6.117   1.959  10.277
    7        2.201   6.117   1.959  10.277
    8        2.201   6.117   1.959  10.277
    9        0.411   0.417   0.000   0.828
   10        0.411   0.417   0.000   0.828
   11        0.411   0.417   0.000   0.828
   12        0.411   0.417   0.000   0.828
   13        0.411   0.417   0.000   0.828
   14        0.411   0.417   0.000   0.828
   15        0.411   0.417   0.000   0.828
   16        0.411   0.417   0.000   0.828
--------------------------------------------------
tot         20.902  52.270  15.669  88.841
 

 total amount of memory used by VASP MPI-rank0   170474. kBytes
=======================================================================

   base                                    :      30000. kBytes
   nonl-proj                               :     123453. kBytes
   fftplans                                :        434. kBytes
   grid                                    :       2331. kBytes
   one-center                              :        248. kBytes
   wavefun                                 :      14008. kBytes
 
  
  
 General timing and accounting informations for this job:
 ========================================================
  
                  Total CPU time used (sec):      127.533
                            User time (sec):      120.744
                          System time (sec):        6.789
                         Elapsed time (sec):      127.816
  
                   Maximum memory used (kb):      335872.
                   Average memory used (kb):          N/A
  
                          Minor page faults:        54075
                          Major page faults:           17
                 Voluntary context switches:          101
