  16  16   1   0
  0.1615369E+02  0.5645286E-09  0.5645286E-09  0.8109983E-09  0.5000000E-15
  1.000000000000000E-004
  CAR 
 unknown system                          
     24.57762800    -51.80989780 1000      8.29256571      1.00000000
    -51.810  0.0000E+00  0.0000E+00
    -51.733  0.0000E+00  0.0000E+00
    -51.657  0.0000E+00  0.0000E+00
    -51.581  0.0000E+00  0.0000E+00
    -51.504  0.0000E+00  0.0000E+00
    -51.428  0.0000E+00  0.0000E+00
    -51.351  0.0000E+00  0.0000E+00
    -51.275  0.0000E+00  0.0000E+00
    -51.198  0.0000E+00  0.0000E+00
    -51.122  0.0000E+00  0.0000E+00
    -51.045  0.0000E+00  0.0000E+00
    -50.969  0.0000E+00  0.0000E+00
    -50.892  0.0000E+00  0.0000E+00
    -50.816  0.0000E+00  0.0000E+00
    -50.739  0.0000E+00  0.0000E+00
    -50.663  0.0000E+00  0.0000E+00
    -50.586  0.0000E+00  0.0000E+00
    -50.510  0.0000E+00  0.0000E+00
    -50.434  0.0000E+00  0.0000E+00
    -50.357  0.0000E+00  0.0000E+00
    -50.281  0.0000E+00  0.0000E+00
    -50.204  0.0000E+00  0.0000E+00
    -50.128  0.0000E+00  0.0000E+00
    -50.051  0.0000E+00  0.0000E+00
    -49.975  0.0000E+00  0.0000E+00
    -49.898  0.0000E+00  0.0000E+00
    -49.822  0.0000E+00  0.0000E+00
    -49.745  0.0000E+00  0.0000E+00
    -49.669  0.0000E+00  0.0000E+00
    -49.592  0.0000E+00  0.0000E+00
    -49.516  0.0000E+00  0.0000E+00
    -49.440  0.0000E+00  0.0000E+00
    -49.363  0.0000E+00  0.0000E+00
    -49.287  0.0000E+00  0.0000E+00
    -49.210 -0.5411E-32 -0.4137E-33
    -49.134 -0.5075E-26 -0.3880E-27
    -49.057 -0.5534E-21 -0.4232E-22
    -48.981 -0.1879E-16 -0.1437E-17
    -48.904 -0.1934E-12 -0.1479E-13
    -48.828 -0.6306E-09 -0.4823E-10
    -48.751 -0.6417E-06 -0.4911E-07
    -48.675 -0.2028E-03 -0.1556E-04
    -48.598 -0.1971E-01 -0.1523E-02
    -48.522 -0.5636E+00 -0.4462E-01
    -48.445 -0.3729E+01 -0.3298E+00
    -48.369  0.8637E+01  0.3307E+00
    -48.293  0.8079E+02  0.6508E+01
    -48.216  0.1031E+03  0.1439E+02
    -48.140  0.2644E+02  0.1641E+02
    -48.063 -0.4026E+01  0.1610E+02
    -47.987 -0.1266E+01  0.1601E+02
    -47.910 -0.6746E-01  0.1600E+02
    -47.834 -0.1016E-02  0.1600E+02
    -47.757 -0.4665E-05  0.1600E+02
    -47.681 -0.6640E-08  0.1600E+02
    -47.604 -0.2942E-11  0.1600E+02
    -47.528  0.0000E+00  0.1600E+02
    -47.451  0.0000E+00  0.1600E+02
    -47.375  0.0000E+00  0.1600E+02
    -47.299  0.0000E+00  0.1600E+02
    -47.222  0.0000E+00  0.1600E+02
    -47.146  0.0000E+00  0.1600E+02
    -47.069  0.0000E+00  0.1600E+02
    -46.993  0.0000E+00  0.1600E+02
    -46.916  0.0000E+00  0.1600E+02
    -46.840  0.0000E+00  0.1600E+02
    -46.763  0.0000E+00  0.1600E+02
    -46.687  0.0000E+00  0.1600E+02
    -46.610  0.0000E+00  0.1600E+02
    -46.534  0.0000E+00  0.1600E+02
    -46.457  0.0000E+00  0.1600E+02
    -46.381  0.0000E+00  0.1600E+02
    -46.304  0.0000E+00  0.1600E+02
    -46.228  0.0000E+00  0.1600E+02
    -46.152  0.0000E+00  0.1600E+02
    -46.075  0.0000E+00  0.1600E+02
    -45.999  0.0000E+00  0.1600E+02
    -45.922  0.0000E+00  0.1600E+02
    -45.846  0.0000E+00  0.1600E+02
    -45.769  0.0000E+00  0.1600E+02
    -45.693  0.0000E+00  0.1600E+02
    -45.616  0.0000E+00  0.1600E+02
    -45.540  0.0000E+00  0.1600E+02
    -45.463  0.0000E+00  0.1600E+02
    -45.387  0.0000E+00  0.1600E+02
    -45.310  0.0000E+00  0.1600E+02
    -45.234  0.0000E+00  0.1600E+02
    -45.158  0.0000E+00  0.1600E+02
    -45.081  0.0000E+00  0.1600E+02
    -45.005  0.0000E+00  0.1600E+02
    -44.928  0.0000E+00  0.1600E+02
    -44.852  0.0000E+00  0.1600E+02
    -44.775  0.0000E+00  0.1600E+02
    -44.699  0.0000E+00  0.1600E+02
    -44.622  0.0000E+00  0.1600E+02
    -44.546  0.0000E+00  0.1600E+02
    -44.469  0.0000E+00  0.1600E+02
    -44.393  0.0000E+00  0.1600E+02
    -44.316  0.0000E+00  0.1600E+02
    -44.240  0.0000E+00  0.1600E+02
    -44.163  0.0000E+00  0.1600E+02
    -44.087  0.0000E+00  0.1600E+02
    -44.011  0.0000E+00  0.1600E+02
    -43.934  0.0000E+00  0.1600E+02
    -43.858  0.0000E+00  0.1600E+02
    -43.781  0.0000E+00  0.1600E+02
    -43.705  0.0000E+00  0.1600E+02
    -43.628  0.0000E+00  0.1600E+02
    -43.552  0.0000E+00  0.1600E+02
    -43.475  0.0000E+00  0.1600E+02
    -43.399  0.0000E+00  0.1600E+02
    -43.322  0.0000E+00  0.1600E+02
    -43.246  0.0000E+00  0.1600E+02
    -43.169  0.0000E+00  0.1600E+02
    -43.093  0.0000E+00  0.1600E+02
    -43.017  0.0000E+00  0.1600E+02
    -42.940  0.0000E+00  0.1600E+02
    -42.864  0.0000E+00  0.1600E+02
    -42.787  0.0000E+00  0.1600E+02
    -42.711  0.0000E+00  0.1600E+02
    -42.634  0.0000E+00  0.1600E+02
    -42.558  0.0000E+00  0.1600E+02
    -42.481  0.0000E+00  0.1600E+02
    -42.405  0.0000E+00  0.1600E+02
    -42.328  0.0000E+00  0.1600E+02
    -42.252  0.0000E+00  0.1600E+02
    -42.175  0.0000E+00  0.1600E+02
    -42.099  0.0000E+00  0.1600E+02
    -42.023  0.0000E+00  0.1600E+02
    -41.946  0.0000E+00  0.1600E+02
    -41.870  0.0000E+00  0.1600E+02
    -41.793  0.0000E+00  0.1600E+02
    -41.717  0.0000E+00  0.1600E+02
    -41.640  0.0000E+00  0.1600E+02
    -41.564  0.0000E+00  0.1600E+02
    -41.487  0.0000E+00  0.1600E+02
    -41.411  0.0000E+00  0.1600E+02
    -41.334  0.0000E+00  0.1600E+02
    -41.258  0.0000E+00  0.1600E+02
    -41.181  0.0000E+00  0.1600E+02
    -41.105  0.0000E+00  0.1600E+02
    -41.028  0.0000E+00  0.1600E+02
    -40.952  0.0000E+00  0.1600E+02
    -40.876  0.0000E+00  0.1600E+02
    -40.799  0.0000E+00  0.1600E+02
    -40.723  0.0000E+00  0.1600E+02
    -40.646  0.0000E+00  0.1600E+02
    -40.570  0.0000E+00  0.1600E+02
    -40.493  0.0000E+00  0.1600E+02
    -40.417  0.0000E+00  0.1600E+02
    -40.340  0.0000E+00  0.1600E+02
    -40.264  0.0000E+00  0.1600E+02
    -40.187  0.0000E+00  0.1600E+02
    -40.111  0.0000E+00  0.1600E+02
    -40.034  0.0000E+00  0.1600E+02
    -39.958  0.0000E+00  0.1600E+02
    -39.882  0.0000E+00  0.1600E+02
    -39.805  0.0000E+00  0.1600E+02
    -39.729  0.0000E+00  0.1600E+02
    -39.652  0.0000E+00  0.1600E+02
    -39.576  0.0000E+00  0.1600E+02
    -39.499  0.0000E+00  0.1600E+02
    -39.423  0.0000E+00  0.1600E+02
    -39.346  0.0000E+00  0.1600E+02
    -39.270  0.0000E+00  0.1600E+02
    -39.193  0.0000E+00  0.1600E+02
    -39.117  0.0000E+00  0.1600E+02
    -39.040  0.0000E+00  0.1600E+02
    -38.964  0.0000E+00  0.1600E+02
    -38.887  0.0000E+00  0.1600E+02
    -38.811  0.0000E+00  0.1600E+02
    -38.735  0.0000E+00  0.1600E+02
    -38.658  0.0000E+00  0.1600E+02
    -38.582  0.0000E+00  0.1600E+02
    -38.505  0.0000E+00  0.1600E+02
    -38.429  0.0000E+00  0.1600E+02
    -38.352  0.0000E+00  0.1600E+02
    -38.276  0.0000E+00  0.1600E+02
    -38.199  0.0000E+00  0.1600E+02
    -38.123  0.0000E+00  0.1600E+02
    -38.046  0.0000E+00  0.1600E+02
    -37.970  0.0000E+00  0.1600E+02
    -37.893  0.0000E+00  0.1600E+02
    -37.817  0.0000E+00  0.1600E+02
    -37.741  0.0000E+00  0.1600E+02
    -37.664  0.0000E+00  0.1600E+02
    -37.588  0.0000E+00  0.1600E+02
    -37.511  0.0000E+00  0.1600E+02
    -37.435  0.0000E+00  0.1600E+02
    -37.358  0.0000E+00  0.1600E+02
    -37.282  0.0000E+00  0.1600E+02
    -37.205  0.0000E+00  0.1600E+02
    -37.129  0.0000E+00  0.1600E+02
    -37.052  0.0000E+00  0.1600E+02
    -36.976  0.0000E+00  0.1600E+02
    -36.899  0.0000E+00  0.1600E+02
    -36.823  0.0000E+00  0.1600E+02
    -36.746  0.0000E+00  0.1600E+02
    -36.670  0.0000E+00  0.1600E+02
    -36.594  0.0000E+00  0.1600E+02
    -36.517  0.0000E+00  0.1600E+02
    -36.441  0.0000E+00  0.1600E+02
    -36.364  0.0000E+00  0.1600E+02
    -36.288  0.0000E+00  0.1600E+02
    -36.211  0.0000E+00  0.1600E+02
    -36.135  0.0000E+00  0.1600E+02
    -36.058  0.0000E+00  0.1600E+02
    -35.982  0.0000E+00  0.1600E+02
    -35.905  0.0000E+00  0.1600E+02
    -35.829  0.0000E+00  0.1600E+02
    -35.752  0.0000E+00  0.1600E+02
    -35.676  0.0000E+00  0.1600E+02
    -35.600  0.0000E+00  0.1600E+02
    -35.523  0.0000E+00  0.1600E+02
    -35.447  0.0000E+00  0.1600E+02
    -35.370  0.0000E+00  0.1600E+02
    -35.294  0.0000E+00  0.1600E+02
    -35.217  0.0000E+00  0.1600E+02
    -35.141  0.0000E+00  0.1600E+02
    -35.064  0.0000E+00  0.1600E+02
    -34.988  0.0000E+00  0.1600E+02
    -34.911  0.0000E+00  0.1600E+02
    -34.835  0.0000E+00  0.1600E+02
    -34.758  0.0000E+00  0.1600E+02
    -34.682  0.0000E+00  0.1600E+02
    -34.606  0.0000E+00  0.1600E+02
    -34.529  0.0000E+00  0.1600E+02
    -34.453  0.0000E+00  0.1600E+02
    -34.376  0.0000E+00  0.1600E+02
    -34.300  0.0000E+00  0.1600E+02
    -34.223  0.0000E+00  0.1600E+02
    -34.147  0.0000E+00  0.1600E+02
    -34.070  0.0000E+00  0.1600E+02
    -33.994  0.0000E+00  0.1600E+02
    -33.917  0.0000E+00  0.1600E+02
    -33.841  0.0000E+00  0.1600E+02
    -33.764  0.0000E+00  0.1600E+02
    -33.688  0.0000E+00  0.1600E+02
    -33.611  0.0000E+00  0.1600E+02
    -33.535  0.0000E+00  0.1600E+02
    -33.459  0.0000E+00  0.1600E+02
    -33.382  0.0000E+00  0.1600E+02
    -33.306  0.0000E+00  0.1600E+02
    -33.229  0.0000E+00  0.1600E+02
    -33.153  0.0000E+00  0.1600E+02
    -33.076  0.0000E+00  0.1600E+02
    -33.000  0.0000E+00  0.1600E+02
    -32.923  0.0000E+00  0.1600E+02
    -32.847  0.0000E+00  0.1600E+02
    -32.770  0.0000E+00  0.1600E+02
    -32.694  0.0000E+00  0.1600E+02
    -32.617  0.0000E+00  0.1600E+02
    -32.541  0.0000E+00  0.1600E+02
    -32.465  0.0000E+00  0.1600E+02
    -32.388  0.0000E+00  0.1600E+02
    -32.312  0.0000E+00  0.1600E+02
    -32.235  0.0000E+00  0.1600E+02
    -32.159  0.0000E+00  0.1600E+02
    -32.082  0.0000E+00  0.1600E+02
    -32.006  0.0000E+00  0.1600E+02
    -31.929  0.0000E+00  0.1600E+02
    -31.853  0.0000E+00  0.1600E+02
    -31.776  0.0000E+00  0.1600E+02
    -31.700  0.0000E+00  0.1600E+02
    -31.623  0.0000E+00  0.1600E+02
    -31.547  0.0000E+00  0.1600E+02
    -31.470  0.0000E+00  0.1600E+02
    -31.394  0.0000E+00  0.1600E+02
    -31.318  0.0000E+00  0.1600E+02
    -31.241  0.0000E+00  0.1600E+02
    -31.165  0.0000E+00  0.1600E+02
    -31.088  0.0000E+00  0.1600E+02
    -31.012  0.0000E+00  0.1600E+02
    -30.935  0.0000E+00  0.1600E+02
    -30.859  0.0000E+00  0.1600E+02
    -30.782  0.0000E+00  0.1600E+02
    -30.706  0.0000E+00  0.1600E+02
    -30.629  0.0000E+00  0.1600E+02
    -30.553  0.0000E+00  0.1600E+02
    -30.476  0.0000E+00  0.1600E+02
    -30.400  0.0000E+00  0.1600E+02
    -30.324  0.0000E+00  0.1600E+02
    -30.247  0.0000E+00  0.1600E+02
    -30.171  0.0000E+00  0.1600E+02
    -30.094  0.0000E+00  0.1600E+02
    -30.018  0.0000E+00  0.1600E+02
    -29.941  0.0000E+00  0.1600E+02
    -29.865  0.0000E+00  0.1600E+02
    -29.788  0.0000E+00  0.1600E+02
    -29.712  0.0000E+00  0.1600E+02
    -29.635  0.0000E+00  0.1600E+02
    -29.559  0.0000E+00  0.1600E+02
    -29.482  0.0000E+00  0.1600E+02
    -29.406  0.0000E+00  0.1600E+02
    -29.329  0.0000E+00  0.1600E+02
    -29.253  0.0000E+00  0.1600E+02
    -29.177  0.0000E+00  0.1600E+02
    -29.100  0.0000E+00  0.1600E+02
    -29.024  0.0000E+00  0.1600E+02
    -28.947  0.0000E+00  0.1600E+02
    -28.871  0.0000E+00  0.1600E+02
    -28.794  0.0000E+00  0.1600E+02
    -28.718  0.0000E+00  0.1600E+02
    -28.641  0.0000E+00  0.1600E+02
    -28.565  0.0000E+00  0.1600E+02
    -28.488  0.0000E+00  0.1600E+02
    -28.412  0.0000E+00  0.1600E+02
    -28.335  0.0000E+00  0.1600E+02
    -28.259  0.0000E+00  0.1600E+02
    -28.183  0.0000E+00  0.1600E+02
    -28.106  0.0000E+00  0.1600E+02
    -28.030  0.0000E+00  0.1600E+02
    -27.953  0.0000E+00  0.1600E+02
    -27.877  0.0000E+00  0.1600E+02
    -27.800  0.0000E+00  0.1600E+02
    -27.724  0.0000E+00  0.1600E+02
    -27.647  0.0000E+00  0.1600E+02
    -27.571  0.0000E+00  0.1600E+02
    -27.494  0.0000E+00  0.1600E+02
    -27.418  0.0000E+00  0.1600E+02
    -27.341  0.0000E+00  0.1600E+02
    -27.265  0.0000E+00  0.1600E+02
    -27.188  0.0000E+00  0.1600E+02
    -27.112  0.0000E+00  0.1600E+02
    -27.036  0.0000E+00  0.1600E+02
    -26.959  0.0000E+00  0.1600E+02
    -26.883  0.0000E+00  0.1600E+02
    -26.806  0.0000E+00  0.1600E+02
    -26.730  0.0000E+00  0.1600E+02
    -26.653  0.0000E+00  0.1600E+02
    -26.577  0.0000E+00  0.1600E+02
    -26.500  0.0000E+00  0.1600E+02
    -26.424  0.0000E+00  0.1600E+02
    -26.347  0.0000E+00  0.1600E+02
    -26.271  0.0000E+00  0.1600E+02
    -26.194  0.0000E+00  0.1600E+02
    -26.118  0.0000E+00  0.1600E+02
    -26.042  0.0000E+00  0.1600E+02
    -25.965  0.0000E+00  0.1600E+02
    -25.889  0.0000E+00  0.1600E+02
    -25.812  0.0000E+00  0.1600E+02
    -25.736  0.0000E+00  0.1600E+02
    -25.659  0.0000E+00  0.1600E+02
    -25.583 -0.1349E-27  0.1600E+02
    -25.506 -0.1963E-22  0.1600E+02
    -25.430 -0.8972E-18  0.1600E+02
    -25.353 -0.1279E-13  0.1600E+02
    -25.277 -0.5677E-10  0.1600E+02
    -25.200 -0.8133E-07  0.1600E+02
    -25.124 -0.3707E-04  0.1600E+02
    -25.048 -0.5365E-02  0.1600E+02
    -24.971 -0.2416E+00  0.1598E+02
    -24.895 -0.3047E+01  0.1575E+02
    -24.818 -0.3615E+01  0.1547E+02
    -24.742  0.6300E+02  0.2029E+02
    -24.665  0.1750E+03  0.3367E+02
    -24.589  0.1335E+03  0.4388E+02
    -24.512  0.5081E+02  0.4777E+02
    -24.436  0.4085E+02  0.5089E+02
    -24.359  0.5359E+02  0.5499E+02
    -24.283  0.7124E+02  0.6043E+02
    -24.206  0.4497E+02  0.6387E+02
    -24.130  0.4191E+01  0.6419E+02
    -24.053 -0.2215E+01  0.6402E+02
    -23.977 -0.3135E+00  0.6400E+02
    -23.901 -0.1034E-01  0.6400E+02
    -23.824 -0.1004E-03  0.6400E+02
    -23.748 -0.3005E-06  0.6400E+02
    -23.671 -0.2810E-09  0.6400E+02
    -23.595 -0.8062E-13  0.6400E+02
    -23.518  0.0000E+00  0.6400E+02
    -23.442  0.0000E+00  0.6400E+02
    -23.365  0.0000E+00  0.6400E+02
    -23.289  0.0000E+00  0.6400E+02
    -23.212  0.0000E+00  0.6400E+02
    -23.136  0.0000E+00  0.6400E+02
    -23.059  0.0000E+00  0.6400E+02
    -22.983  0.0000E+00  0.6400E+02
    -22.907  0.0000E+00  0.6400E+02
    -22.830  0.0000E+00  0.6400E+02
    -22.754  0.0000E+00  0.6400E+02
    -22.677  0.0000E+00  0.6400E+02
    -22.601  0.0000E+00  0.6400E+02
    -22.524  0.0000E+00  0.6400E+02
    -22.448  0.0000E+00  0.6400E+02
    -22.371  0.0000E+00  0.6400E+02
    -22.295  0.0000E+00  0.6400E+02
    -22.218  0.0000E+00  0.6400E+02
    -22.142  0.0000E+00  0.6400E+02
    -22.065  0.0000E+00  0.6400E+02
    -21.989  0.0000E+00  0.6400E+02
    -21.912  0.0000E+00  0.6400E+02
    -21.836  0.0000E+00  0.6400E+02
    -21.760  0.0000E+00  0.6400E+02
    -21.683  0.0000E+00  0.6400E+02
    -21.607  0.0000E+00  0.6400E+02
    -21.530  0.0000E+00  0.6400E+02
    -21.454  0.0000E+00  0.6400E+02
    -21.377  0.0000E+00  0.6400E+02
    -21.301  0.0000E+00  0.6400E+02
    -21.224  0.0000E+00  0.6400E+02
    -21.148  0.0000E+00  0.6400E+02
    -21.071  0.0000E+00  0.6400E+02
    -20.995  0.0000E+00  0.6400E+02
    -20.918  0.0000E+00  0.6400E+02
    -20.842  0.0000E+00  0.6400E+02
    -20.766  0.0000E+00  0.6400E+02
    -20.689  0.0000E+00  0.6400E+02
    -20.613  0.0000E+00  0.6400E+02
    -20.536  0.0000E+00  0.6400E+02
    -20.460  0.0000E+00  0.6400E+02
    -20.383  0.0000E+00  0.6400E+02
    -20.307  0.0000E+00  0.6400E+02
    -20.230  0.0000E+00  0.6400E+02
    -20.154  0.0000E+00  0.6400E+02
    -20.077  0.0000E+00  0.6400E+02
    -20.001  0.0000E+00  0.6400E+02
    -19.924  0.0000E+00  0.6400E+02
    -19.848  0.0000E+00  0.6400E+02
    -19.771  0.0000E+00  0.6400E+02
    -19.695  0.0000E+00  0.6400E+02
    -19.619  0.0000E+00  0.6400E+02
    -19.542  0.0000E+00  0.6400E+02
    -19.466  0.0000E+00  0.6400E+02
    -19.389  0.0000E+00  0.6400E+02
    -19.313  0.0000E+00  0.6400E+02
    -19.236  0.0000E+00  0.6400E+02
    -19.160  0.0000E+00  0.6400E+02
    -19.083  0.0000E+00  0.6400E+02
    -19.007  0.0000E+00  0.6400E+02
    -18.930  0.0000E+00  0.6400E+02
    -18.854  0.0000E+00  0.6400E+02
    -18.777  0.0000E+00  0.6400E+02
    -18.701  0.0000E+00  0.6400E+02
    -18.625  0.0000E+00  0.6400E+02
    -18.548  0.0000E+00  0.6400E+02
    -18.472  0.0000E+00  0.6400E+02
    -18.395  0.0000E+00  0.6400E+02
    -18.319  0.0000E+00  0.6400E+02
    -18.242  0.0000E+00  0.6400E+02
    -18.166  0.0000E+00  0.6400E+02
    -18.089  0.0000E+00  0.6400E+02
    -18.013  0.0000E+00  0.6400E+02
    -17.936  0.0000E+00  0.6400E+02
    -17.860  0.0000E+00  0.6400E+02
    -17.783  0.0000E+00  0.6400E+02
    -17.707  0.0000E+00  0.6400E+02
    -17.630  0.0000E+00  0.6400E+02
    -17.554  0.0000E+00  0.6400E+02
    -17.478  0.0000E+00  0.6400E+02
    -17.401  0.0000E+00  0.6400E+02
    -17.325  0.0000E+00  0.6400E+02
    -17.248  0.0000E+00  0.6400E+02
    -17.172  0.0000E+00  0.6400E+02
    -17.095  0.0000E+00  0.6400E+02
    -17.019  0.0000E+00  0.6400E+02
    -16.942  0.0000E+00  0.6400E+02
    -16.866  0.0000E+00  0.6400E+02
    -16.789  0.0000E+00  0.6400E+02
    -16.713  0.0000E+00  0.6400E+02
    -16.636  0.0000E+00  0.6400E+02
    -16.560  0.0000E+00  0.6400E+02
    -16.484  0.0000E+00  0.6400E+02
    -16.407  0.0000E+00  0.6400E+02
    -16.331  0.0000E+00  0.6400E+02
    -16.254  0.0000E+00  0.6400E+02
    -16.178  0.0000E+00  0.6400E+02
    -16.101  0.0000E+00  0.6400E+02
    -16.025  0.0000E+00  0.6400E+02
    -15.948  0.0000E+00  0.6400E+02
    -15.872  0.0000E+00  0.6400E+02
    -15.795  0.0000E+00  0.6400E+02
    -15.719  0.0000E+00  0.6400E+02
    -15.642  0.0000E+00  0.6400E+02
    -15.566  0.0000E+00  0.6400E+02
    -15.490  0.0000E+00  0.6400E+02
    -15.413  0.0000E+00  0.6400E+02
    -15.337  0.0000E+00  0.6400E+02
    -15.260  0.0000E+00  0.6400E+02
    -15.184  0.0000E+00  0.6400E+02
    -15.107  0.0000E+00  0.6400E+02
    -15.031  0.0000E+00  0.6400E+02
    -14.954  0.0000E+00  0.6400E+02
    -14.878  0.0000E+00  0.6400E+02
    -14.801  0.0000E+00  0.6400E+02
    -14.725  0.0000E+00  0.6400E+02
    -14.648  0.0000E+00  0.6400E+02
    -14.572  0.0000E+00  0.6400E+02
    -14.495  0.0000E+00  0.6400E+02
    -14.419  0.0000E+00  0.6400E+02
    -14.343  0.0000E+00  0.6400E+02
    -14.266  0.0000E+00  0.6400E+02
    -14.190  0.0000E+00  0.6400E+02
    -14.113  0.0000E+00  0.6400E+02
    -14.037  0.0000E+00  0.6400E+02
    -13.960  0.0000E+00  0.6400E+02
    -13.884  0.0000E+00  0.6400E+02
    -13.807  0.0000E+00  0.6400E+02
    -13.731  0.0000E+00  0.6400E+02
    -13.654  0.0000E+00  0.6400E+02
    -13.578  0.0000E+00  0.6400E+02
    -13.501  0.0000E+00  0.6400E+02
    -13.425  0.0000E+00  0.6400E+02
    -13.349  0.0000E+00  0.6400E+02
    -13.272  0.0000E+00  0.6400E+02
    -13.196  0.0000E+00  0.6400E+02
    -13.119  0.0000E+00  0.6400E+02
    -13.043  0.0000E+00  0.6400E+02
    -12.966  0.0000E+00  0.6400E+02
    -12.890  0.0000E+00  0.6400E+02
    -12.813  0.0000E+00  0.6400E+02
    -12.737  0.0000E+00  0.6400E+02
    -12.660  0.0000E+00  0.6400E+02
    -12.584  0.0000E+00  0.6400E+02
    -12.507  0.0000E+00  0.6400E+02
    -12.431  0.0000E+00  0.6400E+02
    -12.354  0.0000E+00  0.6400E+02
    -12.278  0.0000E+00  0.6400E+02
    -12.202  0.0000E+00  0.6400E+02
    -12.125  0.0000E+00  0.6400E+02
    -12.049  0.0000E+00  0.6400E+02
    -11.972  0.0000E+00  0.6400E+02
    -11.896  0.0000E+00  0.6400E+02
    -11.819  0.0000E+00  0.6400E+02
    -11.743  0.0000E+00  0.6400E+02
    -11.666  0.0000E+00  0.6400E+02
    -11.590  0.0000E+00  0.6400E+02
    -11.513  0.0000E+00  0.6400E+02
    -11.437  0.0000E+00  0.6400E+02
    -11.360  0.0000E+00  0.6400E+02
    -11.284  0.0000E+00  0.6400E+02
    -11.208  0.0000E+00  0.6400E+02
    -11.131  0.0000E+00  0.6400E+02
    -11.055  0.0000E+00  0.6400E+02
    -10.978  0.0000E+00  0.6400E+02
    -10.902  0.0000E+00  0.6400E+02
    -10.825  0.0000E+00  0.6400E+02
    -10.749  0.0000E+00  0.6400E+02
    -10.672  0.0000E+00  0.6400E+02
    -10.596  0.0000E+00  0.6400E+02
    -10.519  0.0000E+00  0.6400E+02
    -10.443  0.0000E+00  0.6400E+02
    -10.366  0.0000E+00  0.6400E+02
    -10.290  0.0000E+00  0.6400E+02
    -10.213  0.0000E+00  0.6400E+02
    -10.137  0.0000E+00  0.6400E+02
    -10.061  0.0000E+00  0.6400E+02
     -9.984  0.0000E+00  0.6400E+02
     -9.908  0.0000E+00  0.6400E+02
     -9.831  0.0000E+00  0.6400E+02
     -9.755  0.0000E+00  0.6400E+02
     -9.678  0.0000E+00  0.6400E+02
     -9.602  0.0000E+00  0.6400E+02
     -9.525  0.0000E+00  0.6400E+02
     -9.449  0.0000E+00  0.6400E+02
     -9.372  0.0000E+00  0.6400E+02
     -9.296  0.0000E+00  0.6400E+02
     -9.219  0.0000E+00  0.6400E+02
     -9.143  0.0000E+00  0.6400E+02
     -9.067  0.0000E+00  0.6400E+02
     -8.990  0.0000E+00  0.6400E+02
     -8.914  0.0000E+00  0.6400E+02
     -8.837  0.0000E+00  0.6400E+02
     -8.761  0.0000E+00  0.6400E+02
     -8.684  0.0000E+00  0.6400E+02
     -8.608  0.0000E+00  0.6400E+02
     -8.531  0.0000E+00  0.6400E+02
     -8.455  0.0000E+00  0.6400E+02
     -8.378  0.0000E+00  0.6400E+02
     -8.302  0.0000E+00  0.6400E+02
     -8.225  0.0000E+00  0.6400E+02
     -8.149  0.0000E+00  0.6400E+02
     -8.072  0.0000E+00  0.6400E+02
     -7.996  0.0000E+00  0.6400E+02
     -7.920  0.0000E+00  0.6400E+02
     -7.843  0.0000E+00  0.6400E+02
     -7.767  0.0000E+00  0.6400E+02
     -7.690  0.0000E+00  0.6400E+02
     -7.614  0.0000E+00  0.6400E+02
     -7.537  0.0000E+00  0.6400E+02
     -7.461  0.0000E+00  0.6400E+02
     -7.384  0.0000E+00  0.6400E+02
     -7.308  0.0000E+00  0.6400E+02
     -7.231  0.0000E+00  0.6400E+02
     -7.155  0.0000E+00  0.6400E+02
     -7.078  0.0000E+00  0.6400E+02
     -7.002 -0.6360E-31  0.6400E+02
     -6.926 -0.2142E-25  0.6400E+02
     -6.849 -0.2107E-20  0.6400E+02
     -6.773 -0.6415E-16  0.6400E+02
     -6.696 -0.5851E-12  0.6400E+02
     -6.620 -0.1688E-08  0.6400E+02
     -6.543 -0.1495E-05  0.6400E+02
     -6.467 -0.4038E-03  0.6400E+02
     -6.390 -0.3257E-01  0.6400E+02
     -6.314 -0.7283E+00  0.6394E+02
     -6.237 -0.2920E+01  0.6372E+02
     -6.161  0.1551E+02  0.6490E+02
     -6.084  0.6660E+02  0.7000E+02
     -6.008  0.5100E+02  0.7390E+02
     -5.932  0.4056E+01  0.7421E+02
     -5.855 -0.2400E+01  0.7402E+02
     -5.779 -0.3007E+00  0.7400E+02
     -5.702 -0.8842E-02  0.7400E+02
     -5.626 -0.7549E-04  0.7400E+02
     -5.549 -0.1957E-06  0.7400E+02
     -5.473 -0.1559E-09  0.7400E+02
     -5.396 -0.3678E-13  0.7400E+02
     -5.320  0.0000E+00  0.7400E+02
     -5.243  0.0000E+00  0.7400E+02
     -5.167  0.0000E+00  0.7400E+02
     -5.090  0.0000E+00  0.7400E+02
     -5.014  0.0000E+00  0.7400E+02
     -4.937  0.0000E+00  0.7400E+02
     -4.861  0.0000E+00  0.7400E+02
     -4.785  0.0000E+00  0.7400E+02
     -4.708  0.0000E+00  0.7400E+02
     -4.632  0.0000E+00  0.7400E+02
     -4.555  0.0000E+00  0.7400E+02
     -4.479  0.0000E+00  0.7400E+02
     -4.402  0.0000E+00  0.7400E+02
     -4.326  0.0000E+00  0.7400E+02
     -4.249  0.0000E+00  0.7400E+02
     -4.173  0.0000E+00  0.7400E+02
     -4.096  0.0000E+00  0.7400E+02
     -4.020  0.0000E+00  0.7400E+02
     -3.943  0.0000E+00  0.7400E+02
     -3.867  0.0000E+00  0.7400E+02
     -3.791  0.0000E+00  0.7400E+02
     -3.714  0.0000E+00  0.7400E+02
     -3.638  0.0000E+00  0.7400E+02
     -3.561  0.0000E+00  0.7400E+02
     -3.485  0.0000E+00  0.7400E+02
     -3.408  0.0000E+00  0.7400E+02
     -3.332  0.0000E+00  0.7400E+02
     -3.255  0.0000E+00  0.7400E+02
     -3.179  0.0000E+00  0.7400E+02
     -3.102  0.0000E+00  0.7400E+02
     -3.026  0.0000E+00  0.7400E+02
     -2.949  0.0000E+00  0.7400E+02
     -2.873  0.0000E+00  0.7400E+02
     -2.796  0.0000E+00  0.7400E+02
     -2.720  0.0000E+00  0.7400E+02
     -2.644  0.0000E+00  0.7400E+02
     -2.567  0.0000E+00  0.7400E+02
     -2.491  0.0000E+00  0.7400E+02
     -2.414  0.0000E+00  0.7400E+02
     -2.338  0.0000E+00  0.7400E+02
     -2.261  0.0000E+00  0.7400E+02
     -2.185  0.0000E+00  0.7400E+02
     -2.108  0.0000E+00  0.7400E+02
     -2.032  0.0000E+00  0.7400E+02
     -1.955  0.0000E+00  0.7400E+02
     -1.879  0.0000E+00  0.7400E+02
     -1.802  0.0000E+00  0.7400E+02
     -1.726 -0.2282E-29  0.7400E+02
     -1.650 -0.3265E-24  0.7400E+02
     -1.573 -0.1436E-19  0.7400E+02
     -1.497 -0.1834E-15  0.7400E+02
     -1.420 -0.7669E-12  0.7400E+02
     -1.344 -0.9445E-09  0.7400E+02
     -1.267 -0.3463E-06  0.7400E+02
     -1.191 -0.3669E-04  0.7400E+02
     -1.114 -0.1038E-02  0.7400E+02
     -1.038 -0.5681E-02  0.7400E+02
     -0.961  0.1275E-01  0.7400E+02
     -0.885  0.7488E-01  0.7401E+02
     -0.808  0.2871E+00  0.7403E+02
     -0.732  0.6491E+00  0.7408E+02
     -0.655  0.1028E+01  0.7416E+02
     -0.579  0.1287E+01  0.7425E+02
     -0.503  0.1028E+01  0.7433E+02
     -0.426  0.8690E+00  0.7440E+02
     -0.350  0.8578E+00  0.7447E+02
     -0.273  0.1576E+01  0.7459E+02
     -0.197  0.2295E+01  0.7476E+02
     -0.120  0.2132E+01  0.7492E+02
     -0.044  0.1777E+01  0.7506E+02
      0.033  0.1057E+01  0.7514E+02
      0.109  0.1542E+01  0.7526E+02
      0.186  0.1698E+01  0.7539E+02
      0.262  0.2078E+01  0.7555E+02
      0.339  0.2712E+01  0.7576E+02
      0.415  0.3044E+01  0.7599E+02
      0.491  0.2952E+01  0.7621E+02
      0.568  0.1859E+01  0.7636E+02
      0.644  0.2359E+01  0.7654E+02
      0.721  0.3744E+01  0.7682E+02
      0.797  0.3765E+01  0.7711E+02
      0.874  0.2098E+01  0.7727E+02
      0.950  0.1607E+01  0.7739E+02
      1.027  0.3132E+01  0.7763E+02
      1.103  0.3645E+01  0.7791E+02
      1.180  0.1664E+01  0.7804E+02
      1.256  0.1159E+01  0.7813E+02
      1.333  0.2537E+01  0.7832E+02
      1.409  0.4216E+01  0.7864E+02
      1.486  0.5010E+01  0.7903E+02
      1.562  0.3195E+01  0.7927E+02
      1.638  0.2455E+01  0.7946E+02
      1.715  0.3202E+01  0.7970E+02
      1.791  0.3492E+01  0.7997E+02
      1.868  0.2581E+01  0.8017E+02
      1.944  0.2417E+01  0.8035E+02
      2.021  0.2751E+01  0.8056E+02
      2.097  0.2761E+01  0.8077E+02
      2.174  0.2419E+01  0.8096E+02
      2.250  0.2813E+01  0.8117E+02
      2.327  0.5124E+01  0.8157E+02
      2.403  0.5378E+01  0.8198E+02
      2.480  0.3210E+01  0.8222E+02
      2.556  0.2569E+01  0.8242E+02
      2.632  0.1574E+01  0.8254E+02
      2.709  0.1747E+01  0.8267E+02
      2.785  0.3333E+01  0.8293E+02
      2.862  0.6112E+01  0.8340E+02
      2.938  0.6160E+01  0.8387E+02
      3.015  0.3527E+01  0.8414E+02
      3.091  0.2303E+01  0.8431E+02
      3.168  0.2900E+01  0.8453E+02
      3.244  0.5105E+01  0.8492E+02
      3.321  0.4736E+01  0.8529E+02
      3.397  0.2840E+01  0.8550E+02
      3.474  0.2749E+01  0.8571E+02
      3.550  0.2219E+01  0.8588E+02
      3.626  0.3691E+01  0.8617E+02
      3.703  0.7148E+01  0.8671E+02
      3.779  0.6494E+01  0.8721E+02
      3.856  0.3877E+01  0.8751E+02
      3.932  0.3203E+01  0.8775E+02
      4.009  0.4382E+01  0.8809E+02
      4.085  0.4578E+01  0.8844E+02
      4.162  0.3088E+01  0.8867E+02
      4.238  0.2626E+01  0.8887E+02
      4.315  0.3832E+01  0.8917E+02
      4.391  0.5977E+01  0.8962E+02
      4.468  0.5836E+01  0.9007E+02
      4.544  0.2319E+01  0.9025E+02
      4.621  0.1765E+01  0.9038E+02
      4.697  0.3888E+01  0.9068E+02
      4.773  0.4902E+01  0.9105E+02
      4.850  0.4680E+01  0.9141E+02
      4.926  0.4286E+01  0.9174E+02
      5.003  0.4774E+01  0.9210E+02
      5.079  0.5063E+01  0.9249E+02
      5.156  0.7223E+01  0.9304E+02
      5.232  0.8336E+01  0.9368E+02
      5.309  0.7033E+01  0.9422E+02
      5.385  0.4482E+01  0.9456E+02
      5.462  0.5007E+01  0.9494E+02
      5.538  0.9306E+01  0.9566E+02
      5.615  0.9549E+01  0.9639E+02
      5.691  0.5770E+01  0.9683E+02
      5.767  0.3565E+01  0.9710E+02
      5.844  0.7644E+01  0.9768E+02
      5.920  0.1123E+02  0.9854E+02
      5.997  0.1080E+02  0.9937E+02
      6.073  0.1107E+02  0.1002E+03
      6.150  0.9539E+01  0.1009E+03
      6.226  0.1040E+02  0.1017E+03
      6.303  0.1393E+02  0.1028E+03
      6.379  0.1347E+02  0.1038E+03
      6.456  0.1095E+02  0.1047E+03
      6.532  0.1335E+02  0.1057E+03
      6.609  0.1118E+02  0.1065E+03
      6.685  0.1403E+02  0.1076E+03
      6.762  0.2038E+02  0.1092E+03
      6.838  0.1908E+02  0.1106E+03
      6.914  0.1836E+02  0.1120E+03
      6.991  0.1466E+02  0.1132E+03
      7.067  0.1126E+02  0.1140E+03
      7.144  0.9450E+01  0.1147E+03
      7.220  0.8834E+01  0.1154E+03
      7.297  0.7088E+01  0.1160E+03
      7.373  0.5510E+01  0.1164E+03
      7.450  0.5263E+01  0.1168E+03
      7.526  0.6280E+01  0.1173E+03
      7.603  0.1038E+02  0.1181E+03
      7.679  0.1448E+02  0.1192E+03
      7.756  0.1368E+02  0.1202E+03
      7.832  0.1463E+02  0.1213E+03
      7.908  0.2014E+02  0.1229E+03
      7.985  0.2115E+02  0.1245E+03
      8.061  0.1767E+02  0.1258E+03
      8.138  0.1981E+02  0.1274E+03
      8.214  0.1935E+02  0.1288E+03
      8.291  0.1496E+02  0.1300E+03
      8.367  0.1012E+02  0.1308E+03
      8.444  0.9571E+01  0.1315E+03
      8.520  0.1419E+02  0.1326E+03
      8.597  0.1644E+02  0.1338E+03
      8.673  0.9235E+01  0.1345E+03
      8.750  0.5211E+01  0.1349E+03
      8.826  0.4607E+01  0.1353E+03
      8.903  0.9125E+01  0.1360E+03
      8.979  0.1529E+02  0.1372E+03
      9.055  0.1508E+02  0.1383E+03
      9.132  0.1451E+02  0.1394E+03
      9.208  0.1579E+02  0.1406E+03
      9.285  0.1148E+02  0.1415E+03
      9.361  0.8704E+01  0.1422E+03
      9.438  0.1179E+02  0.1431E+03
      9.514  0.1706E+02  0.1444E+03
      9.591  0.1654E+02  0.1456E+03
      9.667  0.1456E+02  0.1467E+03
      9.744  0.1774E+02  0.1481E+03
      9.820  0.2002E+02  0.1496E+03
      9.897  0.1887E+02  0.1511E+03
      9.973  0.2189E+02  0.1528E+03
     10.049  0.2280E+02  0.1545E+03
     10.126  0.2417E+02  0.1563E+03
     10.202  0.3354E+02  0.1589E+03
     10.279  0.3558E+02  0.1616E+03
     10.355  0.2915E+02  0.1639E+03
     10.432  0.2108E+02  0.1655E+03
     10.508  0.1747E+02  0.1668E+03
     10.585  0.2141E+02  0.1684E+03
     10.661  0.2160E+02  0.1701E+03
     10.738  0.1877E+02  0.1715E+03
     10.814  0.1288E+02  0.1725E+03
     10.891  0.9122E+01  0.1732E+03
     10.967  0.1008E+02  0.1740E+03
     11.044  0.1103E+02  0.1748E+03
     11.120  0.1092E+02  0.1757E+03
     11.196  0.1110E+02  0.1765E+03
     11.273  0.8559E+01  0.1772E+03