   16   16    1    1
  0.1615369E+02  0.5645286E-09  0.5645286E-09  0.8109982E-09  0.5000000E-15
  1.000000000000000E-004
  CAR 
 unknown system                          
    130     30    128
 
  0.1276756E-14  0.1276756E-14  0.1276756E-14  0.6944444E-02
      1        -48.337738   1.000000
      2        -48.337102   1.000000
      3        -48.279589   1.000000
      4        -48.279589   1.000000
      5        -48.279109   1.000000
      6        -48.279109   1.000000
      7        -48.223619   1.000000
      8        -48.223160   1.000000
      9        -24.770515   1.000000
     10        -24.766827   1.000000
     11        -24.758205   1.000000
     12        -24.755480   1.000000
     13        -24.753347   1.000000
     14        -24.736287   1.000000
     15        -24.697999   1.000000
     16        -24.697999   1.000000
     17        -24.695286   1.000000
     18        -24.695286   1.000000
     19        -24.690087   1.000000
     20        -24.690087   1.000000
     21        -24.678667   1.000000
     22        -24.678667   1.000000
     23        -24.637045   1.000000
     24        -24.626101   1.000000
     25        -24.287833   1.000000
     26        -24.287833   1.000000
     27        -24.287292   1.000000
     28        -24.287292   1.000000
     29        -24.251438   1.000000
     30        -24.250801   1.000000
     31        -24.240554   1.000000
     32        -24.239946   1.000000
     33         -6.132803   1.000000
     34         -6.113310   1.000000
     35         -6.090349   1.000000
     36         -6.090349   1.000000
     37         -6.063158   1.000000
     38         -0.905091   1.000000
     39          0.571369   1.000000
     40          2.918292   1.000000
     41          3.020057   1.000000
     42          3.428717   1.000000
     43          3.608219   1.000000
     44          3.744940   1.000000
     45          3.744940   1.000000
     46          3.783266   1.000000
     47          5.072159   1.000000
     48          5.346941   1.000000
     49          5.346941   1.000000
     50          5.775625   1.000000
     51          6.006310   1.000000
     52          6.006310   1.000000
     53          6.476763   1.000000
     54          6.580430   1.000000
     55          6.601902   1.000000
     56          7.116491   1.000000
     57          7.139936   1.000000
     58          7.139936   1.000000
     59          7.146824   1.000000
     60          7.458147   1.000000
     61          7.611970   1.000000
     62          7.800614   1.000000
     63          7.800614   1.000000
     64          7.955233   1.000010
     65          7.981139   1.000049
     66          8.038518   1.000965
     67          8.038518   1.000965
     68          8.143236   1.027949
     69          8.143236   1.027949
     70          8.946676  -0.000000
     71          9.709314  -0.000000
     72          9.709314  -0.000000
     73          9.781318  -0.000000
     74         10.041864  -0.000000
     75         10.041864  -0.000000
     76         10.083826  -0.000000
     77         10.083826  -0.000000
     78         10.109496  -0.000000
     79         10.109496  -0.000000
     80         10.427430   0.000000
     81         10.462385   0.000000
     82         10.462385   0.000000
     83         10.575608   0.000000
     84         10.595012   0.000000
     85         10.801844   0.000000
     86         10.803246   0.000000
     87         11.222478   0.000000
     88         11.611196   0.000000
     89         11.622076   0.000000
     90         11.976757   0.000000
     91         12.141409   0.000000
     92         12.474281   0.000000
     93         12.476595   0.000000
     94         12.590415   0.000000
     95         12.590415   0.000000
     96         12.612054   0.000000
     97         12.612054   0.000000
     98         13.086682   0.000000
     99         13.319994   0.000000
    100         13.319994   0.000000
    101         13.626740   0.000000
    102         13.626740   0.000000
    103         13.707874   0.000000
    104         13.781273   0.000000
    105         14.044131   0.000000
    106         14.044131   0.000000
    107         14.264764   0.000000
    108         14.545363   0.000000
    109         14.744432   0.000000
    110         16.254128   0.000000
    111         16.311871   0.000000
    112         16.479937   0.000000
    113         16.585357   0.000000
    114         16.625749   0.000000
    115         16.625749   0.000000
    116         17.825271   0.000000
    117         17.951167   0.000000
    118         18.667770   0.000000
    119         18.667770   0.000000
    120         19.016927   0.000000
    121         19.016927   0.000000
    122         19.404814   0.000000
    123         19.404816   0.000000
    124         19.964921   0.000000
    125         20.519657   0.000000
    126         20.519785   0.000000
    127         20.687035   0.000000
    128         20.687051   0.000000
 
  0.1666667E+00  0.1276756E-14  0.1276756E-14  0.2777778E-01
      1        -48.333871   1.000000
      2        -48.333251   1.000000
      3        -48.283513   1.000000
      4        -48.283017   1.000000
      5        -48.275864   1.000000
      6        -48.275387   1.000000
      7        -48.227391   1.000000
      8        -48.226931   1.000000
      9        -24.761702   1.000000
     10        -24.758005   1.000000
     11        -24.749599   1.000000
     12        -24.734003   1.000000
     13        -24.731080   1.000000
     14        -24.727401   1.000000
     15        -24.702495   1.000000
     16        -24.699739   1.000000
     17        -24.694399   1.000000
     18        -24.689122   1.000000
     19        -24.682584   1.000000
     20        -24.677013   1.000000
     21        -24.665885   1.000000
     22        -24.664023   1.000000
     23        -24.640752   1.000000
     24        -24.629718   1.000000
     25        -24.320571   1.000000
     26        -24.319865   1.000000
     27        -24.285039   1.000000
     28        -24.284511   1.000000
     29        -24.277876   1.000000
     30        -24.277226   1.000000
     31        -24.247803   1.000000
     32        -24.247144   1.000000
     33         -6.132128   1.000000
     34         -6.113436   1.000000
     35         -6.090461   1.000000
     36         -6.090292   1.000000
     37         -6.062821   1.000000
     38         -0.770627   1.000000
     39          0.667279   1.000000
     40          2.303475   1.000000
     41          2.824990   1.000000
     42          3.173738   1.000000
     43          3.395174   1.000000
     44          3.742141   1.000000
     45          3.881650   1.000000
     46          4.934745   1.000000
     47          5.117458   1.000000
     48          5.396368   1.000000
     49          5.660805   1.000000
     50          5.851132   1.000000
     51          5.884627   1.000000
     52          5.973962   1.000000
     53          6.185476   1.000000
     54          6.587045   1.000000
     55          6.657166   1.000000
     56          6.679115   1.000000
     57          6.786894   1.000000
     58          7.017162   1.000000
     59          7.349293   1.000000
     60          7.509043   1.000000
     61          7.686314   1.000000
     62          7.820982   1.000000
     63          7.844862   1.000000
     64          7.885042   1.000000
     65          7.939518   1.000004
     66          8.005659   1.000191
     67          8.190017   1.027574
     68          8.255905   0.788341
     69          8.901678  -0.000000
     70          9.000161  -0.000000
     71          9.692946  -0.000000
     72          9.753395  -0.000000
     73          9.775821  -0.000000
     74          9.812569  -0.000000
     75         10.114652  -0.000000
     76         10.128031  -0.000000
     77         10.193068  -0.000000
     78         10.243840  -0.000000
     79         10.254269  -0.000000
     80         10.370120   0.000000
     81         10.446603   0.000000
     82         10.493959   0.000000
     83         10.529222   0.000000
     84         10.552439   0.000000
     85         10.620362   0.000000
     86         10.778716   0.000000
     87         10.944913   0.000000
     88         11.400710   0.000000
     89         11.475738   0.000000
     90         11.499603   0.000000
     91         12.025455   0.000000
     92         12.225004   0.000000
     93         12.268161   0.000000
     94         12.323756   0.000000
     95         12.327514   0.000000
     96         12.586527   0.000000
     97         13.203014   0.000000
     98         13.327965   0.000000
     99         13.377822   0.000000
    100         13.438501   0.000000
    101         13.927411   0.000000
    102         13.942564   0.000000
    103         13.992868   0.000000
    104         14.098595   0.000000
    105         14.179157   0.000000
    106         14.242317   0.000000
    107         14.470507   0.000000
    108         14.517677   0.000000
    109         14.855424   0.000000
    110         15.096535   0.000000
    111         15.903899   0.000000
    112         16.203380   0.000000
    113         16.806895   0.000000
    114         16.906075   0.000000
    115         17.025211   0.000000
    116         17.895564   0.000000
    117         18.152694   0.000000
    118         18.609089   0.000000
    119         18.823960   0.000000
    120         18.888143   0.000000
    121         19.067722   0.000000
    122         19.253375   0.000000
    123         19.274401   0.000000
    124         19.475665   0.000000
    125         19.582320   0.000000
    126         19.919659   0.000000
    127         20.059346   0.000000
    128         20.074680   0.000000
 
  0.3333333E+00  0.1276756E-14  0.1276756E-14  0.2777778E-01
      1        -48.323281   1.000000
      2        -48.322690   1.000000
      3        -48.294208   1.000000
      4        -48.293684   1.000000
      5        -48.265671   1.000000
      6        -48.265201   1.000000
      7        -48.237681   1.000000
      8        -48.237219   1.000000
      9        -24.748511   1.000000
     10        -24.745123   1.000000
     11        -24.737958   1.000000
     12        -24.722289   1.000000
     13        -24.714768   1.000000
     14        -24.711888   1.000000
     15        -24.706145   1.000000
     16        -24.693264   1.000000
     17        -24.678652   1.000000
     18        -24.666357   1.000000
     19        -24.650903   1.000000
     20        -24.646793   1.000000
     21        -24.644460   1.000000
     22        -24.639529   1.000000
     23        -24.585473   1.000000
     24        -24.584253   1.000000
     25        -24.409292   1.000000
     26        -24.408140   1.000000
     27        -24.360920   1.000000
     28        -24.360120   1.000000
     29        -24.277373   1.000000
     30        -24.276828   1.000000
     31        -24.256230   1.000000
     32        -24.255610   1.000000
     33         -6.130795   1.000000
     34         -6.113692   1.000000
     35         -6.090684   1.000000
     36         -6.090181   1.000000
     37         -6.062128   1.000000
     38         -0.375880   1.000000
     39          0.908043   1.000000
     40          1.287219   1.000000
     41          2.136800   1.000000
     42          3.619526   1.000000
     43          3.653341   1.000000
     44          3.973036   1.000000
     45          4.282182   1.000000
     46          4.631881   1.000000
     47          4.976568   1.000000
     48          5.200585   1.000000
     49          5.526535   1.000000
     50          5.775678   1.000000
     51          5.878389   1.000000
     52          6.065998   1.000000
     53          6.443698   1.000000
     54          6.727761   1.000000
     55          6.867047   1.000000
     56          6.871023   1.000000
     57          6.904630   1.000000
     58          6.936922   1.000000
     59          7.534533   1.000000
     60          7.594991   1.000000
     61          7.652777   1.000000
     62          7.678913   1.000000
     63          7.875980   1.000000
     64          7.956754   1.000011
     65          8.128749   1.021311
     66          8.157881   1.033523
     67          8.585744  -0.000136
     68          8.607640  -0.000039
     69          9.077596  -0.000000
     70          9.155102  -0.000000
     71          9.214779  -0.000000
     72          9.399434  -0.000000
     73          9.594568  -0.000000
     74          9.760440  -0.000000
     75          9.878443  -0.000000
     76         10.078329  -0.000000
     77         10.202523  -0.000000
     78         10.286799  -0.000000
     79         10.370600   0.000000
     80         10.418166   0.000000
     81         10.438625   0.000000
     82         10.447501   0.000000
     83         10.549283   0.000000
     84         10.596382   0.000000
     85         10.606663   0.000000
     86         10.716019   0.000000
     87         11.039956   0.000000
     88         11.138514   0.000000
     89         11.150238   0.000000
     90         11.183687   0.000000
     91         11.735898   0.000000
     92         11.750787   0.000000
     93         12.040085   0.000000
     94         12.176516   0.000000
     95         12.417281   0.000000
     96         12.496631   0.000000
     97         12.761360   0.000000
     98         13.167443   0.000000
     99         13.742118   0.000000
    100         13.744513   0.000000
    101         13.993971   0.000000
    102         14.268143   0.000000
    103         14.385572   0.000000
    104         14.590055   0.000000
    105         14.686443   0.000000
    106         14.945303   0.000000
    107         14.966329   0.000000
    108         15.007133   0.000000
    109         15.123359   0.000000
    110         15.204185   0.000000
    111         15.396398   0.000000
    112         15.953662   0.000000
    113         16.551311   0.000000
    114         17.148580   0.000000
    115         17.298218   0.000000
    116         17.624024   0.000000
    117         17.762142   0.000000
    118         18.044097   0.000000
    119         18.055539   0.000000
    120         18.127843   0.000000
    121         18.214397   0.000000
    122         18.356884   0.000000
    123         18.917362   0.000000
    124         19.066657   0.000000
    125         19.130254   0.000000
    126         19.294869   0.000000
    127         19.470060   0.000000
    128         19.621064   0.000000
 
  0.5000000E+00  0.1276756E-14  0.1276756E-14  0.1388889E-01
      1        -48.309066   1.000000
      2        -48.308506   1.000000
      3        -48.308478   1.000000
      4        -48.307916   1.000000
      5        -48.251987   1.000000
      6        -48.251516   1.000000
      7        -48.251414   1.000000
      8        -48.250950   1.000000
      9        -24.731923   1.000000
     10        -24.731234   1.000000
     11        -24.728704   1.000000
     12        -24.728260   1.000000
     13        -24.722387   1.000000
     14        -24.721807   1.000000
     15        -24.708003   1.000000
     16        -24.707580   1.000000
     17        -24.664966   1.000000
     18        -24.664580   1.000000
     19        -24.653183   1.000000
     20        -24.652663   1.000000
     21        -24.530872   1.000000
     22        -24.529036   1.000000
     23        -24.527073   1.000000
     24        -24.525344   1.000000
     25        -24.475699   1.000000
     26        -24.474727   1.000000
     27        -24.472111   1.000000
     28        -24.471067   1.000000
     29        -24.267064   1.000000
     30        -24.266690   1.000000
     31        -24.266482   1.000000
     32        -24.266073   1.000000
     33         -6.130139   1.000000
     34         -6.113819   1.000000
     35         -6.090795   1.000000
     36         -6.090125   1.000000
     37         -6.061774   1.000000
     38          0.130815   1.000000
     39          0.452682   1.000000
     40          1.369181   1.000000
     41          1.614963   1.000000
     42          3.973374   1.000000
     43          4.290789   1.000000
     44          4.319512   1.000000
     45          4.341732   1.000000
     46          4.370269   1.000000
     47          4.370276   1.000000
     48          4.883752   1.000000
     49          4.963437   1.000000
     50          5.684946   1.000000
     51          5.739881   1.000000
     52          6.364026   1.000000
     53          6.397215   1.000000
     54          7.132641   1.000000
     55          7.157563   1.000000
     56          7.204581   1.000000
     57          7.206155   1.000000
     58          7.224263   1.000000
     59          7.280940   1.000000
     60          7.461009   1.000000
     61          7.491368   1.000000
     62          8.020011   1.000399
     63          8.067980   1.003339
     64          8.085384   1.006296
     65          8.092528   1.007985
     66          8.599823  -0.000062
     67          8.654477  -0.000002
     68          8.863421  -0.000000
     69          8.917769  -0.000000
     70          9.065803  -0.000000
     71          9.125830  -0.000000
     72          9.160939  -0.000000
     73          9.189713  -0.000000
     74          9.368363  -0.000000
     75          9.397060  -0.000000
     76         10.050944  -0.000000
     77         10.074506  -0.000000
     78         10.317420   0.000000
     79         10.327071   0.000000
     80         10.349526   0.000000
     81         10.476853   0.000000
     82         10.621292   0.000000
     83         10.636800   0.000000
     84         10.726956   0.000000
     85         10.738413   0.000000
     86         10.787716   0.000000
     87         10.800046   0.000000
     88         11.081707   0.000000
     89         11.174034   0.000000
     90         11.589985   0.000000
     91         11.590193   0.000000
     92         11.743408   0.000000
     93         11.922019   0.000000
     94         11.960999   0.000000
     95         12.009366   0.000000
     96         12.309891   0.000000
     97         12.331965   0.000000
     98         13.573369   0.000000
     99         13.610192   0.000000
    100         13.878893   0.000000
    101         13.979682   0.000000
    102         14.445384   0.000000
    103         14.453956   0.000000
    104         14.762242   0.000000
    105         14.914117   0.000000
    106         15.482699   0.000000
    107         15.515907   0.000000
    108         15.557201   0.000000
    109         15.634681   0.000000
    110         16.184313   0.000000
    111         16.234790   0.000000
    112         16.272883   0.000000
    113         16.274585   0.000000
    114         16.374513   0.000000
    115         16.474016   0.000000
    116         16.488326   0.000000
    117         16.508552   0.000000
    118         16.868629   0.000000
    119         17.217834   0.000000
    120         17.972571   0.000000
    121         18.178237   0.000000
    122         18.623847   0.000000
    123         19.019880   0.000000
    124         19.366751   0.000000
    125         19.410084   0.000000
    126         19.481935   0.000000
    127         19.507776   0.000000
    128         19.594816   0.000000
 
  0.1666667E+00  0.1666667E+00  0.1276756E-14  0.2777778E-01
      1        -48.330016   1.000000
      2        -48.329397   1.000000
      3        -48.279777   1.000000
      4        -48.279777   1.000000
      5        -48.279292   1.000000
      6        -48.279290   1.000000
      7        -48.231176   1.000000
      8        -48.230714   1.000000
      9        -24.748345   1.000000
     10        -24.735086   1.000000
     11        -24.731801   1.000000
     12        -24.725184   1.000000
     13        -24.722793   1.000000
     14        -24.720250   1.000000
     15        -24.693389   1.000000
     16        -24.693273   1.000000
     17        -24.681084   1.000000
     18        -24.680804   1.000000
     19        -24.672075   1.000000
     20        -24.669873   1.000000
     21        -24.668615   1.000000
     22        -24.666818   1.000000
     23        -24.644511   1.000000
     24        -24.633327   1.000000
     25        -24.319534   1.000000
     26        -24.318715   1.000000
     27        -24.315771   1.000000
     28        -24.315151   1.000000
     29        -24.285225   1.000000
     30        -24.284542   1.000000
     31        -24.274375   1.000000
     32        -24.273708   1.000000
     33         -6.131440   1.000000
     34         -6.113578   1.000000
     35         -6.090413   1.000000
     36         -6.090386   1.000000
     37         -6.062498   1.000000
     38         -0.637156   1.000000
     39          0.763224   1.000000
     40          2.293738   1.000000
     41          2.579923   1.000000
     42          2.910030   1.000000
     43          3.093029   1.000000
     44          3.325096   1.000000
     45          4.635530   1.000000
     46          5.113820   1.000000
     47          5.195403   1.000000
     48          5.257303   1.000000
     49          5.907312   1.000000
     50          5.916975   1.000000
     51          5.951483   1.000000
     52          6.205902   1.000000
     53          6.232943   1.000000
     54          6.261946   1.000000
     55          6.660944   1.000000
     56          6.714528   1.000000
     57          6.731766   1.000000
     58          6.753266   1.000000
     59          7.565372   1.000000
     60          7.748023   1.000000
     61          7.765901   1.000000
     62          7.890157   1.000000
     63          7.906095   1.000000
     64          7.910151   1.000000
     65          7.976759   1.000038
     66          8.072350   1.003944
     67          8.078777   1.004994
     68          8.278640   0.616590
     69          9.051686  -0.000000
     70          9.191640  -0.000000
     71          9.699817  -0.000000
     72          9.702841  -0.000000
     73          9.722116  -0.000000
     74          9.896631  -0.000000
     75          9.903483  -0.000000
     76         10.000321  -0.000000
     77         10.265132  -0.000000
     78         10.276636  -0.000000
     79         10.288567  -0.000000
     80         10.309371   0.000000
     81         10.413227   0.000000
     82         10.431440   0.000000
     83         10.475863   0.000000
     84         10.489101   0.000000
     85         10.603241   0.000000
     86         10.766278   0.000000
     87         10.963505   0.000000
     88         11.176627   0.000000
     89         11.326413   0.000000
     90         11.366737   0.000000
     91         11.560749   0.000000
     92         12.149429   0.000000
     93         12.180194   0.000000
     94         12.244675   0.000000
     95         12.245935   0.000000
     96         12.333418   0.000000
     97         13.402959   0.000000
     98         13.579887   0.000000
     99         13.587376   0.000000
    100         13.596651   0.000000
    101         14.021525   0.000000
    102         14.223780   0.000000
    103         14.285730   0.000000
    104         14.294085   0.000000
    105         14.297899   0.000000
    106         14.481456   0.000000
    107         14.537756   0.000000
    108         14.627547   0.000000
    109         14.791042   0.000000
    110         15.095247   0.000000
    111         15.681054   0.000000
    112         15.904208   0.000000
    113         16.853638   0.000000
    114         16.910801   0.000000
    115         17.147891   0.000000
    116         17.267333   0.000000
    117         17.627100   0.000000
    118         18.299803   0.000000
    119         18.311962   0.000000
    120         18.376414   0.000000
    121         18.398790   0.000000
    122         18.802376   0.000000
    123         19.317459   0.000000
    124         19.416653   0.000000
    125         19.973888   0.000000
    126         20.018857   0.000000
    127         20.037328   0.000000
    128         20.233871   0.000000
 
  0.3333333E+00  0.1666667E+00  0.1276756E-14  0.5555556E-01
      1        -48.319451   1.000000
      2        -48.318860   1.000000
      3        -48.290444   1.000000
      4        -48.289928   1.000000
      5        -48.269559   1.000000
      6        -48.269076   1.000000
      7        -48.241496   1.000000
      8        -48.241023   1.000000
      9        -24.736148   1.000000
     10        -24.721111   1.000000
     11        -24.715771   1.000000
     12        -24.712154   1.000000
     13        -24.704802   1.000000
     14        -24.691626   1.000000
     15        -24.682814   1.000000
     16        -24.682531   1.000000
     17        -24.680245   1.000000
     18        -24.670171   1.000000
     19        -24.654754   1.000000
     20        -24.643205   1.000000
     21        -24.642617   1.000000
     22        -24.640358   1.000000
     23        -24.589540   1.000000
     24        -24.588249   1.000000
     25        -24.406150   1.000000
     26        -24.404978   1.000000
     27        -24.364283   1.000000
     28        -24.363442   1.000000
     29        -24.309532   1.000000
     30        -24.308828   1.000000
     31        -24.287430   1.000000
     32        -24.286757   1.000000
     33         -6.130084   1.000000
     34         -6.113861   1.000000
     35         -6.090616   1.000000
     36         -6.090279   1.000000
     37         -6.061837   1.000000
     38         -0.245686   1.000000
     39          1.005908   1.000000
     40          1.405956   1.000000
     41          2.226798   1.000000
     42          2.824935   1.000000
     43          3.302983   1.000000
     44          3.763231   1.000000
     45          4.015199   1.000000
     46          4.471867   1.000000
     47          5.302931   1.000000
     48          5.460599   1.000000
     49          6.056169   1.000000
     50          6.058042   1.000000
     51          6.286875   1.000000
     52          6.313707   1.000000
     53          6.336603   1.000000
     54          6.520794   1.000000
     55          6.934552   1.000000
     56          6.948410   1.000000
     57          6.967950   1.000000
     58          6.988895   1.000000
     59          7.523862   1.000000
     60          7.669877   1.000000
     61          7.671822   1.000000
     62          7.799410   1.000000
     63          7.970385   1.000026
     64          8.121287   1.017994
     65          8.233142   0.917410
     66          8.239648   0.885702
     67          8.403771  -0.033188
     68          8.564521  -0.000411
     69          9.052075  -0.000000
     70          9.200881  -0.000000
     71          9.456721  -0.000000
     72          9.525508  -0.000000
     73          9.611602  -0.000000
     74          9.719089  -0.000000
     75          9.803694  -0.000000
     76         10.011171  -0.000000
     77         10.052199  -0.000000
     78         10.188658  -0.000000
     79         10.207308  -0.000000
     80         10.244371  -0.000000
     81         10.325130   0.000000
     82         10.333699   0.000000
     83         10.350110   0.000000
     84         10.384912   0.000000
     85         10.462992   0.000000
     86         10.497766   0.000000
     87         10.963109   0.000000
     88         11.035937   0.000000
     89         11.118388   0.000000
     90         11.402158   0.000000
     91         11.483679   0.000000
     92         11.780861   0.000000
     93         12.007331   0.000000
     94         12.224308   0.000000
     95         12.244862   0.000000
     96         12.796379   0.000000
     97         12.822644   0.000000
     98         13.235473   0.000000
     99         13.662910   0.000000
    100         14.010837   0.000000
    101         14.319851   0.000000
    102         14.392434   0.000000
    103         14.466899   0.000000
    104         14.565151   0.000000
    105         14.568096   0.000000
    106         14.728506   0.000000
    107         14.924207   0.000000
    108         14.941205   0.000000
    109         15.132161   0.000000
    110         15.707764   0.000000
    111         15.833392   0.000000
    112         16.003578   0.000000
    113         16.340712   0.000000
    114         16.554855   0.000000
    115         16.854252   0.000000
    116         16.943950   0.000000
    117         17.097294   0.000000
    118         17.416006   0.000000
    119         17.785739   0.000000
    120         17.830314   0.000000
    121         17.878669   0.000000
    122         18.187571   0.000000
    123         18.460451   0.000000
    124         19.346398   0.000000
    125         19.601199   0.000000
    126         19.789419   0.000000
    127         19.918704   0.000000
    128         20.026548   0.000000
 
  0.5000000E+00  0.1666667E+00  0.1276756E-14  0.2777778E-01
      1        -48.305268   1.000000
      2        -48.304716   1.000000
      3        -48.304680   1.000000
      4        -48.304127   1.000000
      5        -48.255840   1.000000
      6        -48.255357   1.000000
      7        -48.255265   1.000000
      8        -48.254788   1.000000
      9        -24.720774   1.000000
     10        -24.720136   1.000000
     11        -24.706446   1.000000
     12        -24.706106   1.000000
     13        -24.699452   1.000000
     14        -24.698849   1.000000
     15        -24.696508   1.000000
     16        -24.695975   1.000000
     17        -24.668938   1.000000
     18        -24.668537   1.000000
     19        -24.656936   1.000000
     20        -24.656424   1.000000
     21        -24.527209   1.000000
     22        -24.525434   1.000000
     23        -24.523428   1.000000
     24        -24.521746   1.000000
     25        -24.479401   1.000000