       N       E                     dE             d eps       ncg     rms          rms(c)
DAV:   1     0.100195662034E+04    0.10020E+04   -0.64826E+04  7680   0.122E+03
DAV:   2    -0.120727149600E+02   -0.10140E+04   -0.97030E+03  7744   0.317E+02
DAV:   3    -0.958410678043E+02   -0.83768E+02   -0.81936E+02 15360   0.751E+01
DAV:   4    -0.984005396504E+02   -0.25595E+01   -0.25591E+01  7680   0.119E+01
DAV:   5    -0.984598807167E+02   -0.59341E-01   -0.59340E-01 12224   0.175E+00
DAV:   6    -0.984610324048E+02   -0.11517E-02   -0.11517E-02  9600   0.223E-01
DAV:   7    -0.984610854521E+02   -0.53047E-04   -0.53048E-04 12992   0.434E-02
DAV:   8    -0.984610862048E+02   -0.75263E-06   -0.75229E-06  8768   0.394E-03
   1 F= -.98461086E+02 E0= -.98462376E+02  d E =0.386926E-02
