 vasp.6.5.0 16Dec24 (build Apr 17 2025 17:55:45) complex                        
  
 executed on             LinuxIFC date 2025.06.04  11:04:17
 running   64 mpi-ranks, on    1 nodes
 distrk:  each k-point on   64 cores,    1 groups
 distr:  one band on NCORE=   1 cores,   64 groups


--------------------------------------------------------------------------------------------------------


 INCAR:
   ISTART = 1
   ICHARG = 11
   PREC = N
   LREAL = .FALSE.
   ENCUT = 520
   ALGO = N
   NELM = 500
   EDIFF = 1E-06
   IBRION = -1
   ISIF = 3
   NSW = 0
   EDIFFG = -0.01
   LAECHG = .T.
   SYMPREC = 1E-6
   NEDOS = 1000
   LORBIT = 10
   ISMEAR = 1
   SIGMA = 0.1

 POTCAR:    PAW_PBE Ti_sv 26Sep2005               
 POTCAR:    PAW_PBE Ga_d 06Jul2010                
 POTCAR:    PAW_PBE Al 04Jan2001                  
 -----------------------------------------------------------------------------
|                                                                             |
|           W    W    AA    RRRRR   N    N  II  N    N   GGGG   !!!           |
|           W    W   A  A   R    R  NN   N  II  NN   N  G    G  !!!           |
|           W    W  A    A  R    R  N N  N  II  N N  N  G       !!!           |
|           W WW W  AAAAAA  RRRRR   N  N N  II  N  N N  G  GGG   !            |
|           WW  WW  A    A  R   R   N   NN  II  N   NN  G    G                |
|           W    W  A    A  R    R  N    N  II  N    N   GGGG   !!!           |
|                                                                             |
|     For optimal performance we recommend to set                             |
|       NCORE = 2 up to number-of-cores-per-socket                            |
|     NCORE specifies how many cores store one orbital (NPAR=cpu/NCORE).      |
|     This setting can greatly improve the performance of VASP for DFT.       |
|     The default, NCORE=1 might be grossly inefficient on modern             |
|     multi-core architectures or massively parallel machines. Do your        |
|     own testing! More info at https://www.vasp.at/wiki/index.php/NCORE      |
|     Unfortunately you need to use the default for GW and RPA                |
|     calculations (for HF NCORE is supported but not extensively tested      |
|     yet).                                                                   |
|                                                                             |
 -----------------------------------------------------------------------------

 POTCAR:    PAW_PBE Ti_sv 26Sep2005               
   SHA256 =  4d747badb5a5ea28d858fbac70885b3f8929d6fd9e5b0dbe1ecb9878dc164da1 Ti_sv/POTCAR          
   COPYR  = (c) Copyright 26Sep2005 Georg Kresse                                                    
   COPYR  = This file is part of the software VASP. Any use, copying, and all other rights are regul
   COPYR  = If you do not have a valid VASP license, you may not use, copy or distribute this file. 
   VRHFIN =Ti: 3p4s3d                                                                               
   LEXCH  = PE                                                                                      
   EATOM  =  1588.0892 eV,  116.7213 Ry                                                             
                                                                                                    
   TITEL  = PAW_PBE Ti_sv 26Sep2005                                                                 
   LULTRA =        F    use ultrasoft PP ?                                                          
   IUNSCR =        1    unscreen: 0-lin 1-nonlin 2-no                                               
   RPACOR =    2.000    partial core radius                                                         
   POMASS =   47.880; ZVAL   =   12.000    mass and valenz                                          
   RCORE  =    2.300    outmost cutoff radius                                                       
   RWIGS  =    2.300; RWIGS  =    1.217    wigner-seitz radius (au A)                               
   ENMAX  =  274.610; ENMIN  =  205.957 eV                                                          
   ICORE  =        3    local potential                                                             
   LCOR   =        T    correct aug charges                                                         
   LPAW   =        T    paw PP                                                                      
   EAUG   =  482.848                                                                                
   RMAX   =    2.348    core radius for proj-oper                                                   
   RAUG   =    1.300    factor for augmentation sphere                                              
   RDEP   =    2.381    radius for radial grids                                                     
   RDEPT  =    1.930    core radius for aug-charge                                                  
                                                                                                    
   Atomic configuration                                                                             
    8 entries                                                                                       
     n  l   j            E        occ.                                                              
     1  0  0.50     -4865.3608   2.0000                                                             
     2  0  0.50      -533.1368   2.0000                                                             
     2  1  1.50      -440.5031   6.0000                                                             
     3  0  0.50       -59.3186   2.0000                                                             
     4  0  0.50        -3.7291   1.0000                                                             
     3  1  1.50       -35.7012   6.0000                                                             
     3  2  2.50        -1.9157   3.0000                                                             
     4  3  2.50        -1.3606   0.0000                                                             
   Description                                                                                      
     l       E           TYP  RCUT    TYP  RCUT                                                     
     0    -59.3185931     23  1.800                                                                 
     0     -3.7290822     23  2.300                                                                 
     1    -35.7012045     23  2.300                                                                 
     1     -1.3605826     23  2.300                                                                 
     2     -1.9156920     23  2.300                                                                 
     2     -0.0236318     23  2.300                                                                 
     3     -1.3605826     23  2.300                                                                 
  local pseudopotential read in
  partial core-charges read in
  partial kinetic energy density read in
  atomic valenz-charges read in
  non local Contribution for L=           0  read in
    real space projection operators read in
  non local Contribution for L=           0  read in
    real space projection operators read in
  non local Contribution for L=           1  read in
    real space projection operators read in
  non local Contribution for L=           1  read in
    real space projection operators read in
  non local Contribution for L=           2  read in
    real space projection operators read in
  non local Contribution for L=           2  read in
    real space projection operators read in
    PAW grid and wavefunctions read in
 
   number of l-projection  operators is LMAX  =           6
   number of lm-projection operators is LMMAX =          18
 
 POTCAR:    PAW_PBE Ga_d 06Jul2010                
   SHA256 =  a60ddf36e14f00ea098d9e3914b3745f1b7105e68786148f49ae384e44b4226c Ga_d/POTCAR           
   COPYR  = (c) Copyright 06Jul2010 Georg Kresse                                                    
   COPYR  = This file is part of the software VASP. Any use, copying, and all other rights are regul
   COPYR  = If you do not have a valid VASP license, you may not use, copy or distribute this file. 
   VRHFIN =Ga: s2p1                                                                                 
   LEXCH  = PE                                                                                      
   EATOM  =  2148.8298 eV,  157.9345 Ry                                                             
                                                                                                    
   TITEL  = PAW_PBE Ga_d 06Jul2010                                                                  
   LULTRA =        F    use ultrasoft PP ?                                                          
   IUNSCR =        1    unscreen: 0-lin 1-nonlin 2-no                                               
   RPACOR =    1.700    partial core radius                                                         
   POMASS =   69.723; ZVAL   =   13.000    mass and valenz                                          
   RCORE  =    2.300    outmost cutoff radius                                                       
   RWIGS  =    2.300; RWIGS  =    1.217    wigner-seitz radius (au A)                               
   ENMAX  =  282.691; ENMIN  =  212.018 eV                                                          
   ICORE  =        3    local potential                                                             
   LCOR   =        T    correct aug charges                                                         
   LPAW   =        T    paw PP                                                                      
   EAUG   =  490.690                                                                                
   DEXC   =    0.000                                                                                
   RMAX   =    2.341    core radius for proj-oper                                                   
   RAUG   =    1.300    factor for augmentation sphere                                              
   RDEP   =    2.413    radius for radial grids                                                     
   RDEPT  =    1.856    core radius for aug-charge                                                  
                                                                                                    
   Atomic configuration                                                                             
    9 entries                                                                                       
     n  l   j            E        occ.                                                              
     1  0  0.50    -10228.7831   2.0000                                                             
     2  0  0.50     -1262.1604   2.0000                                                             
     2  1  1.50     -1098.6333   6.0000                                                             
     3  0  0.50      -148.1110   2.0000                                                             
     3  1  1.50       -98.8436   6.0000                                                             
     3  2  2.50       -19.1549  10.0000                                                             
     4  0  0.50        -8.9483   2.0000                                                             
     4  1  0.50        -2.5791   1.0000                                                             
     4  3  2.50        -2.7416   0.0000                                                             
   Description                                                                                      
     l       E           TYP  RCUT    TYP  RCUT                                                     
     2    -19.1549037     23  2.300                                                                 
     2     -5.4423304     23  2.300                                                                 
     0     -8.9483111     23  2.300                                                                 
     0     68.0291300     23  2.300                                                                 
     1     -2.5790802     23  2.100                                                                 
     1     81.6349560     23  2.300                                                                 
     3      6.8029130     23  2.300                                                                 
  local pseudopotential read in
  partial core-charges read in
  partial kinetic energy density read in
  atomic valenz-charges read in
  non local Contribution for L=           2  read in
    real space projection operators read in
  non local Contribution for L=           2  read in
    real space projection operators read in
  non local Contribution for L=           0  read in
    real space projection operators read in
  non local Contribution for L=           0  read in
    real space projection operators read in
  non local Contribution for L=           1  read in
    real space projection operators read in
  non local Contribution for L=           1  read in
    real space projection operators read in
    PAW grid and wavefunctions read in
 
   number of l-projection  operators is LMAX  =           6
   number of lm-projection operators is LMMAX =          18
 
 POTCAR:    PAW_PBE Al 04Jan2001                  
   SHA256 =  17880443556af62b473fe41b62a467bd001ad55d2cabe504a3f22e34d4e9db96 Al/POTCAR             
   COPYR  = (c) Copyright 04Jan2001 Georg Kresse                                                    
   COPYR  = This file is part of the software VASP. Any use, copying, and all other rights are regul
   COPYR  = If you do not have a valid VASP license, you may not use, copy or distribute this file. 
   VRHFIN =Al: s2p1                                                                                 
   LEXCH  = PE                                                                                      
   EATOM  =    53.5387 eV,    3.9350 Ry                                                             
                                                                                                    
   TITEL  = PAW_PBE Al 04Jan2001                                                                    
   LULTRA =        F    use ultrasoft PP ?                                                          
   IUNSCR =        1    unscreen: 0-lin 1-nonlin 2-no                                               
   RPACOR =    1.500    partial core radius                                                         
   POMASS =   26.981; ZVAL   =    3.000    mass and valenz                                          
   RCORE  =    1.900    outmost cutoff radius                                                       
   RWIGS  =    2.650; RWIGS  =    1.402    wigner-seitz radius (au A)                               
   ENMAX  =  240.300; ENMIN  =  180.225 eV                                                          
   ICORE  =        2    local potential                                                             
   LCOR   =        T    correct aug charges                                                         
   LPAW   =        T    paw PP                                                                      
   EAUG   =  291.052                                                                                
   DEXC   =    0.000                                                                                
   RMAX   =    1.939    core radius for proj-oper                                                   
   RAUG   =    1.300    factor for augmentation sphere                                              
   RDEP   =    1.966    radius for radial grids                                                     
   RDEPT  =    1.856    core radius for aug-charge                                                  
                                                                                                    
   Atomic configuration                                                                             
    6 entries                                                                                       
     n  l   j            E        occ.                                                              
     1  0  0.50     -1511.1048   2.0000                                                             
     2  0  0.50      -108.1629   2.0000                                                             
     2  1  1.50       -69.6402   6.0000                                                             
     3  0  0.50        -7.7528   2.0000                                                             
     3  1  1.50        -2.7121   1.0000                                                             
     3  2  2.50        -2.7212   0.0000                                                             
   Description                                                                                      
     l       E           TYP  RCUT    TYP  RCUT                                                     
     0     -7.7528455     23  1.900                                                                 
     0     -3.3096929     23  1.900                                                                 
     1     -2.7120682     23  1.900                                                                 
     1     13.6058260     23  1.900                                                                 
     2     -2.7211652      7  1.900                                                                 
  local pseudopotential read in
  partial core-charges read in
  partial kinetic energy density read in
  atomic valenz-charges read in
  non local Contribution for L=           0  read in
    real space projection operators read in
  non local Contribution for L=           0  read in
    real space projection operators read in
  non local Contribution for L=           1  read in
    real space projection operators read in
  non local Contribution for L=           1  read in
    real space projection operators read in
    PAW grid and wavefunctions read in
 
   number of l-projection  operators is LMAX  =           4
   number of lm-projection operators is LMMAX =           8
 
  PAW_PBE Ti_sv 26Sep2005               :
 energy of atom  1       EATOM=-1588.0892
 kinetic energy error for atom=    0.0042 (will be added to EATOM!!)
  PAW_PBE Ga_d 06Jul2010                :
 energy of atom  2       EATOM=-2148.8298
 kinetic energy error for atom=    0.0026 (will be added to EATOM!!)
  PAW_PBE Al 04Jan2001                  :
 energy of atom  3       EATOM=  -53.5387
 kinetic energy error for atom=    0.0002 (will be added to EATOM!!)
 
 
 POSCAR: Ti1 Al1
  positions in direct lattice
  velocities in cartesian coordinates


 exchange-correlation table for PE
   RHO(1)=    0.500       N(1)  =     2000
   RHO(2)=  100.500       N(2)  =     4000
 


--------------------------------------------------------------------------------------------------------


 ion  position               nearest neighbor table
   1  0.000  0.000  0.001-   3 2.82   5 2.82   3 2.82   5 2.82   9 2.84  11 2.84  13 2.84  15 2.84
                            10 2.85  14 2.85  12 2.85  16 2.85
   2  0.000  0.000  0.499-   4 2.82   6 2.82   4 2.82   6 2.82   9 2.84  11 2.84  13 2.84  15 2.84
                            10 2.85  14 2.85  12 2.85  16 2.85
   3  0.000  0.500  0.001-   1 2.82   7 2.82   1 2.82   7 2.82   9 2.84  13 2.84  11 2.84  15 2.84
                            10 2.85  12 2.85  14 2.85  16 2.85
   4  0.000  0.500  0.499-   2 2.82   8 2.82   2 2.82   8 2.82   9 2.84  13 2.84  11 2.84  15 2.84
                            10 2.85  12 2.85  14 2.85  16 2.85
   5  0.500  0.000  0.001-   1 2.82   7 2.82   1 2.82   7 2.82   9 2.84  13 2.84  11 2.84  15 2.84
                            10 2.85  12 2.85  14 2.85  16 2.85
   6  0.500  0.000  0.499-   2 2.82   8 2.82   2 2.82   8 2.82   9 2.84  13 2.84  11 2.84  15 2.84
                            10 2.85  12 2.85  14 2.85  16 2.85
   7  0.500  0.500  0.001-   3 2.82   5 2.82   3 2.82   5 2.82   9 2.84  11 2.84  13 2.84  15 2.84
                            10 2.85  14 2.85  12 2.85  16 2.85
   8  0.500  0.500  0.499-   4 2.82   6 2.82   4 2.82   6 2.82   9 2.84  11 2.84  13 2.84  15 2.84
                            10 2.85  14 2.85  12 2.85  16 2.85
   9  0.250  0.250  0.250-  11 2.82  13 2.82  11 2.82  13 2.82   5 2.84   6 2.84   7 2.84   8 2.84
                             1 2.84   2 2.84   3 2.84   4 2.84
  10  0.250  0.250  0.750-  12 2.82  14 2.82  12 2.82  14 2.82   5 2.85   6 2.85   7 2.85   8 2.85
                             1 2.85   2 2.85   3 2.85   4 2.85
  11  0.250  0.750  0.250-   9 2.82  15 2.82   9 2.82  15 2.82   5 2.84   6 2.84   7 2.84   8 2.84
                             1 2.84   2 2.84   3 2.84   4 2.84
  12  0.250  0.750  0.750-  10 2.82  16 2.82  10 2.82  16 2.82   5 2.85   6 2.85   7 2.85   8 2.85
                             1 2.85   2 2.85   3 2.85   4 2.85
  13  0.750  0.250  0.250-   9 2.82  15 2.82  15 2.82   9 2.82   5 2.84   6 2.84   7 2.84   8 2.84
                             1 2.84   2 2.84   3 2.84   4 2.84
  14  0.750  0.250  0.750-  10 2.82  16 2.82  16 2.82  10 2.82   5 2.85   6 2.85   7 2.85   8 2.85
                             1 2.85   2 2.85   3 2.85   4 2.85
  15  0.750  0.750  0.250-  11 2.82  13 2.82  13 2.82  11 2.82   5 2.84   6 2.84   7 2.84   8 2.84
                             1 2.84   2 2.84   3 2.84   4 2.84
  16  0.750  0.750  0.750-  12 2.82  14 2.82  14 2.82  12 2.82   5 2.85   6 2.85   7 2.85   8 2.85
                             1 2.85   2 2.85   3 2.85   4 2.85
 
  LATTYP: Found a simple tetragonal cell.
 ALAT       =     5.6452860611
 C/A-ratio  =     1.4365937127
  
  Lattice vectors:
  
 A1 = (   5.6452860611,   0.0000000000,   0.0000000000)
 A2 = (   0.0000000000,   5.6452860611,   0.0000000000)
 A3 = (   0.0000000000,   0.0000000000,   8.1099824619)


Analysis of symmetry for initial positions (statically):
=====================================================================
 Subroutine PRICEL returns:
 Original cell was already a primitive cell.
 

 Routine SETGRP: Setting up the symmetry group for a 
 simple tetragonal supercell.


 Subroutine GETGRP returns: Found 16 space group operations
 (whereof  2 operations were pure point group operations)
 out of a pool of 16 trial point group operations.


The static configuration has the point symmetry C_1h.
 The point group associated with its full space group is D_4h.


Analysis of symmetry for dynamics (positions and initial velocities):
=====================================================================
 Subroutine PRICEL returns:
 Original cell was already a primitive cell.
 

 Routine SETGRP: Setting up the symmetry group for a 
 simple tetragonal supercell.


 Subroutine GETGRP returns: Found 16 space group operations
 (whereof  2 operations were pure point group operations)
 out of a pool of 16 trial point group operations.


The dynamic configuration has the point symmetry C_1h.
 The point group associated with its full space group is D_4h.


 Subroutine INISYM returns: Found 16 space group operations
 (whereof  2 operations are pure point group operations),
 and found     1 'primitive' translations


----------------------------------------------------------------------------------------

                                     Primitive cell                                     

  volume of cell :     258.4591

  direct lattice vectors                    reciprocal lattice vectors
     5.645286061  0.000000000  0.000000000     0.177138942  0.000000000  0.000000000
     0.000000000  5.645286061  0.000000000     0.000000000  0.177138942  0.000000000
     0.000000000  0.000000000  8.109982462     0.000000000  0.000000000  0.123304829

  length of vectors
     5.645286061  5.645286061  8.109982462     0.177138942  0.177138942  0.123304829

  position of ions in fractional coordinates (direct lattice)
     0.000197156  0.000197156  0.000617192
     0.000197156  0.000197156  0.499382808
     0.000197156  0.499802844  0.000617192
     0.000197156  0.499802844  0.499382808
     0.499802844  0.000197156  0.000617192
     0.499802844  0.000197156  0.499382808
     0.499802844  0.499802844  0.000617192
     0.499802844  0.499802844  0.499382808
     0.250000000  0.250000000  0.250000000
     0.250000000  0.250000000  0.750000000
     0.250000000  0.750000000  0.250000000
     0.250000000  0.750000000  0.750000000
     0.750000000  0.250000000  0.250000000
     0.750000000  0.250000000  0.750000000
     0.750000000  0.750000000  0.250000000
     0.750000000  0.750000000  0.750000000

  ion indices of the primitive-cell ions
   primitive index   ion index
                 1           1
                 2           2
                 3           3
                 4           4
                 5           5
                 6           6
                 7           7
                 8           8
                 9           9
                10          10
                11          11
                12          12
                13          13
                14          14
                15          15
                16          16

----------------------------------------------------------------------------------------

 
 
 KPOINTS: K-Spacing Value to Generate K-Mesh: 0.03

Automatic generation of k-mesh.
 Grid dimensions read from file:
 generate k-points for:    6    6    4

 Generating k-lattice:

  Cartesian coordinates                     Fractional coordinates (reciprocal lattice)
     0.029523157  0.000000000  0.000000000     0.166666667  0.000000000  0.000000000
     0.000000000  0.029523157  0.000000000     0.000000000  0.166666667  0.000000000
     0.000000000  0.000000000  0.030826207     0.000000000  0.000000000  0.250000000

  Length of vectors
     0.029523157  0.029523157  0.030826207

  Shift w.r.t. Gamma in fractional coordinates (k-lattice)
     0.000000000  0.000000000  0.000000000

 
 Subroutine IBZKPT returns following result:
 ===========================================
 
 Found     30 irreducible k-points:
 
 Following reciprocal coordinates:
            Coordinates               Weight
  0.000000  0.000000  0.000000      1.000000
  0.166667  0.000000  0.000000      4.000000
  0.333333  0.000000  0.000000      4.000000
  0.500000  0.000000  0.000000      2.000000
  0.166667  0.166667  0.000000      4.000000
  0.333333  0.166667  0.000000      8.000000
  0.500000  0.166667  0.000000      4.000000
  0.333333  0.333333  0.000000      4.000000
  0.500000  0.333333  0.000000      4.000000
  0.500000  0.500000  0.000000      1.000000
  0.000000  0.000000  0.250000      2.000000
  0.166667  0.000000  0.250000      8.000000
  0.333333  0.000000  0.250000      8.000000
  0.500000  0.000000  0.250000      4.000000
  0.166667  0.166667  0.250000      8.000000
  0.333333  0.166667  0.250000     16.000000
  0.500000  0.166667  0.250000      8.000000
  0.333333  0.333333  0.250000      8.000000
  0.500000  0.333333  0.250000      8.000000
  0.500000  0.500000  0.250000      2.000000
  0.000000  0.000000  0.500000      1.000000
  0.166667  0.000000  0.500000      4.000000
  0.333333  0.000000  0.500000      4.000000
  0.500000  0.000000  0.500000      2.000000
  0.166667  0.166667  0.500000      4.000000
  0.333333  0.166667  0.500000      8.000000
  0.500000  0.166667  0.500000      4.000000
  0.333333  0.333333  0.500000      4.000000
  0.500000  0.333333  0.500000      4.000000
  0.500000  0.500000  0.500000      1.000000
 
 Following cartesian coordinates:
            Coordinates               Weight
  0.000000  0.000000  0.000000      1.000000
  0.029523  0.000000  0.000000      4.000000
  0.059046  0.000000  0.000000      4.000000
  0.088569  0.000000  0.000000      2.000000
  0.029523  0.029523  0.000000      4.000000
  0.059046  0.029523  0.000000      8.000000
  0.088569  0.029523  0.000000      4.000000
  0.059046  0.059046  0.000000      4.000000
  0.088569  0.059046  0.000000      4.000000
  0.088569  0.088569  0.000000      1.000000
  0.000000  0.000000  0.030826      2.000000
  0.029523  0.000000  0.030826      8.000000
  0.059046  0.000000  0.030826      8.000000
  0.088569  0.000000  0.030826      4.000000
  0.029523  0.029523  0.030826      8.000000
  0.059046  0.029523  0.030826     16.000000
  0.088569  0.029523  0.030826      8.000000
  0.059046  0.059046  0.030826      8.000000
  0.088569  0.059046  0.030826      8.000000
  0.088569  0.088569  0.030826      2.000000
  0.000000  0.000000  0.061652      1.000000
  0.029523  0.000000  0.061652      4.000000
  0.059046  0.000000  0.061652      4.000000
  0.088569  0.000000  0.061652      2.000000
  0.029523  0.029523  0.061652      4.000000
  0.059046  0.029523  0.061652      8.000000
  0.088569  0.029523  0.061652      4.000000
  0.059046  0.059046  0.061652      4.000000
  0.088569  0.059046  0.061652      4.000000
  0.088569  0.088569  0.061652      1.000000
 


--------------------------------------------------------------------------------------------------------




 Dimension of arrays:
   k-points           NKPTS =     30   k-points in BZ     NKDIM =     30   number of bands    NBANDS=    128
   number of dos      NEDOS =   1000   number of ions     NIONS =     16
   non local maximal  LDIM  =      6   non local SUM 2l+1 LMDIM =     18
   total plane-waves  NPLWV =  49152
   max r-space proj   IRMAX =      1   max aug-charges    IRDMAX=   7600
   dimension x,y,z NGX =    32 NGY =   32 NGZ =   48
   dimension x,y,z NGXF=    64 NGYF=   64 NGZF=   96
   support grid    NGXF=    64 NGYF=   64 NGZF=   96
   ions per type =               8   1   7
   NGX,Y,Z   is equivalent  to a cutoff of   9.42,  9.42,  9.84 a.u.
   NGXF,Y,Z  is equivalent  to a cutoff of  18.85, 18.85, 19.68 a.u.

 SYSTEM =  unknown system                          
 POSCAR =  Ti1 Al1                                 

 Startparameter for this run:
   NWRITE =      2    write-flag & timer
   PREC   = n         normal or accurate (medium, high low for compatibility)
   ISTART =      0    job   : 0-new  1-cont  2-samecut
   ICHARG =     11    charge: 1-file 2-atom 10-const
   ISPIN  =      1    spin polarized calculation?
   LNONCOLLINEAR =      F non collinear calculations
   LSORBIT =      F    spin-orbit coupling
   INIWAV =      1    electr: 0-lowe 1-rand  2-diag
   LASPH  =      F    aspherical Exc in radial PAW
 Electronic Relaxation 1
   ENCUT  =  520.0 eV  38.22 Ry    6.18 a.u.  10.50 10.50 15.08*2*pi/ulx,y,z
   ENINI  =  520.0     initial cutoff
   ENAUG  =  490.7 eV  augmentation charge cutoff
   NELM   =    500;   NELMIN=  2; NELMDL=  0     # of ELM steps 
   EDIFF  = 0.1E-05   stopping-criterion for ELM
   LREAL  =      F    real-space projection
   NLSPLINE    = F    spline interpolate recip. space projectors
   LCOMPAT=      F    compatible to vasp.4.4
   GGA_COMPAT  = T    GGA compatible to vasp.4.4-vasp.4.6
   LMAXPAW     = -100 max onsite density
   LMAXMIX     =    2 max onsite mixed and CHGCAR
   VOSKOWN=      0    Vosko Wilk Nusair interpolation
   ROPT   =    0.00000   0.00000   0.00000
 Ionic relaxation
   EDIFFG = -.1E-01   stopping-criterion for IOM
   NSW    =      0    number of steps for IOM
   NBLOCK =      1;   KBLOCK =      1    inner block; outer block 
   IBRION =     -1    ionic relax: 0-MD 1-quasi-New 2-CG
   NFREE  =      0    steps in history (QN), initial steepest desc. (CG)
   ISIF   =      3    stress and relaxation
   IWAVPR =     10    prediction:  0-non 1-charg 2-wave 3-comb
   ISYM   =      2    0-nonsym 1-usesym 2-fastsym
   LCORR  =      T    Harris-Foulkes like correction to forces

   POTIM  = 0.5000    time-step for ionic-motion
   TEIN   =    0.0    initial temperature
   TEBEG  =    0.0;   TEEND  =   0.0 temperature during run
   SMASS  =  -3.00    Nose mass-parameter (am)
   estimated Nose-frequenzy (Omega)   =  0.10E-29 period in steps = 0.13E+47 mass=  -0.728E-27a.u.
   SCALEE = 1.0000    scale energy and forces
   NPACO  =    256;   APACO  = 10.0  distance and # of slots for P.C.
   PSTRESS=    0.0 pullay stress

  Mass of Ions in am
   POMASS =  47.88 69.72 26.98
  Ionic Valenz
   ZVAL   =  12.00 13.00  3.00
  Atomic Wigner-Seitz radii
   RWIGS  =  -1.00 -1.00 -1.00
  virtual crystal weights 
   VCA    =   1.00  1.00  1.00
   NELECT =     130.0000    total number of electrons
   NUPDOWN=      -1.0000    fix difference up-down

 DOS related values:
   EMIN   =  10.00;   EMAX   =-10.00  energy-range for DOS
   EFERMI =   0.00;   METHOD = LEGACY      
   ISMEAR =     1;   SIGMA  =   0.10  broadening in eV -4-tet -1-fermi 0-gaus
   EFERMI_NEDOS =   21; number of points for ismear=-14 and -15

 Electronic relaxation 2 (details)
   IALGO  =     38    algorithm
   LDIAG  =      T    sub-space diagonalisation (order eigenvalues)
   LSUBROT=      F    optimize rotation matrix (better conditioning)
   TURBO    =      0    0=normal 1=particle mesh
   IRESTART =      0    0=no restart 2=restart with 2 vectors
   NREBOOT  =      0    no. of reboots
   NMIN     =      0    reboot dimension
   EREF     =   0.00    reference energy to select bands
   IMIX   =      4    mixing-type and parameters
     AMIX     =   0.40;   BMIX     =  1.00
     AMIX_MAG =   1.60;   BMIX_MAG =  1.00
     AMIN     =   0.10
     WC   =   100.;   INIMIX=   1;  MIXPRE=   1;  MAXMIX= -45

 Intra band minimization:
   WEIMIN = 0.0000     energy-eigenvalue tresh-hold
   EBREAK =  0.20E-08  absolut break condition
   DEPER  =   0.30     relativ break condition  

   TIME   =   0.40     timestep for ELM

  volume/ion in A,a.u.               =      16.15       109.01
  Fermi-wavevector in a.u.,A,eV,Ry     =   1.301943  2.460316 23.062635  1.695056
  Thomas-Fermi vector in A             =   2.433044
 
 Write flags
   LWAVE        =      T    write WAVECAR
   LDOWNSAMPLE  =      F    k-point downsampling of WAVECAR
   LCHARG       =      T    write CHGCAR
   LVTOT        =      F    write LOCPOT, total local potential
   LVHAR        =      F    write LOCPOT, Hartree potential only
   WRT_POTENTIAL= false  ! write potential to hdf5 file
   LELF         =      F    write electronic localiz. function (ELF)
   LORBIT       =     10    0 simple, 1 ext, 2 COOP (PROOUT), +10 PAW based schemes


 Python interface
   PLUGINS active      =      F    recompile with -DPLUGINS to activate
 
 Dipole corrections
   LMONO      =      F    monopole corrections only (constant potential shift)
   LDIPOL     =      F    correct potential (dipole corrections)
   IDIPOL     =      0    1-x, 2-y, 3-z, 4-all directions 
   EPSILON    =  1.0000000 bulk dielectric constant
   LVACPOTAV  =      F  vacuum potentials using an averaging scheme for the charge density
   VACPOTFLAT =  0.1000000 required flatness to determine vacuum potential
 
Coulomb truncation method
  LTRUNCATE          =      F  Coulomb kernel truncation to be used
  IDIMENSIONALITY    =      3  Dimensionality of cutoff (0 molecules / 2 surfaces)
  ISURFACE           =     -1  Direction of surface normal
  LCOARSEN           =      F  Coarsen the charge grid before padding, preferred

 
 Exchange correlation treatment:
   GGA     = PE    functional components
   XC_C    = 1    coefficients multiplying the functional components
   LIBXC   =     F    Libxc                    
   VOSKOWN =     0    Vosko Wilk Nusair interpolation
   LHFCALC =     F    Hartree Fock is set to
   LHFONE  =     F    Hartree Fock one center treatment
   AEXX    =    0.0000 exact exchange contribution

 Parameters of functionals:
   PE:
     No parameter
 
 Van der Waals corrections
   IVDW    =     0    specifies the selected vdW correction

 Linear response parameters
   LEPSILON=     F    determine dielectric tensor
   LRPA    =     F    only Hartree local field effects (RPA)
   LNABLA  =     F    use nabla operator in PAW spheres
   LVEL    =     F    velocity operator in full k-point grid
   CSHIFT  =0.1000    complex shift for real part using Kramers Kronig
   OMEGAMAX=  -1.0    maximum frequency
   DEG_THRESHOLD= 0.2000000E-02 threshold for treating states as degnerate
   RTIME   =   -0.100 relaxation time in fs
  (WPLASMAI=    0.000 imaginary part of plasma frequency in eV, 0.658/RTIME)
   DFIELD  = 0.0000000 0.0000000 0.0000000 field for delta impulse in time
 
  Optional k-point grid parameters
   LKPOINTS_OPT  =     F    use optional k-point grid
   KPOINTS_OPT_MODE=     1    mode for optional k-point grid
 
 Orbital magnetization related:
   ORBITALMAG=     F  switch on orbital magnetization
   LCHIMAG   =     F  perturbation theory with respect to B field
   DQ        =  0.001000  dq finite difference perturbation B field
   LLRAUG    =     F  two centre corrections for induced B field
   LBONE     =     F  B-component reconstruction in AE one-centre
   LVGVCALC  =     T  calculate vGv susceptibility
   LVGVAPPL  =     F  apply vGv susceptibility instead of pGv for G=0

 Random number generation:
   RANDOM_GENERATOR = DEFAULT
   PCG_SEED         = not used


--------------------------------------------------------------------------------------------------------


 Static calculation
 charge density and potential remain constant during run
 non-spin polarized calculation
 Variant of blocked Davidson
 Davidson routine will perform the subspace rotation
 perform sub-space diagonalisation
    after iterative eigenvector-optimisation
 no mixing
 using additional bands           63
 reciprocal scheme for non local part
 use partial core corrections
 calculate Harris-corrections to forces 
   (improved forces if not selfconsistent)
 use gradient corrections 
 WARNING: stress and forces are not correct
  (second derivative of E(xc) not defined)
 use of overlap-Matrix (Vanderbilt PP)
 Methfessel and Paxton  Order N= 1 SIGMA  =   0.10


--------------------------------------------------------------------------------------------------------


  energy-cutoff  :      520.00
  volume of cell :      258.46
      direct lattice vectors                 reciprocal lattice vectors
     5.645286061  0.000000000  0.000000000     0.177138942  0.000000000  0.000000000
     0.000000000  5.645286061  0.000000000     0.000000000  0.177138942  0.000000000
     0.000000000  0.000000000  8.109982462     0.000000000  0.000000000  0.123304829

  length of vectors
     5.645286061  5.645286061  8.109982462     0.177138942  0.177138942  0.123304829


 
 k-points in units of 2pi/SCALE and weight: K-Spacing Value to Generate K-Mesh: 0.03
   0.00000000  0.00000000  0.00000000       0.007
   0.02952316  0.00000000  0.00000000       0.028
   0.05904631  0.00000000  0.00000000       0.028
   0.08856947  0.00000000  0.00000000       0.014
   0.02952316  0.02952316  0.00000000       0.028
   0.05904631  0.02952316  0.00000000       0.056
   0.08856947  0.02952316  0.00000000       0.028
   0.05904631  0.05904631  0.00000000       0.028
   0.08856947  0.05904631  0.00000000       0.028
   0.08856947  0.08856947  0.00000000       0.007
   0.00000000  0.00000000  0.03082621       0.014
   0.02952316  0.00000000  0.03082621       0.056
   0.05904631  0.00000000  0.03082621       0.056
   0.08856947  0.00000000  0.03082621       0.028
   0.02952316  0.02952316  0.03082621       0.056
   0.05904631  0.02952316  0.03082621       0.111
   0.08856947  0.02952316  0.03082621       0.056
   0.05904631  0.05904631  0.03082621       0.056
   0.08856947  0.05904631  0.03082621       0.056
   0.08856947  0.08856947  0.03082621       0.014
   0.00000000  0.00000000  0.06165241       0.007
   0.02952316  0.00000000  0.06165241       0.028
   0.05904631  0.00000000  0.06165241       0.028
   0.08856947  0.00000000  0.06165241       0.014
   0.02952316  0.02952316  0.06165241       0.028
   0.05904631  0.02952316  0.06165241       0.056
   0.08856947  0.02952316  0.06165241       0.028
   0.05904631  0.05904631  0.06165241       0.028
   0.08856947  0.05904631  0.06165241       0.028
   0.08856947  0.08856947  0.06165241       0.007
 
 k-points in reciprocal lattice and weights: K-Spacing Value to Generate K-Mesh: 0.03
   0.00000000  0.00000000  0.00000000       0.007
   0.16666667  0.00000000  0.00000000       0.028
   0.33333333  0.00000000  0.00000000       0.028
   0.50000000  0.00000000  0.00000000       0.014
   0.16666667  0.16666667  0.00000000       0.028
   0.33333333  0.16666667  0.00000000       0.056
   0.50000000  0.16666667  0.00000000       0.028
   0.33333333  0.33333333  0.00000000       0.028
   0.50000000  0.33333333  0.00000000       0.028
   0.50000000  0.50000000  0.00000000       0.007
   0.00000000  0.00000000  0.25000000       0.014
   0.16666667  0.00000000  0.25000000       0.056
   0.33333333  0.00000000  0.25000000       0.056
   0.50000000  0.00000000  0.25000000       0.028
   0.16666667  0.16666667  0.25000000       0.056
   0.33333333  0.16666667  0.25000000       0.111
   0.50000000  0.16666667  0.25000000       0.056
   0.33333333  0.33333333  0.25000000       0.056
   0.50000000  0.33333333  0.25000000       0.056
   0.50000000  0.50000000  0.25000000       0.014
   0.00000000  0.00000000  0.50000000       0.007
   0.16666667  0.00000000  0.50000000       0.028
   0.33333333  0.00000000  0.50000000       0.028
   0.50000000  0.00000000  0.50000000       0.014
   0.16666667  0.16666667  0.50000000       0.028
   0.33333333  0.16666667  0.50000000       0.056
   0.50000000  0.16666667  0.50000000       0.028
   0.33333333  0.33333333  0.50000000       0.028
   0.50000000  0.33333333  0.50000000       0.028
   0.50000000  0.50000000  0.50000000       0.007
 
 position of ions in fractional coordinates (direct lattice) 
   0.00019716  0.00019716  0.00061719
   0.00019716  0.00019716  0.49938281
   0.00019716  0.49980284  0.00061719
   0.00019716  0.49980284  0.49938281
   0.49980284  0.00019716  0.00061719
   0.49980284  0.00019716  0.49938281
   0.49980284  0.49980284  0.00061719
   0.49980284  0.49980284  0.49938281
   0.25000000  0.25000000  0.25000000
   0.25000000  0.25000000  0.75000000
   0.25000000  0.75000000  0.25000000
   0.25000000  0.75000000  0.75000000
   0.75000000  0.25000000  0.25000000
   0.75000000  0.25000000  0.75000000
   0.75000000  0.75000000  0.25000000
   0.75000000  0.75000000  0.75000000
 
 position of ions in cartesian coordinates  (Angst):
   0.00111300  0.00111300  0.00500542
   0.00111300  0.00111300  4.04998581
   0.00111300  2.82153003  0.00500542
   0.00111300  2.82153003  4.04998581
   2.82153003  0.00111300  0.00500542
   2.82153003  0.00111300  4.04998581
   2.82153003  2.82153003  0.00500542
   2.82153003  2.82153003  4.04998581
   1.41132152  1.41132152  2.02749562
   1.41132152  1.41132152  6.08248685
   1.41132152  4.23396455  2.02749562
   1.41132152  4.23396455  6.08248685
   4.23396455  1.41132152  2.02749562
   4.23396455  1.41132152  6.08248685
   4.23396455  4.23396455  2.02749562
   4.23396455  4.23396455  6.08248685
 


--------------------------------------------------------------------------------------------------------


 k-point     1 :   0.0000 0.0000 0.0000  plane waves:    6963
 k-point     2 :   0.1667 0.0000 0.0000  plane waves:    6973
 k-point     3 :   0.3333 0.0000 0.0000  plane waves:    6969
 k-point     4 :   0.5000 0.0000 0.0000  plane waves:    6948
 k-point     5 :   0.1667 0.1667 0.0000  plane waves:    6991
 k-point     6 :   0.3333 0.1667 0.0000  plane waves:    6958
 k-point     7 :   0.5000 0.1667 0.0000  plane waves:    6942
 k-point     8 :   0.3333 0.3333 0.0000  plane waves:    6937
 k-point     9 :   0.5000 0.3333 0.0000  plane waves:    6934
 k-point    10 :   0.5000 0.5000 0.0000  plane waves:    6892
 k-point    11 :   0.0000 0.0000 0.2500  plane waves:    6974
 k-point    12 :   0.1667 0.0000 0.2500  plane waves:    6984
 k-point    13 :   0.3333 0.0000 0.2500  plane waves:    6948
 k-point    14 :   0.5000 0.0000 0.2500  plane waves:    6952
 k-point    15 :   0.1667 0.1667 0.2500  plane waves:    6973
 k-point    16 :   0.3333 0.1667 0.2500  plane waves:    6956
 k-point    17 :   0.5000 0.1667 0.2500  plane waves:    6960
 k-point    18 :   0.3333 0.3333 0.2500  plane waves:    6968
 k-point    19 :   0.5000 0.3333 0.2500  plane waves:    6940
 k-point    20 :   0.5000 0.5000 0.2500  plane waves:    6936
 k-point    21 :   0.0000 0.0000 0.5000  plane waves:    7014
 k-point    22 :   0.1667 0.0000 0.5000  plane waves:    6960
 k-point    23 :   0.3333 0.0000 0.5000  plane waves:    6966
 k-point    24 :   0.5000 0.0000 0.5000  plane waves:    6968
 k-point    25 :   0.1667 0.1667 0.5000  plane waves:    6964
 k-point    26 :   0.3333 0.1667 0.5000  plane waves:    6950
 k-point    27 :   0.5000 0.1667 0.5000  plane waves:    6952
 k-point    28 :   0.3333 0.3333 0.5000  plane waves:    6974
 k-point    29 :   0.5000 0.3333 0.5000  plane waves:    6968
 k-point    30 :   0.5000 0.5000 0.5000  plane waves:    6912

 maximum and minimum number of plane-waves per node :      7014     6892

 maximum number of plane-waves:      7014
 maximum index in each direction: 
   IXMAX=   10   IYMAX=   10   IZMAX=   15
   IXMIN=  -10   IYMIN=  -10   IZMIN=  -15


 serial   3D FFT for wavefunctions
 parallel 3D FFT for charge:
    minimum data exchange during FFTs selected (reduces bandwidth)


 total amount of memory used by VASP MPI-rank0   133107. kBytes
=======================================================================

   base                                    :      30000. kBytes
   nonl-proj                               :      93040. kBytes
   fftplans                                :        434. kBytes
   grid                                    :       2381. kBytes
   one-center                              :        248. kBytes
   wavefun                                 :       7004. kBytes
 
     INWAV:  cpu time      0.0000: real time      0.0000
 initial charge density was supplied:
 number of electron     129.9999750 magnetization 
 keeping initial charge density in first step


--------------------------------------------------------------------------------------------------------


 Maximum index for augmentation-charges          454 (set IRDMAX)


--------------------------------------------------------------------------------------------------------


 First call to EWALD:  gamma=   0.278
 Maximum number of real-space cells   3x   3x   2
 Maximum number of reciprocal cells   3x   3x   3

    FEWALD:  cpu time      0.0011: real time      0.0012


--------------------------------------- Ionic step        1  -------------------------------------------




--------------------------------------- Iteration      1(   1)  ---------------------------------------


    POTLOK:  cpu time      0.0082: real time      0.0082
    SETDIJ:  cpu time      0.0025: real time      0.0025
     EDDAV:  cpu time      3.7843: real time      3.7846
       DOS:  cpu time      0.0007: real time      0.0007
    --------------------------------------------
      LOOP:  cpu time      3.7958: real time      3.7960

 eigenvalue-minimisations  :  7680
 total energy-change (2. order) : 0.1001957E+04  (-0.6482552E+04)
 number of electron     129.9999750 magnetization 
 augmentation part      129.9999750 magnetization 

 Free energy of the ion-electron system (eV)
  ---------------------------------------------------
  alpha Z        PSCENC =       381.68433306
  Ewald energy   TEWEN  =     -9869.40651717
  -Hartree energ DENC   =     -4556.37201821
  -exchange      EXHF   =         0.00000000
  -V(xc)+E(xc)   XCENC  =       349.49089358
  PAW double counting   =     14886.21537697   -14813.91545696
  entropy T*S    EENTRO =        -0.00192735
  eigenvalues    EBANDS =      -604.01436852
  atomic energy  EATOM  =     15228.27630495
  Solvation  Ediel_sol  =         0.00000000
  ---------------------------------------------------
  free energy    TOTEN  =      1001.95662034 eV

  energy without entropy =     1001.95854769  energy(sigma->0) =     1001.95726279


--------------------------------------------------------------------------------------------------------




--------------------------------------- Iteration      1(   2)  ---------------------------------------


     EDDAV:  cpu time      3.7816: real time      3.7816
       DOS:  cpu time      0.0006: real time      0.0006
    --------------------------------------------
      LOOP:  cpu time      3.7821: real time      3.7822

 eigenvalue-minimisations  :  7744
 total energy-change (2. order) :-0.1014029E+04  (-0.9702992E+03)
 number of electron     129.9999750 magnetization 
 augmentation part      129.9999750 magnetization 

 Free energy of the ion-electron system (eV)
  ---------------------------------------------------
  alpha Z        PSCENC =       381.68433306
  Ewald energy   TEWEN  =     -9869.40651717
  -Hartree energ DENC   =     -4556.37201821
  -exchange      EXHF   =         0.00000000
  -V(xc)+E(xc)   XCENC  =       349.49089358
  PAW double counting   =     14886.21537697   -14813.91545696
  entropy T*S    EENTRO =         0.00417495
  eigenvalues    EBANDS =     -1618.04980612
  atomic energy  EATOM  =     15228.27630495
  Solvation  Ediel_sol  =         0.00000000
  ---------------------------------------------------
  free energy    TOTEN  =       -12.07271496 eV

  energy without entropy =      -12.07688991  energy(sigma->0) =      -12.07410661


--------------------------------------------------------------------------------------------------------




--------------------------------------- Iteration      1(   3)  ---------------------------------------


     EDDAV:  cpu time     11.4655: real time     11.4660
       DOS:  cpu time      0.0006: real time      0.0006
    --------------------------------------------
      LOOP:  cpu time     11.4661: real time     11.4666

 eigenvalue-minimisations  : 15360
 total energy-change (2. order) :-0.8376835E+02  (-0.8193593E+02)
 number of electron     129.9999750 magnetization 
 augmentation part      129.9999750 magnetization 

 Free energy of the ion-electron system (eV)
  ---------------------------------------------------
  alpha Z        PSCENC =       381.68433306
  Ewald energy   TEWEN  =     -9869.40651717
  -Hartree energ DENC   =     -4556.37201821
  -exchange      EXHF   =         0.00000000
  -V(xc)+E(xc)   XCENC  =       349.49089358
  PAW double counting   =     14886.21537697   -14813.91545696
  entropy T*S    EENTRO =         0.00351057
  eigenvalues    EBANDS =     -1701.81749459
  atomic energy  EATOM  =     15228.27630495
  Solvation  Ediel_sol  =         0.00000000
  ---------------------------------------------------
  free energy    TOTEN  =       -95.84106780 eV

  energy without entropy =      -95.84457837  energy(sigma->0) =      -95.84223799


--------------------------------------------------------------------------------------------------------




--------------------------------------- Iteration      1(   4)  ---------------------------------------


     EDDAV:  cpu time      3.7452: real time      3.7455
       DOS:  cpu time      0.0006: real time      0.0006
    --------------------------------------------
      LOOP:  cpu time      3.7459: real time      3.7462

 eigenvalue-minimisations  :  7680
 total energy-change (2. order) :-0.2559472E+01  (-0.2559094E+01)
 number of electron     129.9999750 magnetization 
 augmentation part      129.9999750 magnetization 

 Free energy of the ion-electron system (eV)
  ---------------------------------------------------
  alpha Z        PSCENC =       381.68433306
  Ewald energy   TEWEN  =     -9869.40651717
  -Hartree energ DENC   =     -4556.37201821
  -exchange      EXHF   =         0.00000000
  -V(xc)+E(xc)   XCENC  =       349.49089358
  PAW double counting   =     14886.21537697   -14813.91545696
  entropy T*S    EENTRO =         0.00386126
  eigenvalues    EBANDS =     -1704.37731712
  atomic energy  EATOM  =     15228.27630495
  Solvation  Ediel_sol  =         0.00000000
  ---------------------------------------------------
  free energy    TOTEN  =       -98.40053965 eV

  energy without entropy =      -98.40440091  energy(sigma->0) =      -98.40182674


--------------------------------------------------------------------------------------------------------




--------------------------------------- Iteration      1(   5)  ---------------------------------------


     EDDAV:  cpu time      8.1454: real time      8.1458
       DOS:  cpu time      0.0006: real time      0.0006
    --------------------------------------------
      LOOP:  cpu time      8.1461: real time      8.1464

 eigenvalue-minimisations  : 12224
 total energy-change (2. order) :-0.5934107E-01  (-0.5934048E-01)
 number of electron     129.9999750 magnetization 
 augmentation part      129.9999750 magnetization 

 Free energy of the ion-electron system (eV)
  ---------------------------------------------------
  alpha Z        PSCENC =       381.68433306
  Ewald energy   TEWEN  =     -9869.40651717
  -Hartree energ DENC   =     -4556.37201821
  -exchange      EXHF   =         0.00000000
  -V(xc)+E(xc)   XCENC  =       349.49089358
  PAW double counting   =     14886.21537697   -14813.91545696
  entropy T*S    EENTRO =         0.00386933
  eigenvalues    EBANDS =     -1704.43666626
  atomic energy  EATOM  =     15228.27630495
  Solvation  Ediel_sol  =         0.00000000
  ---------------------------------------------------
  free energy    TOTEN  =       -98.45988072 eV

  energy without entropy =      -98.46375005  energy(sigma->0) =      -98.46117049


--------------------------------------------------------------------------------------------------------




--------------------------------------- Iteration      1(   6)  ---------------------------------------


     EDDAV:  cpu time      5.3714: real time      5.3719
       DOS:  cpu time      0.0009: real time      0.0009
    --------------------------------------------
      LOOP:  cpu time      5.3723: real time      5.3728

 eigenvalue-minimisations  :  9600
 total energy-change (2. order) :-0.1151688E-02  (-0.1151687E-02)
 number of electron     129.9999750 magnetization 
 augmentation part      129.9999750 magnetization 

 Free energy of the ion-electron system (eV)
  ---------------------------------------------------
  alpha Z        PSCENC =       381.68433306
  Ewald energy   TEWEN  =     -9869.40651717
  -Hartree energ DENC   =     -4556.37201821
  -exchange      EXHF   =         0.00000000
  -V(xc)+E(xc)   XCENC  =       349.49089358
  PAW double counting   =     14886.21537697   -14813.91545696
  entropy T*S    EENTRO =         0.00386926
  eigenvalues    EBANDS =     -1704.43781788
  atomic energy  EATOM  =     15228.27630495
  Solvation  Ediel_sol  =         0.00000000
  ---------------------------------------------------
  free energy    TOTEN  =       -98.46103240 eV

  energy without entropy =      -98.46490167  energy(sigma->0) =      -98.46232216


--------------------------------------------------------------------------------------------------------




--------------------------------------- Iteration      1(   7)  ---------------------------------------


     EDDAV:  cpu time      8.7479: real time      8.7489
       DOS:  cpu time      0.0006: real time      0.0006
    --------------------------------------------
      LOOP:  cpu time      8.7485: real time      8.7496

 eigenvalue-minimisations  : 12992
 total energy-change (2. order) :-0.5304730E-04  (-0.5304758E-04)
 number of electron     129.9999750 magnetization 
 augmentation part      129.9999750 magnetization 

 Free energy of the ion-electron system (eV)
  ---------------------------------------------------
  alpha Z        PSCENC =       381.68433306
  Ewald energy   TEWEN  =     -9869.40651717
  -Hartree energ DENC   =     -4556.37201821
  -exchange      EXHF   =         0.00000000
  -V(xc)+E(xc)   XCENC  =       349.49089358
  PAW double counting   =     14886.21537697   -14813.91545696
  entropy T*S    EENTRO =         0.00386926
  eigenvalues    EBANDS =     -1704.43787092
  atomic energy  EATOM  =     15228.27630495
  Solvation  Ediel_sol  =         0.00000000
  ---------------------------------------------------
  free energy    TOTEN  =       -98.46108545 eV

  energy without entropy =      -98.46495471  energy(sigma->0) =      -98.46237520


--------------------------------------------------------------------------------------------------------




--------------------------------------- Iteration      1(   8)  ---------------------------------------


     EDDAV:  cpu time      4.8250: real time      4.8252
       DOS:  cpu time      0.0013: real time      0.0013
    --------------------------------------------
      LOOP:  cpu time      4.8263: real time      4.8265

 eigenvalue-minimisations  :  8768
 total energy-change (2. order) :-0.7526287E-06  (-0.7522898E-06)
 number of electron     129.9999750 magnetization 
 augmentation part      129.9999750 magnetization 

 Free energy of the ion-electron system (eV)
  ---------------------------------------------------
  alpha Z        PSCENC =       381.68433306
  Ewald energy   TEWEN  =     -9869.40651717
  -Hartree energ DENC   =     -4556.37201821
  -exchange      EXHF   =         0.00000000
  -V(xc)+E(xc)   XCENC  =       349.49089358
  PAW double counting   =     14886.21537697   -14813.91545696
  entropy T*S    EENTRO =         0.00386926
  eigenvalues    EBANDS =     -1704.43787167
  atomic energy  EATOM  =     15228.27630495
  Solvation  Ediel_sol  =         0.00000000
  ---------------------------------------------------
  free energy    TOTEN  =       -98.46108620 eV

  energy without entropy =      -98.46495546  energy(sigma->0) =      -98.46237596


--------------------------------------------------------------------------------------------------------




 average (electrostatic) potential at core
  the test charge radii are     1.0397  1.0314  1.0406
  (the norm of the test charge is              1.0000)
       1 -72.3270       2 -72.3270       3 -72.3270       4 -72.3270       5 -72.3270
       6 -72.3270       7 -72.3270       8 -72.3270       9 -61.6140      10 -71.3204
      11 -71.4148      12 -71.3237      13 -71.4148      14 -71.3237      15 -71.3097
      16 -71.3375
 
 
 
 E-fermi :   8.2926     XC(G=0): -11.1518     alpha+bet :-16.1915

 val. band max:        8.2906027415   @ k =   0.5000   0.5000   0.5000
 cond. band min:       8.3134782216   @ k =   0.5000   0.3333   0.2500
 fundamental gap:      0.0228754801
 Fermi energy:         8.2925657058

 k-point     1 :       0.0000    0.0000    0.0000
  band No.  band energies     occupation 
      1     -48.3377      2.00000
      2     -48.3371      2.00000
      3     -48.2796      2.00000
      4     -48.2796      2.00000
      5     -48.2791      2.00000
      6     -48.2791      2.00000
      7     -48.2236      2.00000
      8     -48.2232      2.00000
      9     -24.7705      2.00000
     10     -24.7668      2.00000
     11     -24.7582      2.00000
     12     -24.7555      2.00000
     13     -24.7533      2.00000
     14     -24.7363      2.00000
     15     -24.6980      2.00000
     16     -24.6980      2.00000
     17     -24.6953      2.00000
     18     -24.6953      2.00000
     19     -24.6901      2.00000
     20     -24.6901      2.00000
     21     -24.6787      2.00000
     22     -24.6787      2.00000
     23     -24.6370      2.00000
     24     -24.6261      2.00000
     25     -24.2878      2.00000
     26     -24.2878      2.00000
     27     -24.2873      2.00000
     28     -24.2873      2.00000
     29     -24.2514      2.00000
     30     -24.2508      2.00000
     31     -24.2406      2.00000
     32     -24.2399      2.00000
     33      -6.1328      2.00000
     34      -6.1133      2.00000
     35      -6.0903      2.00000
     36      -6.0903      2.00000
     37      -6.0632      2.00000
     38      -0.9051      2.00000
     39       0.5714      2.00000
     40       2.9183      2.00000
     41       3.0201      2.00000
     42       3.4287      2.00000
     43       3.6082      2.00000
     44       3.7449      2.00000
     45       3.7449      2.00000
     46       3.7833      2.00000
     47       5.0722      2.00000
     48       5.3469      2.00000
     49       5.3469      2.00000
     50       5.7756      2.00000
     51       6.0063      2.00000
     52       6.0063      2.00000
     53       6.4768      2.00000
     54       6.5804      2.00000
     55       6.6019      2.00000
     56       7.1165      2.00000
     57       7.1399      2.00000
     58       7.1399      2.00000
     59       7.1468      2.00000
     60       7.4581      2.00000
     61       7.6120      2.00000
     62       7.8006      2.00000
     63       7.8006      2.00000
     64       7.9552      2.00002
     65       7.9811      2.00010
     66       8.0385      2.00193
     67       8.0385      2.00193
     68       8.1432      2.05590
     69       8.1432      2.05590
     70       8.9467     -0.00000
     71       9.7093     -0.00000
     72       9.7093     -0.00000
     73       9.7813     -0.00000
     74      10.0419     -0.00000
     75      10.0419     -0.00000
     76      10.0838     -0.00000
     77      10.0838     -0.00000
     78      10.1095     -0.00000
     79      10.1095     -0.00000
     80      10.4274      0.00000
     81      10.4624      0.00000
     82      10.4624      0.00000
     83      10.5756      0.00000
     84      10.5950      0.00000
     85      10.8018      0.00000
     86      10.8032      0.00000
     87      11.2225      0.00000
     88      11.6112      0.00000
     89      11.6221      0.00000
     90      11.9768      0.00000
     91      12.1414      0.00000
     92      12.4743      0.00000
     93      12.4766      0.00000
     94      12.5904      0.00000
     95      12.5904      0.00000
     96      12.6121      0.00000
     97      12.6121      0.00000
     98      13.0867      0.00000
     99      13.3200      0.00000
    100      13.3200      0.00000
    101      13.6267      0.00000
    102      13.6267      0.00000
    103      13.7079      0.00000
    104      13.7813      0.00000
    105      14.0441      0.00000
    106      14.0441      0.00000
    107      14.2648      0.00000
    108      14.5454      0.00000
    109      14.7444      0.00000
    110      16.2541      0.00000
    111      16.3119      0.00000
    112      16.4799      0.00000
    113      16.5854      0.00000
    114      16.6257      0.00000
    115      16.6257      0.00000
    116      17.8253      0.00000
    117      17.9512      0.00000
    118      18.6678      0.00000
    119      18.6678      0.00000
    120      19.0169      0.00000
    121      19.0169      0.00000
    122      19.4048      0.00000
    123      19.4048      0.00000
    124      19.9649      0.00000
    125      20.5197      0.00000
    126      20.5198      0.00000
    127      20.6870      0.00000
    128      20.6871      0.00000

 k-point     2 :       0.1667    0.0000    0.0000
  band No.  band energies     occupation 
      1     -48.3339      2.00000
      2     -48.3333      2.00000
      3     -48.2835      2.00000
      4     -48.2830      2.00000
      5     -48.2759      2.00000
      6     -48.2754      2.00000
      7     -48.2274      2.00000
      8     -48.2269      2.00000
      9     -24.7617      2.00000
     10     -24.7580      2.00000
     11     -24.7496      2.00000
     12     -24.7340      2.00000
     13     -24.7311      2.00000
     14     -24.7274      2.00000
     15     -24.7025      2.00000
     16     -24.6997      2.00000
     17     -24.6944      2.00000
     18     -24.6891      2.00000
     19     -24.6826      2.00000
     20     -24.6770      2.00000
     21     -24.6659      2.00000
     22     -24.6640      2.00000
     23     -24.6408      2.00000
     24     -24.6297      2.00000
     25     -24.3206      2.00000
     26     -24.3199      2.00000
     27     -24.2850      2.00000
     28     -24.2845      2.00000
     29     -24.2779      2.00000
     30     -24.2772      2.00000
     31     -24.2478      2.00000
     32     -24.2471      2.00000
     33      -6.1321      2.00000
     34      -6.1134      2.00000
     35      -6.0905      2.00000
     36      -6.0903      2.00000
     37      -6.0628      2.00000
     38      -0.7706      2.00000
     39       0.6673      2.00000
     40       2.3035      2.00000
     41       2.8250      2.00000
     42       3.1737      2.00000
     43       3.3952      2.00000
     44       3.7421      2.00000
     45       3.8817      2.00000
     46       4.9347      2.00000
     47       5.1175      2.00000
     48       5.3964      2.00000
     49       5.6608      2.00000
     50       5.8511      2.00000
     51       5.8846      2.00000
     52       5.9740      2.00000
     53       6.1855      2.00000
     54       6.5870      2.00000
     55       6.6572      2.00000
     56       6.6791      2.00000
     57       6.7869      2.00000
     58       7.0172      2.00000
     59       7.3493      2.00000
     60       7.5090      2.00000
     61       7.6863      2.00000
     62       7.8210      2.00000
     63       7.8449      2.00000
     64       7.8850      2.00000
     65       7.9395      2.00001
     66       8.0057      2.00038
     67       8.1900      2.05515
     68       8.2559      1.57668
     69       8.9017     -0.00000
     70       9.0002     -0.00000
     71       9.6929     -0.00000
     72       9.7534     -0.00000
     73       9.7758     -0.00000
     74       9.8126     -0.00000
     75      10.1147     -0.00000
     76      10.1280     -0.00000
     77      10.1931     -0.00000
     78      10.2438     -0.00000
     79      10.2543     -0.00000
     80      10.3701      0.00000
     81      10.4466      0.00000
     82      10.4940      0.00000
     83      10.5292      0.00000
     84      10.5524      0.00000
     85      10.6204      0.00000
     86      10.7787      0.00000
     87      10.9449      0.00000
     88      11.4007      0.00000
     89      11.4757      0.00000
     90      11.4996      0.00000
     91      12.0255      0.00000
     92      12.2250      0.00000
     93      12.2682      0.00000
     94      12.3238      0.00000
     95      12.3275      0.00000
     96      12.5865      0.00000
     97      13.2030      0.00000
     98      13.3280      0.00000
     99      13.3778      0.00000
    100      13.4385      0.00000
    101      13.9274      0.00000
    102      13.9426      0.00000
    103      13.9929      0.00000
    104      14.0986      0.00000
    105      14.1792      0.00000
    106      14.2423      0.00000
    107      14.4705      0.00000
    108      14.5177      0.00000
    109      14.8554      0.00000
    110      15.0965      0.00000
    111      15.9039      0.00000
    112      16.2034      0.00000
    113      16.8069      0.00000
    114      16.9061      0.00000
    115      17.0252      0.00000
    116      17.8956      0.00000
    117      18.1527      0.00000
    118      18.6091      0.00000
    119      18.8240      0.00000
    120      18.8881      0.00000
    121      19.0677      0.00000
    122      19.2534      0.00000
    123      19.2744      0.00000
    124      19.4757      0.00000
    125      19.5823      0.00000
    126      19.9197      0.00000
    127      20.0593      0.00000
    128      20.0747      0.00000

 k-point     3 :       0.3333    0.0000    0.0000
  band No.  band energies     occupation 
      1     -48.3233      2.00000
      2     -48.3227      2.00000
      3     -48.2942      2.00000
      4     -48.2937      2.00000
      5     -48.2657      2.00000
      6     -48.2652      2.00000
      7     -48.2377      2.00000
      8     -48.2372      2.00000
      9     -24.7485      2.00000
     10     -24.7451      2.00000
     11     -24.7380      2.00000
     12     -24.7223      2.00000
     13     -24.7148      2.00000
     14     -24.7119      2.00000
     15     -24.7061      2.00000
     16     -24.6933      2.00000
     17     -24.6787      2.00000
     18     -24.6664      2.00000
     19     -24.6509      2.00000
     20     -24.6468      2.00000
     21     -24.6445      2.00000
     22     -24.6395      2.00000
     23     -24.5855      2.00000
     24     -24.5843      2.00000
     25     -24.4093      2.00000
     26     -24.4081      2.00000
     27     -24.3609      2.00000
     28     -24.3601      2.00000
     29     -24.2774      2.00000
     30     -24.2768      2.00000
     31     -24.2562      2.00000
     32     -24.2556      2.00000
     33      -6.1308      2.00000
     34      -6.1137      2.00000
     35      -6.0907      2.00000
     36      -6.0902      2.00000
     37      -6.0621      2.00000
     38      -0.3759      2.00000
     39       0.9080      2.00000
     40       1.2872      2.00000
     41       2.1368      2.00000
     42       3.6195      2.00000
     43       3.6533      2.00000
     44       3.9730      2.00000
     45       4.2822      2.00000
     46       4.6319      2.00000
     47       4.9766      2.00000
     48       5.2006      2.00000
     49       5.5265      2.00000
     50       5.7757      2.00000
     51       5.8784      2.00000
     52       6.0660      2.00000
     53       6.4437      2.00000
     54       6.7278      2.00000
     55       6.8670      2.00000
     56       6.8710      2.00000
     57       6.9046      2.00000
     58       6.9369      2.00000
     59       7.5345      2.00000
     60       7.5950      2.00000
     61       7.6528      2.00000
     62       7.6789      2.00000
     63       7.8760      2.00000
     64       7.9568      2.00002
     65       8.1287      2.04262
     66       8.1579      2.06705
     67       8.5857     -0.00027
     68       8.6076     -0.00008
     69       9.0776     -0.00000
     70       9.1551     -0.00000
     71       9.2148     -0.00000
     72       9.3994     -0.00000
     73       9.5946     -0.00000
     74       9.7604     -0.00000
     75       9.8784     -0.00000
     76      10.0783     -0.00000
     77      10.2025     -0.00000
     78      10.2868     -0.00000
     79      10.3706      0.00000
     80      10.4182      0.00000
     81      10.4386      0.00000
     82      10.4475      0.00000
     83      10.5493      0.00000
     84      10.5964      0.00000
     85      10.6067      0.00000
     86      10.7160      0.00000
     87      11.0400      0.00000
     88      11.1385      0.00000
     89      11.1502      0.00000
     90      11.1837      0.00000
     91      11.7359      0.00000
     92      11.7508      0.00000
     93      12.0401      0.00000
     94      12.1765      0.00000
     95      12.4173      0.00000
     96      12.4966      0.00000
     97      12.7614      0.00000
     98      13.1674      0.00000
     99      13.7421      0.00000
    100      13.7445      0.00000
    101      13.9940      0.00000
    102      14.2681      0.00000
    103      14.3856      0.00000
    104      14.5901      0.00000
    105      14.6864      0.00000
    106      14.9453      0.00000
    107      14.9663      0.00000
    108      15.0071      0.00000
    109      15.1234      0.00000
    110      15.2042      0.00000
    111      15.3964      0.00000
    112      15.9537      0.00000
    113      16.5513      0.00000
    114      17.1486      0.00000
    115      17.2982      0.00000
    116      17.6240      0.00000
    117      17.7621      0.00000
    118      18.0441      0.00000
    119      18.0555      0.00000
    120      18.1278      0.00000
    121      18.2144      0.00000
    122      18.3569      0.00000
    123      18.9174      0.00000
    124      19.0667      0.00000
    125      19.1303      0.00000
    126      19.2949      0.00000
    127      19.4701      0.00000
    128      19.6211      0.00000

 k-point     4 :       0.5000    0.0000    0.0000
  band No.  band energies     occupation 
      1     -48.3091      2.00000
      2     -48.3085      2.00000
      3     -48.3085      2.00000
      4     -48.3079      2.00000
      5     -48.2520      2.00000
      6     -48.2515      2.00000
      7     -48.2514      2.00000
      8     -48.2509      2.00000
      9     -24.7319      2.00000
     10     -24.7312      2.00000
     11     -24.7287      2.00000
     12     -24.7283      2.00000
     13     -24.7224      2.00000
     14     -24.7218      2.00000
     15     -24.7080      2.00000
     16     -24.7076      2.00000
     17     -24.6650      2.00000
     18     -24.6646      2.00000
     19     -24.6532      2.00000
     20     -24.6527      2.00000
     21     -24.5309      2.00000
     22     -24.5290      2.00000
     23     -24.5271      2.00000
     24     -24.5253      2.00000
     25     -24.4757      2.00000
     26     -24.4747      2.00000
     27     -24.4721      2.00000
     28     -24.4711      2.00000
     29     -24.2671      2.00000
     30     -24.2667      2.00000
     31     -24.2665      2.00000
     32     -24.2661      2.00000
     33      -6.1301      2.00000
     34      -6.1138      2.00000
     35      -6.0908      2.00000
     36      -6.0901      2.00000
     37      -6.0618      2.00000
     38       0.1308      2.00000
     39       0.4527      2.00000
     40       1.3692      2.00000
     41       1.6150      2.00000
     42       3.9734      2.00000
     43       4.2908      2.00000
     44       4.3195      2.00000
     45       4.3417      2.00000
     46       4.3703      2.00000
     47       4.3703      2.00000
     48       4.8838      2.00000
     49       4.9634      2.00000
     50       5.6849      2.00000
     51       5.7399      2.00000
     52       6.3640      2.00000
     53       6.3972      2.00000
     54       7.1326      2.00000
     55       7.1576      2.00000
     56       7.2046      2.00000
     57       7.2062      2.00000
     58       7.2243      2.00000
     59       7.2809      2.00000
     60       7.4610      2.00000
     61       7.4914      2.00000
     62       8.0200      2.00080
     63       8.0680      2.00668
     64       8.0854      2.01259
     65       8.0925      2.01597
     66       8.5998     -0.00012
     67       8.6545     -0.00000
     68       8.8634     -0.00000
     69       8.9178     -0.00000
     70       9.0658     -0.00000
     71       9.1258     -0.00000
     72       9.1609     -0.00000
     73       9.1897     -0.00000
     74       9.3684     -0.00000
     75       9.3971     -0.00000
     76      10.0509     -0.00000
     77      10.0745     -0.00000
     78      10.3174      0.00000
     79      10.3271      0.00000
     80      10.3495      0.00000
     81      10.4769      0.00000
     82      10.6213      0.00000
     83      10.6368      0.00000
     84      10.7270      0.00000
     85      10.7384      0.00000
     86      10.7877      0.00000
     87      10.8000      0.00000
     88      11.0817      0.00000
     89      11.1740      0.00000
     90      11.5900      0.00000
     91      11.5902      0.00000
     92      11.7434      0.00000
     93      11.9220      0.00000
     94      11.9610      0.00000
     95      12.0094      0.00000
     96      12.3099      0.00000
     97      12.3320      0.00000
     98      13.5734      0.00000
     99      13.6102      0.00000
    100      13.8789      0.00000
    101      13.9797      0.00000
    102      14.4454      0.00000
    103      14.4540      0.00000
    104      14.7622      0.00000
    105      14.9141      0.00000
    106      15.4827      0.00000
    107      15.5159      0.00000
    108      15.5572      0.00000
    109      15.6347      0.00000
    110      16.1843      0.00000
    111      16.2348      0.00000
    112      16.2729      0.00000
    113      16.2746      0.00000
    114      16.3745      0.00000
    115      16.4740      0.00000
    116      16.4883      0.00000
    117      16.5086      0.00000
    118      16.8686      0.00000
    119      17.2178      0.00000
    120      17.9726      0.00000
    121      18.1782      0.00000
    122      18.6238      0.00000
    123      19.0199      0.00000
    124      19.3668      0.00000
    125      19.4101      0.00000
    126      19.4819      0.00000
    127      19.5078      0.00000
    128      19.5948      0.00000

 k-point     5 :       0.1667    0.1667    0.0000
  band No.  band energies     occupation 
      1     -48.3300      2.00000
      2     -48.3294      2.00000
      3     -48.2798      2.00000
      4     -48.2798      2.00000
      5     -48.2793      2.00000
      6     -48.2793      2.00000
      7     -48.2312      2.00000
      8     -48.2307      2.00000
      9     -24.7483      2.00000
     10     -24.7351      2.00000
     11     -24.7318      2.00000
     12     -24.7252      2.00000
     13     -24.7228      2.00000
     14     -24.7202      2.00000
     15     -24.6934      2.00000
     16     -24.6933      2.00000
     17     -24.6811      2.00000
     18     -24.6808      2.00000
     19     -24.6721      2.00000
     20     -24.6699      2.00000
     21     -24.6686      2.00000
     22     -24.6668      2.00000
     23     -24.6445      2.00000
     24     -24.6333      2.00000
     25     -24.3195      2.00000
     26     -24.3187      2.00000
     27     -24.3158      2.00000
     28     -24.3152      2.00000
     29     -24.2852      2.00000
     30     -24.2845      2.00000
     31     -24.2744      2.00000
     32     -24.2737      2.00000
     33      -6.1314      2.00000
     34      -6.1136      2.00000
     35      -6.0904      2.00000
     36      -6.0904      2.00000
     37      -6.0625      2.00000
     38      -0.6372      2.00000
     39       0.7632      2.00000
     40       2.2937      2.00000
     41       2.5799      2.00000
     42       2.9100      2.00000
     43       3.0930      2.00000
     44       3.3251      2.00000
     45       4.6355      2.00000
     46       5.1138      2.00000
     47       5.1954      2.00000
     48       5.2573      2.00000
     49       5.9073      2.00000
     50       5.9170      2.00000
     51       5.9515      2.00000
     52       6.2059      2.00000
     53       6.2329      2.00000
     54       6.2619      2.00000
     55       6.6609      2.00000
     56       6.7145      2.00000
     57       6.7318      2.00000
     58       6.7533      2.00000
     59       7.5654      2.00000
     60       7.7480      2.00000
     61       7.7659      2.00000
     62       7.8902      2.00000
     63       7.9061      2.00000
     64       7.9102      2.00000
     65       7.9768      2.00008
     66       8.0724      2.00789
     67       8.0788      2.00999
     68       8.2786      1.23318
     69       9.0517     -0.00000
     70       9.1916     -0.00000
     71       9.6998     -0.00000
     72       9.7028     -0.00000
     73       9.7221     -0.00000
     74       9.8966     -0.00000
     75       9.9035     -0.00000
     76      10.0003     -0.00000
     77      10.2651     -0.00000
     78      10.2766     -0.00000
     79      10.2886     -0.00000
     80      10.3094      0.00000
     81      10.4132      0.00000
     82      10.4314      0.00000
     83      10.4759      0.00000
     84      10.4891      0.00000
     85      10.6032      0.00000
     86      10.7663      0.00000
     87      10.9635      0.00000
     88      11.1766      0.00000
     89      11.3264      0.00000
     90      11.3667      0.00000
[...]
     90      11.9869      0.00000
     91      12.0184      0.00000
     92      12.0365      0.00000
     93      12.0415      0.00000
     94      12.2016      0.00000
     95      12.4467      0.00000
     96      12.4501      0.00000
     97      12.4794      0.00000
     98      12.8875      0.00000
     99      12.9266      0.00000
    100      12.9423      0.00000
    101      13.0267      0.00000
    102      13.7349      0.00000
    103      14.0708      0.00000
    104      14.0963      0.00000
    105      14.1094      0.00000
    106      15.0919      0.00000
    107      15.2550      0.00000
    108      15.2578      0.00000
    109      15.3296      0.00000
    110      17.0560      0.00000
    111      17.0618      0.00000
    112      17.0645      0.00000
    113      17.1639      0.00000
    114      17.3023      0.00000
    115      17.3328      0.00000
    116      17.3406      0.00000
    117      17.3571      0.00000
    118      17.4217      0.00000
    119      17.4937      0.00000
    120      17.6172      0.00000
    121      17.9422      0.00000
    122      18.1382      0.00000
    123      18.1657      0.00000
    124      18.1972      0.00000
    125      18.4581      0.00000
    126      19.2642      0.00000
    127      19.2648      0.00000
    128      19.3834      0.00000

 k-point    30 :       0.5000    0.5000    0.5000
  band No.  band energies     occupation 
      1     -48.2807      2.00000
      2     -48.2807      2.00000
      3     -48.2801      2.00000
      4     -48.2801      2.00000
      5     -48.2801      2.00000
      6     -48.2801      2.00000
      7     -48.2795      2.00000
      8     -48.2795      2.00000
      9     -24.6885      2.00000
     10     -24.6878      2.00000
     11     -24.6878      2.00000
     12     -24.6878      2.00000
     13     -24.6875      2.00000
     14     -24.6875      2.00000
     15     -24.6874      2.00000
     16     -24.6870      2.00000
     17     -24.5154      2.00000
     18     -24.5152      2.00000
     19     -24.5113      2.00000
     20     -24.5111      2.00000
     21     -24.5032      2.00000
     22     -24.5032      2.00000
     23     -24.5032      2.00000
     24     -24.5032      2.00000
     25     -24.4984      2.00000
     26     -24.4984      2.00000
     27     -24.4984      2.00000
     28     -24.4984      2.00000
     29     -24.4905      2.00000
     30     -24.4905      2.00000
     31     -24.4863      2.00000
     32     -24.4863      2.00000
     33      -6.1273      2.00000
     34      -6.1145      2.00000
     35      -6.0905      2.00000
     36      -6.0905      2.00000
     37      -6.0606      2.00000
     38       1.0610      2.00000
     39       1.9337      2.00000
     40       1.9337      2.00000
     41       1.9848      2.00000
     42       1.9894      2.00000
     43       1.9904      2.00000
     44       1.9926      2.00000
     45       1.9926      2.00000
     46       6.1257      2.00000
     47       6.2235      2.00000
     48       6.2235      2.00000
     49       6.2277      2.00000
     50       6.2282      2.00000
     51       6.2354      2.00000
     52       6.2446      2.00000
     53       6.2446      2.00000
     54       7.8228      2.00000
     55       7.8228      2.00000
     56       7.8709      2.00000
     57       7.8997      2.00000
     58       7.9037      2.00000
     59       7.9037      2.00000
     60       7.9061      2.00000
     61       8.0798      2.01035
     62       8.2541      1.60056
     63       8.2541      1.60056
     64       8.2683      1.39796
     65       8.2906      1.03322
     66       8.3211      0.53839
     67       8.3211      0.53839
     68       8.3241      0.49468
     69       8.3633      0.07532
     70       9.0067     -0.00000
     71       9.0177     -0.00000
     72       9.0195     -0.00000
     73       9.0195     -0.00000
     74       9.0255     -0.00000
     75       9.0269     -0.00000
     76       9.1064     -0.00000
     77       9.1064     -0.00000
     78       9.9650     -0.00000
     79       9.9671     -0.00000
     80       9.9671     -0.00000
     81       9.9678     -0.00000
     82       9.9875     -0.00000
     83       9.9936     -0.00000
     84       9.9940     -0.00000
     85       9.9940     -0.00000
     86      11.6294      0.00000
     87      11.6625      0.00000
     88      11.6787      0.00000
     89      11.6787      0.00000
     90      11.6893      0.00000
     91      11.7289      0.00000
     92      11.7558      0.00000
     93      11.7558      0.00000
     94      12.8008      0.00000
     95      12.8008      0.00000
     96      12.8668      0.00000
     97      12.8684      0.00000
     98      12.8807      0.00000
     99      12.9079      0.00000
    100      12.9079      0.00000
    101      13.1958      0.00000
    102      13.2085      0.00000
    103      14.0789      0.00000
    104      14.0789      0.00000
    105      14.1098      0.00000
    106      14.1127      0.00000
    107      14.1165      0.00000
    108      14.1165      0.00000
    109      14.3137      0.00000
    110      17.3813      0.00000
    111      17.4944      0.00000
    112      17.4944      0.00000
    113      17.5079      0.00000
    114      17.5079      0.00000
    115      17.5165      0.00000
    116      17.6402      0.00000
    117      18.0406      0.00000
    118      18.6541      0.00000
    119      18.7040      0.00000
    120      18.7045      0.00000
    121      18.7146      0.00000
    122      18.7246      0.00000
    123      18.7496      0.00000
    124      18.7527      0.00000
    125      18.7907      0.00000
    126      18.7927      0.00000
    127      18.7956      0.00000
    128      18.8001      0.00000


--------------------------------------------------------------------------------------------------------


 soft charge-density along one line, spin component           1
         0         1         2         3         4         5         6         7         8         9
 total charge-density along one line
 
 pseudopotential strength for first ion, spin component:           1
 -3.765 -19.481  -0.001  -0.000  -0.001   0.001   0.001   0.001
-19.481   7.524  -0.001  -0.001  -0.001  -0.000  -0.000  -0.000
 -0.001  -0.001 -22.386  -0.002  -0.004   7.048   0.002   0.002
 -0.000  -0.001  -0.002 -22.500  -0.002   0.002   7.126   0.002
 -0.001  -0.001  -0.004  -0.002 -22.386   0.002   0.002   7.048
  0.001  -0.000   7.048   0.002   0.002   6.626  -0.001  -0.001
  0.001  -0.000   0.002   7.126   0.002  -0.001   6.595  -0.001
  0.001  -0.000   0.002   0.002   7.048  -0.001  -0.001   6.626
 -0.003  -0.001  -0.001   0.000  -0.001   0.000  -0.000   0.000
 -0.001  -0.001  -0.001  -0.001   0.000   0.000   0.000  -0.000
 -0.046  -0.013   0.001  -0.001   0.001  -0.000   0.000  -0.000
 -0.001  -0.001   0.000  -0.001  -0.001  -0.000   0.000   0.000
  0.000   0.000   0.001  -0.000  -0.001  -0.001   0.000   0.001
 -0.003  -0.001  -0.001   0.000  -0.001   0.001  -0.000   0.001
 -0.002  -0.001  -0.001  -0.001   0.000   0.001   0.000  -0.000
 -0.057  -0.015   0.001  -0.001   0.001  -0.000   0.000  -0.000
 -0.002  -0.001   0.000  -0.001  -0.001  -0.000   0.000   0.001
  0.000   0.000   0.001  -0.000  -0.001  -0.001   0.000   0.001
 total augmentation occupancy for first ion, spin component:           1
  2.000   0.000   0.000   0.000   0.000   0.000   0.000   0.000   0.000   0.000   0.000   0.000   0.000   0.000   0.000   0.000
  0.000   1.000   0.000   0.000   0.000   0.000   0.000   0.000   0.000   0.000   0.000   0.000   0.000   0.000   0.000   0.000
  0.000   0.000   2.000   0.000   0.000   0.000   0.000   0.000   0.000   0.000   0.000   0.000   0.000   0.000   0.000   0.000
  0.000   0.000   0.000   2.000   0.000   0.000   0.000   0.000   0.000   0.000   0.000   0.000   0.000   0.000   0.000   0.000
  0.000   0.000   0.000   0.000   2.000   0.000   0.000   0.000   0.000   0.000   0.000   0.000   0.000   0.000   0.000   0.000
  0.000   0.000   0.000   0.000   0.000   0.000   0.000   0.000   0.000   0.000   0.000   0.000   0.000   0.000   0.000   0.000
  0.000   0.000   0.000   0.000   0.000   0.000   0.000   0.000   0.000   0.000   0.000   0.000   0.000   0.000   0.000   0.000
  0.000   0.000   0.000   0.000   0.000   0.000   0.000   0.000   0.000   0.000   0.000   0.000   0.000   0.000   0.000   0.000
  0.000   0.000   0.000   0.000   0.000   0.000   0.000   0.000   0.600   0.000   0.000   0.000   0.000   0.000   0.000   0.000
  0.000   0.000   0.000   0.000   0.000   0.000   0.000   0.000   0.000   0.600   0.000   0.000   0.000   0.000   0.000   0.000
  0.000   0.000   0.000   0.000   0.000   0.000   0.000   0.000   0.000   0.000   0.600   0.000   0.000   0.000   0.000   0.000
  0.000   0.000   0.000   0.000   0.000   0.000   0.000   0.000   0.000   0.000   0.000   0.600   0.000   0.000   0.000   0.000
  0.000   0.000   0.000   0.000   0.000   0.000   0.000   0.000   0.000   0.000   0.000   0.000   0.600   0.000   0.000   0.000
  0.000   0.000   0.000   0.000   0.000   0.000   0.000   0.000   0.000   0.000   0.000   0.000   0.000   0.000   0.000   0.000
  0.000   0.000   0.000   0.000   0.000   0.000   0.000   0.000   0.000   0.000   0.000   0.000   0.000   0.000   0.000   0.000
  0.000   0.000   0.000   0.000   0.000   0.000   0.000   0.000   0.000   0.000   0.000   0.000   0.000   0.000   0.000   0.000
  0.000   0.000   0.000   0.000   0.000   0.000   0.000   0.000   0.000   0.000   0.000   0.000   0.000   0.000   0.000   0.000
  0.000   0.000   0.000   0.000   0.000   0.000   0.000   0.000   0.000   0.000   0.000   0.000   0.000   0.000   0.000   0.000


------------------------ aborting loop because EDIFF is reached ----------------------------------------





 total charge

# of ion       s       p       d       tot
------------------------------------------
    1        2.200   6.117   1.960  10.276
    2        2.200   6.117   1.960  10.276
    3        2.200   6.117   1.960  10.276
    4        2.200   6.117   1.960  10.276
    5        2.200   6.117   1.960  10.276
    6        2.200   6.117   1.960  10.276
    7        2.200   6.117   1.960  10.276
    8        2.200   6.117   1.960  10.276
    9        0.882   0.899   9.959  11.740
   10        0.411   0.419   0.000   0.830
   11        0.414   0.413   0.000   0.826
   12        0.410   0.419   0.000   0.829
   13        0.414   0.413   0.000   0.826
   14        0.410   0.419   0.000   0.829
   15        0.410   0.422   0.000   0.832
   16        0.411   0.417   0.000   0.828
--------------------------------------------------
tot         21.360  52.754  25.635  99.749
 
    CHARGE:  cpu time      0.0365: real time      0.0365
    FORLOC:  cpu time      0.0004: real time      0.0004
    FORNL :  cpu time      0.6178: real time      0.6179
    STRESS:  cpu time      2.0863: real time      2.0864
    FORCOR:  cpu time      0.0081: real time      0.0081
    FORHAR:  cpu time      0.0015: real time      0.0015
    OFIELD:  cpu time      0.0000: real time      0.0000

  FORCE on cell =-STRESS in cart. coord.  units (eV):
  Direction    XX          YY          ZZ          XY          YZ          ZX
  --------------------------------------------------------------------------------------
  Alpha Z   381.68433   381.68433   381.68433
  Ewald   -2823.08816 -2823.08816 -4223.25302     0.00000     0.00000     0.00000
  Hartree  1932.25963  1932.25963   692.74550    -0.00000    -0.00000    -0.00000
  E(xc)    -646.54579  -646.54579  -648.19303    -0.00000    -0.00000     0.00000
  Local    -923.74460  -923.74460  1755.34097    -0.00000     0.00000    -0.00000
  n-local  -121.13245  -157.98181   -83.19584    -3.50187     0.67419     1.67593
  augment   618.43822   618.43822   595.37395     0.00000     0.00000     0.00000
  Kinetic  1581.22477  1620.48970  1530.05700     1.75665    -2.17933    -2.06265
  Fock        0.00000     0.00000     0.00000     0.00000     0.00000     0.00000
  -------------------------------------------------------------------------------------
  Total       0.30373     0.30373     0.55986    -0.00000     0.00000     0.00000
  in kB       1.88283     1.88283     3.47054    -0.00000     0.00000     0.00000
  external pressure =        2.41 kB  Pullay stress =        0.00 kB


 VOLUME and BASIS-vectors are now :
 -----------------------------------------------------------------------------
  energy-cutoff  :      520.00
  volume of cell :      258.46
      direct lattice vectors                 reciprocal lattice vectors
     5.645286061  0.000000000  0.000000000     0.177138942  0.000000000  0.000000000
     0.000000000  5.645286061  0.000000000     0.000000000  0.177138942  0.000000000
     0.000000000  0.000000000  8.109982462     0.000000000  0.000000000  0.123304829

  length of vectors
     5.645286061  5.645286061  8.109982462     0.177138942  0.177138942  0.123304829


 FORCES acting on ions
    electron-ion (+dipol)            ewald-force                    non-local-force                 convergence-correction
 -----------------------------------------------------------------------------------------------
   0.692E+02 0.692E+02 0.163E+03   -.694E+02 -.694E+02 -.163E+03   0.171E+00 0.171E+00 0.195E+00   0.317E-02 0.317E-02 0.101E-01
   0.692E+02 0.692E+02 -.163E+03   -.694E+02 -.694E+02 0.163E+03   0.171E+00 0.171E+00 -.195E+00   0.317E-02 0.317E-02 -.101E-01
   0.692E+02 -.692E+02 0.163E+03   -.694E+02 0.694E+02 -.163E+03   0.171E+00 -.171E+00 0.195E+00   0.317E-02 -.317E-02 0.101E-01
   0.692E+02 -.692E+02 -.163E+03   -.694E+02 0.694E+02 0.163E+03   0.171E+00 -.171E+00 -.195E+00   0.317E-02 -.317E-02 -.101E-01
   -.692E+02 0.692E+02 0.163E+03   0.694E+02 -.694E+02 -.163E+03   -.171E+00 0.171E+00 0.195E+00   -.317E-02 0.317E-02 0.101E-01
   -.692E+02 0.692E+02 -.163E+03   0.694E+02 -.694E+02 0.163E+03   -.171E+00 0.171E+00 -.195E+00   -.317E-02 0.317E-02 -.101E-01
   -.692E+02 -.692E+02 0.163E+03   0.694E+02 0.694E+02 -.163E+03   -.171E+00 -.171E+00 0.195E+00   -.317E-02 -.317E-02 0.101E-01
   -.692E+02 -.692E+02 -.163E+03   0.694E+02 0.694E+02 0.163E+03   -.171E+00 -.171E+00 -.195E+00   -.317E-02 -.317E-02 -.101E-01
   0.195E-12 0.105E-11 -.146E-11   0.127E-12 -.169E-13 0.257E-13   0.132E-22 0.000E+00 0.000E+00   -.118E-11 0.729E-12 -.154E-11
   0.969E-14 -.569E-12 0.576E-13   0.392E-13 0.406E-14 0.296E-14   -.265E-22 -.529E-22 0.000E+00   0.106E-12 -.119E-12 0.203E-12
   0.109E-13 -.662E-13 -.526E-12   -.815E-14 0.515E-15 0.690E-14   0.000E+00 0.000E+00 -.132E-22   0.189E-13 -.785E-13 -.310E-12
   0.112E-13 0.854E-12 0.272E-12   0.155E-13 0.206E-13 -.578E-14   0.132E-22 0.106E-21 0.000E+00   0.267E-12 0.119E-12 0.373E-12
   -.303E-13 0.600E-12 0.242E-12   -.483E-14 -.439E-14 0.228E-13   0.000E+00 0.248E-23 0.000E+00   0.895E-13 0.823E-13 -.144E-12
   -.220E-14 -.144E-12 0.621E-12   0.161E-13 0.347E-14 0.101E-13   0.265E-22 0.000E+00 0.000E+00   -.107E-12 -.104E-12 0.167E-12
   -.175E-14 0.447E-12 -.138E-12   0.393E-13 0.278E-13 -.169E-13   0.000E+00 0.827E-23 0.000E+00   -.182E-13 -.831E-13 -.267E-12
   -.776E-14 0.466E-12 0.254E-12   0.117E-13 0.411E-14 0.177E-13   -.331E-23 0.000E+00 0.000E+00   -.266E-12 0.103E-12 0.352E-12
 -----------------------------------------------------------------------------------------------
   -.197E-11 -.519E-11 0.480E-10   -.344E-13 -.176E-13 0.350E-13   -.278E-16 -.278E-16 -.555E-16   -.678E-12 0.726E-11 -.247E-10
 
 
 POSITION                                       TOTAL-FORCE (eV/Angst)
 -----------------------------------------------------------------------------------
      0.00111      0.00111      0.00501         0.000681      0.000681      0.007502
      0.00111      0.00111      4.04999         0.000681      0.000681     -0.007502
      0.00111      2.82153      0.00501         0.000681     -0.000681      0.007502
      0.00111      2.82153      4.04999         0.000681     -0.000681     -0.007502
      2.82153      0.00111      0.00501        -0.000681      0.000681      0.007502
      2.82153      0.00111      4.04999        -0.000681      0.000681     -0.007502
      2.82153      2.82153      0.00501        -0.000681     -0.000681      0.007502
      2.82153      2.82153      4.04999        -0.000681     -0.000681     -0.007502
      1.41132      1.41132      2.02750         0.000000     -0.000000     -0.000000
      1.41132      1.41132      6.08249         0.000000     -0.000000     -0.000000
      1.41132      4.23396      2.02750         0.000000     -0.000000      0.000000
      1.41132      4.23396      6.08249         0.000000     -0.000000      0.000000
      4.23396      1.41132      2.02750         0.000000     -0.000000     -0.000000
      4.23396      1.41132      6.08249         0.000000     -0.000000     -0.000000
      4.23396      4.23396      2.02750         0.000000     -0.000000     -0.000000
      4.23396      4.23396      6.08249         0.000000     -0.000000     -0.000000
 -----------------------------------------------------------------------------------
    total drift:                               -0.000000      0.000000      0.000000


--------------------------------------------------------------------------------------------------------



  FREE ENERGIE OF THE ION-ELECTRON SYSTEM (eV)
  ---------------------------------------------------
  free  energy   TOTEN  =       -98.46108620 eV

  energy  without entropy=      -98.46495546  energy(sigma->0) =      -98.46237596
 


--------------------------------------------------------------------------------------------------------


    POTLOK:  cpu time      0.0085: real time      0.0085


--------------------------------------------------------------------------------------------------------


 writing wavefunctions
     LOOP+:  cpu time     54.3127: real time     54.3169
    4ORBIT:  cpu time      0.0000: real time      0.0000



 total charge

# of ion       s       p       d       tot
------------------------------------------
    1        2.200   6.117   1.960  10.276
    2        2.200   6.117   1.960  10.276
    3        2.200   6.117   1.960  10.276
    4        2.200   6.117   1.960  10.276
    5        2.200   6.117   1.960  10.276
    6        2.200   6.117   1.960  10.276
    7        2.200   6.117   1.960  10.276
    8        2.200   6.117   1.960  10.276
    9        0.882   0.899   9.959  11.740
   10        0.411   0.419   0.000   0.830
   11        0.414   0.413   0.000   0.826
   12        0.410   0.419   0.000   0.829
   13        0.414   0.413   0.000   0.826
   14        0.410   0.419   0.000   0.829
   15        0.410   0.422   0.000   0.832
   16        0.411   0.417   0.000   0.828
--------------------------------------------------
tot         21.360  52.754  25.635  99.749
 

 total amount of memory used by VASP MPI-rank0   133107. kBytes
=======================================================================

   base                                    :      30000. kBytes
   nonl-proj                               :      93040. kBytes
   fftplans                                :        434. kBytes
   grid                                    :       2381. kBytes
   one-center                              :        248. kBytes
   wavefun                                 :       7004. kBytes
 
  
  
 General timing and accounting informations for this job:
 ========================================================
  
                  Total CPU time used (sec):       59.201
                            User time (sec):       55.395
                          System time (sec):        3.806
                         Elapsed time (sec):       59.472
  
                   Maximum memory used (kb):      311296.
                   Average memory used (kb):          N/A
  
                          Minor page faults:        47432
                          Major page faults:           14
                 Voluntary context switches:           93
