PROCAR new format
# of k-points:   30         # of bands:  128         # of ions:   16

 k-point     1 :    0.00000000 0.00000000 0.00000000     weight = 0.00694444

band     1 # energy  -48.33773753 # occ.  2.00000000
 
ion      s      p      d    tot
    1  0.124  0.000  0.000  0.124
    2  0.124  0.000  0.000  0.124
    3  0.124  0.000  0.000  0.124
    4  0.124  0.000  0.000  0.124
    5  0.124  0.000  0.000  0.124
    6  0.124  0.000  0.000  0.124
    7  0.124  0.000  0.000  0.124
    8  0.124  0.000  0.000  0.124
    9  0.000  0.000  0.000  0.000
   10  0.000  0.000  0.000  0.000
   11  0.000  0.000  0.000  0.000
   12  0.000  0.000  0.000  0.000
   13  0.000  0.000  0.000  0.000
   14  0.000  0.000  0.000  0.000
   15  0.000  0.000  0.000  0.000
   16  0.000  0.000  0.000  0.000
tot    0.993  0.000  0.000  0.993
 
band     2 # energy  -48.33710182 # occ.  2.00000000
 
ion      s      p      d    tot
    1  0.124  0.000  0.000  0.124
    2  0.124  0.000  0.000  0.124
    3  0.124  0.000  0.000  0.124
    4  0.124  0.000  0.000  0.124
    5  0.124  0.000  0.000  0.124
    6  0.124  0.000  0.000  0.124
    7  0.124  0.000  0.000  0.124
    8  0.124  0.000  0.000  0.124
    9  0.000  0.000  0.000  0.000
   10  0.000  0.000  0.000  0.000
   11  0.000  0.000  0.000  0.000
   12  0.000  0.000  0.000  0.000
   13  0.000  0.000  0.000  0.000
   14  0.000  0.000  0.000  0.000
   15  0.000  0.000  0.000  0.000
   16  0.000  0.000  0.000  0.000
tot    0.993  0.000  0.000  0.993
 
band     3 # energy  -48.27958926 # occ.  2.00000000
 
ion      s      p      d    tot
    1  0.136  0.000  0.000  0.136
    2  0.136  0.000  0.000  0.136
    3  0.113  0.000  0.000  0.113
    4  0.113  0.000  0.000  0.113
    5  0.113  0.000  0.000  0.113
    6  0.113  0.000  0.000  0.113
    7  0.136  0.000  0.000  0.136
    8  0.136  0.000  0.000  0.136
    9  0.000  0.000  0.000  0.000
   10  0.000  0.000  0.000  0.000
   11  0.000  0.000  0.000  0.000
   12  0.000  0.000  0.000  0.000
   13  0.000  0.000  0.000  0.000
   14  0.000  0.000  0.000  0.000
   15  0.000  0.000  0.000  0.000
   16  0.000  0.000  0.000  0.000
tot    0.995  0.000  0.000  0.995
 
band     4 # energy  -48.27958926 # occ.  2.00000000
 
ion      s      p      d    tot
    1  0.113  0.000  0.000  0.113
    2  0.113  0.000  0.000  0.113
    3  0.136  0.000  0.000  0.136
    4  0.136  0.000  0.000  0.136
    5  0.136  0.000  0.000  0.136
    6  0.136  0.000  0.000  0.136
    7  0.113  0.000  0.000  0.113
    8  0.113  0.000  0.000  0.113
    9  0.000  0.000  0.000  0.000
   10  0.000  0.000  0.000  0.000
   11  0.000  0.000  0.000  0.000
   12  0.000  0.000  0.000  0.000
   13  0.000  0.000  0.000  0.000
   14  0.000  0.000  0.000  0.000
   15  0.000  0.000  0.000  0.000
   16  0.000  0.000  0.000  0.000
tot    0.995  0.000  0.000  0.995
 
band     5 # energy  -48.27910909 # occ.  2.00000000
 
ion      s      p      d    tot
    1  0.240  0.000  0.000  0.240
    2  0.240  0.000  0.000  0.240
    3  0.009  0.000  0.000  0.009
    4  0.009  0.000  0.000  0.009
    5  0.009  0.000  0.000  0.009
    6  0.009  0.000  0.000  0.009
    7  0.240  0.000  0.000  0.240
    8  0.240  0.000  0.000  0.240
    9  0.000  0.000  0.000  0.000
   10  0.000  0.000  0.000  0.000
   11  0.000  0.000  0.000  0.000
   12  0.000  0.000  0.000  0.000
   13  0.000  0.000  0.000  0.000
   14  0.000  0.000  0.000  0.000
   15  0.000  0.000  0.000  0.000
   16  0.000  0.000  0.000  0.000
tot    0.995  0.000  0.000  0.995
 
band     6 # energy  -48.27910909 # occ.  2.00000000
 
ion      s      p      d    tot
    1  0.009  0.000  0.000  0.009
    2  0.009  0.000  0.000  0.009
    3  0.240  0.000  0.000  0.240
    4  0.240  0.000  0.000  0.240
    5  0.240  0.000  0.000  0.240
    6  0.240  0.000  0.000  0.240
    7  0.009  0.000  0.000  0.009
    8  0.009  0.000  0.000  0.009
    9  0.000  0.000  0.000  0.000
   10  0.000  0.000  0.000  0.000
   11  0.000  0.000  0.000  0.000
   12  0.000  0.000  0.000  0.000
   13  0.000  0.000  0.000  0.000
   14  0.000  0.000  0.000  0.000
   15  0.000  0.000  0.000  0.000
   16  0.000  0.000  0.000  0.000
tot    0.995  0.000  0.000  0.995
 
band     7 # energy  -48.22361870 # occ.  2.00000000
 
ion      s      p      d    tot
    1  0.125  0.000  0.000  0.125
    2  0.125  0.000  0.000  0.125
    3  0.125  0.000  0.000  0.125
    4  0.125  0.000  0.000  0.125
    5  0.125  0.000  0.000  0.125
    6  0.125  0.000  0.000  0.125
    7  0.125  0.000  0.000  0.125
    8  0.125  0.000  0.000  0.125
    9  0.000  0.000  0.000  0.000
   10  0.000  0.000  0.000  0.000
   11  0.000  0.000  0.000  0.000
   12  0.000  0.000  0.000  0.000
   13  0.000  0.000  0.000  0.000
   14  0.000  0.000  0.000  0.000
   15  0.000  0.000  0.000  0.000
   16  0.000  0.000  0.000  0.000
tot    0.996  0.000  0.000  0.996
 
band     8 # energy  -48.22316023 # occ.  2.00000000
 
ion      s      p      d    tot
    1  0.125  0.000  0.000  0.125
    2  0.125  0.000  0.000  0.125
    3  0.125  0.000  0.000  0.125
    4  0.125  0.000  0.000  0.125
    5  0.125  0.000  0.000  0.125
    6  0.125  0.000  0.000  0.125
    7  0.125  0.000  0.000  0.125
    8  0.125  0.000  0.000  0.125
    9  0.000  0.000  0.000  0.000
   10  0.000  0.000  0.000  0.000
   11  0.000  0.000  0.000  0.000
   12  0.000  0.000  0.000  0.000
   13  0.000  0.000  0.000  0.000
   14  0.000  0.000  0.000  0.000
   15  0.000  0.000  0.000  0.000
   16  0.000  0.000  0.000  0.000
tot    0.996  0.000  0.000  0.996
 
band     9 # energy  -24.77051466 # occ.  2.00000000
 
ion      s      p      d    tot
    1  0.000  0.122  0.000  0.122
    2  0.000  0.122  0.000  0.122
    3  0.000  0.122  0.000  0.122
    4  0.000  0.122  0.000  0.122
    5  0.000  0.122  0.000  0.122
    6  0.000  0.122  0.000  0.122
    7  0.000  0.122  0.000  0.122
    8  0.000  0.122  0.000  0.122
    9  0.000  0.000  0.000  0.000
   10  0.000  0.000  0.000  0.000
   11  0.000  0.000  0.000  0.000
   12  0.000  0.000  0.000  0.000
   13  0.000  0.000  0.000  0.000
   14  0.000  0.000  0.000  0.000
   15  0.000  0.000  0.000  0.000
   16  0.000  0.000  0.000  0.000
tot    0.000  0.974  0.000  0.974
 
band    10 # energy  -24.76682651 # occ.  2.00000000
 
ion      s      p      d    tot
    1  0.000  0.122  0.000  0.122
    2  0.000  0.122  0.000  0.122
    3  0.000  0.122  0.000  0.122
    4  0.000  0.122  0.000  0.122
    5  0.000  0.122  0.000  0.122
    6  0.000  0.122  0.000  0.122
    7  0.000  0.122  0.000  0.122
    8  0.000  0.122  0.000  0.122
    9  0.000  0.000  0.000  0.000
   10  0.000  0.000  0.000  0.000
   11  0.000  0.000  0.000  0.000
   12  0.000  0.000  0.000  0.000
   13  0.000  0.000  0.000  0.000
   14  0.000  0.000  0.000  0.000
   15  0.000  0.000  0.000  0.000
   16  0.000  0.000  0.000  0.000
tot    0.000  0.974  0.000  0.974
 
band    11 # energy  -24.75820479 # occ.  2.00000000
 
ion      s      p      d    tot
    1  0.000  0.122  0.000  0.122
    2  0.000  0.122  0.000  0.122
    3  0.000  0.122  0.000  0.122
    4  0.000  0.122  0.000  0.122
    5  0.000  0.122  0.000  0.122
    6  0.000  0.122  0.000  0.122
    7  0.000  0.122  0.000  0.122
    8  0.000  0.122  0.000  0.122
    9  0.000  0.000  0.000  0.000
   10  0.000  0.000  0.000  0.000
   11  0.000  0.000  0.000  0.000
   12  0.000  0.000  0.000  0.000
   13  0.000  0.000  0.000  0.000
   14  0.000  0.000  0.000  0.000
   15  0.000  0.000  0.000  0.000
   16  0.000  0.000  0.000  0.000
tot    0.000  0.973  0.000  0.974
 
band    12 # energy  -24.75548024 # occ.  2.00000000
 
ion      s      p      d    tot
    1  0.000  0.122  0.000  0.122
    2  0.000  0.122  0.000  0.122
    3  0.000  0.122  0.000  0.122
    4  0.000  0.122  0.000  0.122
    5  0.000  0.122  0.000  0.122
    6  0.000  0.122  0.000  0.122
    7  0.000  0.122  0.000  0.122
    8  0.000  0.122  0.000  0.122
    9  0.000  0.000  0.000  0.000
   10  0.000  0.000  0.000  0.000
   11  0.000  0.000  0.000  0.000
   12  0.000  0.000  0.000  0.000
   13  0.000  0.000  0.000  0.000
   14  0.000  0.000  0.000  0.000
   15  0.000  0.000  0.000  0.000
   16  0.000  0.000  0.000  0.000
tot    0.000  0.974  0.000  0.974
 
band    13 # energy  -24.75334747 # occ.  2.00000000
 
ion      s      p      d    tot
    1  0.000  0.122  0.000  0.122
    2  0.000  0.122  0.000  0.122
    3  0.000  0.122  0.000  0.122
    4  0.000  0.122  0.000  0.122
    5  0.000  0.122  0.000  0.122
    6  0.000  0.122  0.000  0.122
    7  0.000  0.122  0.000  0.122
    8  0.000  0.122  0.000  0.122
    9  0.000  0.000  0.000  0.000
   10  0.000  0.000  0.000  0.000
   11  0.000  0.000  0.000  0.000
   12  0.000  0.000  0.000  0.000
   13  0.000  0.000  0.000  0.000
   14  0.000  0.000  0.000  0.000
   15  0.000  0.000  0.000  0.000
   16  0.000  0.000  0.000  0.000
tot    0.000  0.978  0.000  0.979
 
band    14 # energy  -24.73628666 # occ.  2.00000000
 
ion      s      p      d    tot
    1  0.000  0.123  0.000  0.123
    2  0.000  0.123  0.000  0.123
    3  0.000  0.123  0.000  0.123
    4  0.000  0.123  0.000  0.123
    5  0.000  0.123  0.000  0.123
    6  0.000  0.123  0.000  0.123
    7  0.000  0.123  0.000  0.123
    8  0.000  0.123  0.000  0.123
    9  0.000  0.000  0.000  0.000
   10  0.000  0.000  0.000  0.000
   11  0.000  0.000  0.000  0.000
   12  0.000  0.000  0.000  0.000
   13  0.000  0.000  0.000  0.000
   14  0.000  0.000  0.000  0.000
   15  0.000  0.000  0.000  0.000
   16  0.000  0.000  0.000  0.000
tot    0.000  0.981  0.000  0.981
 
band    15 # energy  -24.69799904 # occ.  2.00000000
 
ion      s      p      d    tot
    1  0.000  0.108  0.000  0.108
    2  0.000  0.108  0.000  0.108
    3  0.000  0.137  0.000  0.137
    4  0.000  0.137  0.000  0.137
    5  0.000  0.137  0.000  0.137
    6  0.000  0.137  0.000  0.137
    7  0.000  0.108  0.000  0.108
    8  0.000  0.108  0.000  0.108
    9  0.000  0.000  0.000  0.000
   10  0.000  0.000  0.000  0.000
   11  0.000  0.000  0.000  0.000
   12  0.000  0.000  0.000  0.000
   13  0.000  0.000  0.000  0.000
   14  0.000  0.000  0.000  0.000
   15  0.000  0.000  0.000  0.000
   16  0.000  0.000  0.000  0.000
tot    0.000  0.979  0.000  0.979
 
band    16 # energy  -24.69799904 # occ.  2.00000000
 
ion      s      p      d    tot
    1  0.000  0.137  0.000  0.137
    2  0.000  0.137  0.000  0.137
    3  0.000  0.108  0.000  0.108
    4  0.000  0.108  0.000  0.108
    5  0.000  0.108  0.000  0.108
    6  0.000  0.108  0.000  0.108
    7  0.000  0.137  0.000  0.137
    8  0.000  0.137  0.000  0.137
    9  0.000  0.000  0.000  0.000
   10  0.000  0.000  0.000  0.000
   11  0.000  0.000  0.000  0.000
   12  0.000  0.000  0.000  0.000
   13  0.000  0.000  0.000  0.000
   14  0.000  0.000  0.000  0.000
   15  0.000  0.000  0.000  0.000
   16  0.000  0.000  0.000  0.000
tot    0.000  0.979  0.000  0.979
 
band    17 # energy  -24.69528591 # occ.  2.00000000
 
ion      s      p      d    tot
    1  0.000  0.120  0.000  0.120
    2  0.000  0.120  0.000  0.120
    3  0.000  0.125  0.000  0.125
    4  0.000  0.125  0.000  0.125
    5  0.000  0.125  0.000  0.125
    6  0.000  0.125  0.000  0.125
    7  0.000  0.120  0.000  0.120
    8  0.000  0.120  0.000  0.120
    9  0.000  0.000  0.000  0.000
   10  0.000  0.000  0.000  0.000
   11  0.000  0.000  0.000  0.000
   12  0.000  0.000  0.000  0.000
   13  0.000  0.000  0.000  0.000
   14  0.000  0.000  0.000  0.000
   15  0.000  0.000  0.000  0.000
   16  0.000  0.000  0.000  0.000
tot    0.000  0.978  0.000  0.978
 
band    18 # energy  -24.69528591 # occ.  2.00000000
 
ion      s      p      d    tot
    1  0.000  0.125  0.000  0.125
    2  0.000  0.125  0.000  0.125
    3  0.000  0.120  0.000  0.120
    4  0.000  0.120  0.000  0.120
    5  0.000  0.120  0.000  0.120
    6  0.000  0.120  0.000  0.120
    7  0.000  0.125  0.000  0.125
    8  0.000  0.125  0.000  0.125
    9  0.000  0.000  0.000  0.000
   10  0.000  0.000  0.000  0.000
   11  0.000  0.000  0.000  0.000
   12  0.000  0.000  0.000  0.000
   13  0.000  0.000  0.000  0.000
   14  0.000  0.000  0.000  0.000
   15  0.000  0.000  0.000  0.000
   16  0.000  0.000  0.000  0.000
tot    0.000  0.978  0.000  0.978
 
band    19 # energy  -24.69008661 # occ.  2.00000000
 
ion      s      p      d    tot
    1  0.000  0.066  0.000  0.066
    2  0.000  0.066  0.000  0.066
    3  0.000  0.179  0.000  0.179
    4  0.000  0.179  0.000  0.179
    5  0.000  0.179  0.000  0.179
    6  0.000  0.179  0.000  0.179
    7  0.000  0.066  0.000  0.066
    8  0.000  0.066  0.000  0.066
    9  0.000  0.000  0.000  0.000
   10  0.000  0.000  0.000  0.000
   11  0.000  0.000  0.000  0.000
   12  0.000  0.000  0.000  0.000
   13  0.000  0.000  0.000  0.000
   14  0.000  0.000  0.000  0.000
   15  0.000  0.000  0.000  0.000
   16  0.000  0.000  0.000  0.000
tot    0.000  0.981  0.000  0.981
 
band    20 # energy  -24.69008661 # occ.  2.00000000
 
ion      s      p      d    tot
    1  0.000  0.179  0.000  0.179
    2  0.000  0.179  0.000  0.179
    3  0.000  0.066  0.000  0.066
    4  0.000  0.066  0.000  0.066
    5  0.000  0.066  0.000  0.066
    6  0.000  0.066  0.000  0.066
    7  0.000  0.179  0.000  0.179
    8  0.000  0.179  0.000  0.179
    9  0.000  0.000  0.000  0.000
   10  0.000  0.000  0.000  0.000
   11  0.000  0.000  0.000  0.000
   12  0.000  0.000  0.000  0.000
   13  0.000  0.000  0.000  0.000
   14  0.000  0.000  0.000  0.000
   15  0.000  0.000  0.000  0.000
   16  0.000  0.000  0.000  0.000
tot    0.000  0.981  0.000  0.981
 
band    21 # energy  -24.67866700 # occ.  2.00000000
 
ion      s      p      d    tot
    1  0.000  0.132  0.000  0.132
    2  0.000  0.132  0.000  0.132
    3  0.000  0.113  0.000  0.113
    4  0.000  0.113  0.000  0.113
    5  0.000  0.113  0.000  0.113
    6  0.000  0.113  0.000  0.113
    7  0.000  0.132  0.000  0.132
    8  0.000  0.132  0.000  0.132
    9  0.000  0.000  0.000  0.000
   10  0.000  0.000  0.000  0.000
   11  0.000  0.000  0.000  0.000
   12  0.000  0.000  0.000  0.000
   13  0.000  0.000  0.000  0.000
   14  0.000  0.000  0.000  0.000
   15  0.000  0.000  0.000  0.000
   16  0.000  0.000  0.000  0.000
tot    0.000  0.984  0.000  0.984
 
band    22 # energy  -24.67866700 # occ.  2.00000000
 
ion      s      p      d    tot
    1  0.000  0.113  0.000  0.113
    2  0.000  0.113  0.000  0.113
    3  0.000  0.132  0.000  0.132
    4  0.000  0.132  0.000  0.132
    5  0.000  0.132  0.000  0.132
    6  0.000  0.132  0.000  0.132
    7  0.000  0.113  0.000  0.113
    8  0.000  0.113  0.000  0.113
    9  0.000  0.000  0.000  0.000
   10  0.000  0.000  0.000  0.000
   11  0.000  0.000  0.000  0.000
   12  0.000  0.000  0.000  0.000
   13  0.000  0.000  0.000  0.000
   14  0.000  0.000  0.000  0.000
   15  0.000  0.000  0.000  0.000
   16  0.000  0.000  0.000  0.000
tot    0.000  0.984  0.000  0.984
 
band    23 # energy  -24.63704451 # occ.  2.00000000
 
ion      s      p      d    tot
    1  0.000  0.123  0.000  0.123
    2  0.000  0.123  0.000  0.123
    3  0.000  0.123  0.000  0.123
    4  0.000  0.123  0.000  0.123
    5  0.000  0.123  0.000  0.123
    6  0.000  0.123  0.000  0.123
    7  0.000  0.123  0.000  0.123
    8  0.000  0.123  0.000  0.123
    9  0.000  0.000  0.000  0.000
   10  0.000  0.000  0.000  0.000
   11  0.000  0.000  0.000  0.000
   12  0.000  0.000  0.000  0.000
   13  0.000  0.000  0.000  0.000
   14  0.000  0.000  0.000  0.000
   15  0.000  0.000  0.000  0.000
   16  0.000  0.000  0.000  0.000
tot    0.000  0.985  0.000  0.986
 
band    24 # energy  -24.62610065 # occ.  2.00000000
 
ion      s      p      d    tot
    1  0.000  0.123  0.000  0.123
    2  0.000  0.123  0.000  0.123
    3  0.000  0.123  0.000  0.123
    4  0.000  0.123  0.000  0.123
    5  0.000  0.123  0.000  0.123
    6  0.000  0.123  0.000  0.123
    7  0.000  0.123  0.000  0.123
    8  0.000  0.123  0.000  0.123
    9  0.000  0.000  0.000  0.000
   10  0.000  0.000  0.000  0.000
   11  0.000  0.000  0.000  0.000
   12  0.000  0.000  0.000  0.000
   13  0.000  0.000  0.000  0.000
   14  0.000  0.000  0.000  0.000
   15  0.000  0.000  0.000  0.000
   16  0.000  0.000  0.000  0.000
tot    0.000  0.986  0.000  0.986
 
band    25 # energy  -24.28783334 # occ.  2.00000000
 
ion      s      p      d    tot
    1  0.000  0.125  0.000  0.125
    2  0.000  0.125  0.000  0.125
    3  0.000  0.123  0.000  0.123
    4  0.000  0.123  0.000  0.123
    5  0.000  0.123  0.000  0.123
    6  0.000  0.123  0.000  0.123
    7  0.000  0.125  0.000  0.125
    8  0.000  0.125  0.000  0.125
    9  0.000  0.000  0.000  0.000
   10  0.000  0.000  0.000  0.000
   11  0.000  0.000  0.000  0.000
   12  0.000  0.000  0.000  0.000
   13  0.000  0.000  0.000  0.000
   14  0.000  0.000  0.000  0.000
   15  0.000  0.000  0.000  0.000
   16  0.000  0.000  0.000  0.000
tot    0.000  0.990  0.000  0.990
 
band    26 # energy  -24.28783334 # occ.  2.00000000
 
ion      s      p      d    tot
    1  0.000  0.123  0.000  0.123
    2  0.000  0.123  0.000  0.123
    3  0.000  0.125  0.000  0.125
    4  0.000  0.125  0.000  0.125
    5  0.000  0.125  0.000  0.125
    6  0.000  0.125  0.000  0.125
    7  0.000  0.123  0.000  0.123
    8  0.000  0.123  0.000  0.123
    9  0.000  0.000  0.000  0.000
   10  0.000  0.000  0.000  0.000
   11  0.000  0.000  0.000  0.000
   12  0.000  0.000  0.000  0.000
   13  0.000  0.000  0.000  0.000
   14  0.000  0.000  0.000  0.000
   15  0.000  0.000  0.000  0.000
   16  0.000  0.000  0.000  0.000
tot    0.000  0.990  0.000  0.990
 
band    27 # energy  -24.28729229 # occ.  2.00000000
 
ion      s      p      d    tot
    1  0.000  0.121  0.000  0.121
    2  0.000  0.121  0.000  0.121
    3  0.000  0.127  0.000  0.127
    4  0.000  0.127  0.000  0.127
    5  0.000  0.127  0.000  0.127
    6  0.000  0.127  0.000  0.127
    7  0.000  0.121  0.000  0.121
    8  0.000  0.121  0.000  0.121
    9  0.000  0.000  0.000  0.000
   10  0.000  0.000  0.000  0.000
   11  0.000  0.000  0.000  0.000
   12  0.000  0.000  0.000  0.000
   13  0.000  0.000  0.000  0.000
   14  0.000  0.000  0.000  0.000
   15  0.000  0.000  0.000  0.000
   16  0.000  0.000  0.000  0.000
tot    0.000  0.990  0.000  0.990
 
band    28 # energy  -24.28729229 # occ.  2.00000000
 
ion      s      p      d    tot
    1  0.000  0.127  0.000  0.127
    2  0.000  0.127  0.000  0.127
    3  0.000  0.121  0.000  0.121
    4  0.000  0.121  0.000  0.121
    5  0.000  0.121  0.000  0.121
    6  0.000  0.121  0.000  0.121
    7  0.000  0.127  0.000  0.127
    8  0.000  0.127  0.000  0.127
    9  0.000  0.000  0.000  0.000
   10  0.000  0.000  0.000  0.000
   11  0.000  0.000  0.000  0.000
   12  0.000  0.000  0.000  0.000
   13  0.000  0.000  0.000  0.000
   14  0.000  0.000  0.000  0.000
   15  0.000  0.000  0.000  0.000
   16  0.000  0.000  0.000  0.000
tot    0.000  0.990  0.000  0.990
 
band    29 # energy  -24.25143784 # occ.  2.00000000
 
ion      s      p      d    tot
    1  0.000  0.124  0.000  0.124
    2  0.000  0.124  0.000  0.124
    3  0.000  0.124  0.000  0.124
    4  0.000  0.124  0.000  0.124
    5  0.000  0.124  0.000  0.124
    6  0.000  0.124  0.000  0.124
    7  0.000  0.124  0.000  0.124
    8  0.000  0.124  0.000  0.124
    9  0.000  0.000  0.000  0.000
   10  0.000  0.000  0.000  0.000
   11  0.000  0.000  0.000  0.000
   12  0.000  0.000  0.000  0.000
   13  0.000  0.000  0.000  0.000
   14  0.000  0.000  0.000  0.000
   15  0.000  0.000  0.000  0.000
   16  0.000  0.000  0.000  0.000
tot    0.000  0.992  0.000  0.992
 
band    30 # energy  -24.25080073 # occ.  2.00000000
 
ion      s      p      d    tot
    1  0.000  0.124  0.000  0.124
    2  0.000  0.124  0.000  0.124
    3  0.000  0.124  0.000  0.124
    4  0.000  0.124  0.000  0.124
    5  0.000  0.124  0.000  0.124
    6  0.000  0.124  0.000  0.124
    7  0.000  0.124  0.000  0.124
    8  0.000  0.124  0.000  0.124
    9  0.000  0.000  0.000  0.000
   10  0.000  0.000  0.000  0.000
   11  0.000  0.000  0.000  0.000
   12  0.000  0.000  0.000  0.000
   13  0.000  0.000  0.000  0.000
   14  0.000  0.000  0.000  0.000
   15  0.000  0.000  0.000  0.000
   16  0.000  0.000  0.000  0.000
tot    0.000  0.992  0.000  0.992
 
band    31 # energy  -24.24055426 # occ.  2.00000000
 
ion      s      p      d    tot
    1  0.000  0.124  0.000  0.124
    2  0.000  0.124  0.000  0.124
    3  0.000  0.124  0.000  0.124
    4  0.000  0.124  0.000  0.124
    5  0.000  0.124  0.000  0.124
    6  0.000  0.124  0.000  0.124
    7  0.000  0.124  0.000  0.124
    8  0.000  0.124  0.000  0.124
    9  0.000  0.000  0.000  0.000
   10  0.000  0.000  0.000  0.000
   11  0.000  0.000  0.000  0.000
   12  0.000  0.000  0.000  0.000
   13  0.000  0.000  0.000  0.000
   14  0.000  0.000  0.000  0.000
   15  0.000  0.000  0.000  0.000
   16  0.000  0.000  0.000  0.000
tot    0.000  0.992  0.000  0.992
 
band    32 # energy  -24.23994595 # occ.  2.00000000
 
ion      s      p      d    tot
    1  0.000  0.124  0.000  0.124
    2  0.000  0.124  0.000  0.124
    3  0.000  0.124  0.000  0.124
    4  0.000  0.124  0.000  0.124
    5  0.000  0.124  0.000  0.124
    6  0.000  0.124  0.000  0.124
    7  0.000  0.124  0.000  0.124
    8  0.000  0.124  0.000  0.124
    9  0.000  0.000  0.000  0.000
   10  0.000  0.000  0.000  0.000
   11  0.000  0.000  0.000  0.000
   12  0.000  0.000  0.000  0.000
   13  0.000  0.000  0.000  0.000
   14  0.000  0.000  0.000  0.000
   15  0.000  0.000  0.000  0.000
   16  0.000  0.000  0.000  0.000
tot    0.000  0.992  0.000  0.992
 
band    33 # energy   -6.13280327 # occ.  2.00000000
 
ion      s      p      d    tot
    1  0.000  0.000  0.000  0.000
    2  0.000  0.000  0.000  0.000
    3  0.000  0.000  0.000  0.000
    4  0.000  0.000  0.000  0.000
    5  0.000  0.000  0.000  0.000
    6  0.000  0.000  0.000  0.000
    7  0.000  0.000  0.000  0.000
    8  0.000  0.000  0.000  0.000
    9  0.000  0.000  0.985  0.985
   10  0.000  0.000  0.000  0.000
   11  0.000  0.000  0.000  0.000
   12  0.000  0.000  0.000  0.000
   13  0.000  0.000  0.000  0.000
   14  0.000  0.000  0.000  0.000
   15  0.000  0.000  0.000  0.000
   16  0.000  0.000  0.000  0.000
tot    0.001  0.000  0.985  0.986
 
band    34 # energy   -6.11330972 # occ.  2.00000000
 
ion      s      p      d    tot
    1  0.000  0.000  0.000  0.000
    2  0.000  0.000  0.000  0.000
    3  0.000  0.000  0.000  0.000
    4  0.000  0.000  0.000  0.000
    5  0.000  0.000  0.000  0.000
    6  0.000  0.000  0.000  0.000
    7  0.000  0.000  0.000  0.000
    8  0.000  0.000  0.000  0.000
    9  0.000  0.000  0.988  0.988
   10  0.000  0.000  0.000  0.000
   11  0.000  0.000  0.000  0.000
   12  0.000  0.000  0.000  0.000
   13  0.000  0.000  0.000  0.000
   14  0.000  0.000  0.000  0.000
   15  0.000  0.000  0.000  0.000
   16  0.000  0.000  0.000  0.000
tot    0.000  0.000  0.988  0.988
 
band    35 # energy   -6.09034940 # occ.  2.00000000
 
ion      s      p      d    tot
    1  0.000  0.000  0.000  0.000
    2  0.000  0.000  0.000  0.000
    3  0.000  0.000  0.000  0.000
    4  0.000  0.000  0.000  0.000
    5  0.000  0.000  0.000  0.000
    6  0.000  0.000  0.000  0.000
    7  0.000  0.000  0.000  0.000
    8  0.000  0.000  0.000  0.000
    9  0.000  0.000  0.987  0.987
   10  0.000  0.000  0.000  0.000
   11  0.000  0.000  0.000  0.000
   12  0.000  0.000  0.000  0.000
   13  0.000  0.000  0.000  0.000
   14  0.000  0.000  0.000  0.000
   15  0.000  0.000  0.000  0.000
   16  0.000  0.000  0.000  0.000
tot    0.000  0.000  0.988  0.988
 
band    36 # energy   -6.09034940 # occ.  2.00000000
 
ion      s      p      d    tot
    1  0.000  0.000  0.000  0.000
    2  0.000  0.000  0.000  0.000
    3  0.000  0.000  0.000  0.000
    4  0.000  0.000  0.000  0.000
    5  0.000  0.000  0.000  0.000
    6  0.000  0.000  0.000  0.000
    7  0.000  0.000  0.000  0.000
    8  0.000  0.000  0.000  0.000
    9  0.000  0.000  0.987  0.987
   10  0.000  0.000  0.000  0.000
   11  0.000  0.000  0.000  0.000
   12  0.000  0.000  0.000  0.000
   13  0.000  0.000  0.000  0.000
   14  0.000  0.000  0.000  0.000
   15  0.000  0.000  0.000  0.000
   16  0.000  0.000  0.000  0.000
tot    0.000  0.000  0.988  0.988
 
band    37 # energy   -6.06315750 # occ.  2.00000000
 
ion      s      p      d    tot
    1  0.000  0.000  0.000  0.000
    2  0.000  0.000  0.000  0.000
    3  0.000  0.000  0.000  0.000
    4  0.000  0.000  0.000  0.000
    5  0.000  0.000  0.000  0.000
    6  0.000  0.000  0.000  0.000
    7  0.000  0.000  0.000  0.000
    8  0.000  0.000  0.000  0.000
    9  0.000  0.000  0.987  0.987
   10  0.000  0.000  0.000  0.000
   11  0.000  0.000  0.000  0.000
   12  0.000  0.000  0.000  0.000
   13  0.000  0.000  0.000  0.000
   14  0.000  0.000  0.000  0.000
   15  0.000  0.000  0.000  0.000
   16  0.000  0.000  0.000  0.000
tot    0.000  0.000  0.987  0.987
 
band    38 # energy   -0.90509130 # occ.  2.00000000
 
ion      s      p      d    tot
    1  0.012  0.000  0.000  0.012
    2  0.012  0.000  0.000  0.012
    3  0.012  0.000  0.000  0.012
    4  0.012  0.000  0.000  0.012
    5  0.012  0.000  0.000  0.012
    6  0.012  0.000  0.000  0.012
    7  0.012  0.000  0.000  0.012
    8  0.012  0.000  0.000  0.012
    9  0.094  0.000  0.000  0.095
   10  0.019  0.000  0.000  0.019
   11  0.029  0.000  0.000  0.029
   12  0.019  0.000  0.000  0.019
   13  0.029  0.000  0.000  0.029
   14  0.019  0.000  0.000  0.019
   15  0.025  0.000  0.000  0.025
   16  0.019  0.000  0.000  0.019
tot    0.348  0.001  0.003  0.352
 
band    39 # energy    0.57136851 # occ.  2.00000000
 
ion      s      p      d    tot
    1  0.000  0.007  0.000  0.007
    2  0.000  0.007  0.000  0.007
    3  0.000  0.007  0.000  0.007
    4  0.000  0.007  0.000  0.007
    5  0.000  0.007  0.000  0.007
    6  0.000  0.007  0.000  0.007
    7  0.000  0.007  0.000  0.007
    8  0.000  0.007  0.000  0.007
    9  0.089  0.000  0.001  0.090
   10  0.039  0.000  0.000  0.039
   11  0.021  0.000  0.000  0.021
   12  0.039  0.000  0.000  0.039
   13  0.021  0.000  0.000  0.021
   14  0.039  0.000  0.000  0.039
   15  0.015  0.000  0.000  0.015
   16  0.038  0.000  0.000  0.038
tot    0.304  0.054  0.002  0.359
 
band    40 # energy    2.91829202 # occ.  2.00000000
 
ion      s      p      d    tot
    1  0.000  0.002  0.016  0.018
    2  0.000  0.002  0.016  0.018
    3  0.000  0.002  0.016  0.018
    4  0.000  0.002  0.016  0.018
    5  0.000  0.002  0.016  0.018
    6  0.000  0.002  0.016  0.018
    7  0.000  0.002  0.016  0.018
    8  0.000  0.002  0.016  0.018
    9  0.215  0.000  0.001  0.216
   10  0.003  0.000  0.000  0.003
   11  0.004  0.000  0.000  0.004
   12  0.000  0.000  0.000  0.000
   13  0.004  0.000  0.000  0.004
   14  0.000  0.000  0.000  0.000
   15  0.119  0.000  0.000  0.119
   16  0.009  0.000  0.000  0.009
tot    0.355  0.019  0.126  0.500
 
band    41 # energy    3.02005674 # occ.  2.00000000
 
ion      s      p      d    tot
    1  0.027  0.000  0.003  0.031
    2  0.027  0.000  0.003  0.031
    3  0.027  0.000  0.003  0.031
    4  0.027  0.000  0.003  0.031
    5  0.027  0.000  0.003  0.031
    6  0.027  0.000  0.003  0.031
    7  0.027  0.000  0.003  0.031
    8  0.027  0.000  0.003  0.031
    9  0.000  0.022  0.000  0.022
   10  0.000  0.010  0.000  0.010
   11  0.000  0.010  0.000  0.010
   12  0.000  0.009  0.000  0.009
   13  0.000  0.010  0.000  0.010
   14  0.000  0.009  0.000  0.009
   15  0.000  0.010  0.000  0.010
   16  0.000  0.010  0.000  0.010
tot    0.218  0.089  0.027  0.333
 
band    42 # energy    3.42871702 # occ.  2.00000000
 
ion      s      p      d    tot
    1  0.000  0.000  0.025  0.025
    2  0.000  0.000  0.025  0.025
    3  0.000  0.000  0.025  0.025
    4  0.000  0.000  0.025  0.025
    5  0.000  0.000  0.025  0.025
    6  0.000  0.000  0.025  0.025
    7  0.000  0.000  0.025  0.025
    8  0.000  0.000  0.025  0.025
    9  0.000  0.000  0.006  0.006
   10  0.000  0.000  0.000  0.000
   11  0.048  0.000  0.000  0.048
   12  0.070  0.000  0.000  0.070
   13  0.048  0.000  0.000  0.048
   14  0.070  0.000  0.000  0.070
   15  0.000  0.000  0.000  0.000
   16  0.000  0.000  0.000  0.000
tot    0.236  0.001  0.206  0.443
 
band    43 # energy    3.60821939 # occ.  2.00000000
 
ion      s      p      d    tot
    1  0.000  0.007  0.007  0.014
    2  0.000  0.007  0.007  0.014
    3  0.000  0.007  0.007  0.014
    4  0.000  0.007  0.007  0.014
    5  0.000  0.007  0.007  0.014
    6  0.000  0.007  0.007  0.014
    7  0.000  0.007  0.007  0.014
    8  0.000  0.007  0.007  0.014
    9  0.017  0.000  0.000  0.018
   10  0.123  0.000  0.000  0.123
   11  0.000  0.000  0.000  0.000
   12  0.000  0.000  0.000  0.000
   13  0.000  0.000  0.000  0.000
   14  0.000  0.000  0.000  0.000
   15  0.008  0.000  0.000  0.008
   16  0.115  0.000  0.000  0.115
tot    0.264  0.056  0.059  0.379
 
band    44 # energy    3.74494009 # occ.  2.00000000
 
ion      s      p      d    tot
    1  0.017  0.000  0.010  0.027
    2  0.017  0.000  0.010  0.027
    3  0.008  0.000  0.011  0.018
    4  0.008  0.000  0.011  0.018
    5  0.008  0.000  0.011  0.018
    6  0.008  0.000  0.011  0.018
    7  0.017  0.000  0.010  0.027
    8  0.017  0.000  0.010  0.027
    9  0.000  0.037  0.000  0.037
   10  0.000  0.015  0.000  0.015
   11  0.000  0.017  0.000  0.017
   12  0.000  0.015  0.000  0.015
   13  0.000  0.017  0.000  0.017
   14  0.000  0.015  0.000  0.015
   15  0.000  0.016  0.000  0.016
   16  0.000  0.015  0.000  0.015
tot    0.098  0.149  0.084  0.332
 
band    45 # energy    3.74494009 # occ.  2.00000000
 
ion      s      p      d    tot
    1  0.008  0.000  0.011  0.018
    2  0.008  0.000  0.011  0.018
    3  0.017  0.000  0.010  0.027
    4  0.017  0.000  0.010  0.027
    5  0.017  0.000  0.010  0.027
    6  0.017  0.000  0.010  0.027
    7  0.008  0.000  0.011  0.018
    8  0.008  0.000  0.011  0.018
    9  0.000  0.037  0.000  0.037
   10  0.000  0.015  0.000  0.015
   11  0.000  0.017  0.000  0.017