<?xml version="1.0" encoding="ISO-8859-1"?>
<modeling>
 <generator>
  <i name="program" type="string">vasp </i>
  <i name="version" type="string">6.5.0  </i>
  <i name="subversion" type="string">16Dec24 (build Apr 17 2025 17:55:45) complex                          parallel </i>
  <i name="platform" type="string">LinuxIFC </i>
  <i name="date" type="string">2025 06 04 </i>
  <i name="time" type="string">11:04:17 </i>
 </generator>
 <incar>
  <i type="int" name="ISTART">     1</i>
  <i type="string" name="PREC">N</i>
  <i type="string" name="ALGO">N</i>
  <i type="int" name="ICHARG">    11</i>
  <i type="int" name="NELM">   500</i>
  <i type="int" name="IBRION">    -1</i>
  <i name="EDIFF">      0.00000100</i>
  <i name="EDIFFG">     -0.01000000</i>
  <i type="int" name="NSW">     0</i>
  <i type="int" name="ISIF">     3</i>
  <i name="SYMPREC">      0.00000100</i>
  <i name="ENCUT">    520.00000000</i>
  <i type="int" name="NEDOS">  1000</i>
  <i type="logical" name="LREAL"> F  </i>
  <i type="int" name="ISMEAR">     1</i>
  <i name="SIGMA">      0.10000000</i>
  <i type="int" name="LORBIT">    10</i>
  <i type="logical" name="LAECHG"> T  </i>
 </incar>
 <primitive_cell>
  <structure name="primitive_cell" >
   <crystal>
    <varray name="basis" >
     <v>       5.64528606       0.00000000       0.00000000 </v>
     <v>       0.00000000       5.64528606       0.00000000 </v>
     <v>       0.00000000       0.00000000       8.10998246 </v>
    </varray>
    <i name="volume">    258.45909678 </i>
    <varray name="rec_basis" >
     <v>       0.17713894       0.00000000       0.00000000 </v>
     <v>       0.00000000       0.17713894       0.00000000 </v>
     <v>       0.00000000       0.00000000       0.12330483 </v>
    </varray>
   </crystal>
   <varray name="positions" >
    <v>       0.00019716       0.00019716       0.00061719 </v>
    <v>       0.00019716       0.00019716       0.49938281 </v>
    <v>       0.00019716       0.49980284       0.00061719 </v>
    <v>       0.00019716       0.49980284       0.49938281 </v>
    <v>       0.49980284       0.00019716       0.00061719 </v>
    <v>       0.49980284       0.00019716       0.49938281 </v>
    <v>       0.49980284       0.49980284       0.00061719 </v>
    <v>       0.49980284       0.49980284       0.49938281 </v>
    <v>       0.25000000       0.25000000       0.25000000 </v>
    <v>       0.25000000       0.25000000       0.75000000 </v>
    <v>       0.25000000       0.75000000       0.25000000 </v>
    <v>       0.25000000       0.75000000       0.75000000 </v>
    <v>       0.75000000       0.25000000       0.25000000 </v>
    <v>       0.75000000       0.25000000       0.75000000 </v>
    <v>       0.75000000       0.75000000       0.25000000 </v>
    <v>       0.75000000       0.75000000       0.75000000 </v>
   </varray>
  </structure>
  <varray name="primitive_index" >
   <v type="int" >        1 </v>
   <v type="int" >        2 </v>
   <v type="int" >        3 </v>
   <v type="int" >        4 </v>
   <v type="int" >        5 </v>
   <v type="int" >        6 </v>
   <v type="int" >        7 </v>
   <v type="int" >        8 </v>
   <v type="int" >        9 </v>
   <v type="int" >       10 </v>
   <v type="int" >       11 </v>
   <v type="int" >       12 </v>
   <v type="int" >       13 </v>
   <v type="int" >       14 </v>
   <v type="int" >       15 </v>
   <v type="int" >       16 </v>
  </varray>
 </primitive_cell>
 <kpoints>
  <generation param="Gamma">
   <v type="int" name="divisions">       6        6        4 </v>
   <v name="usershift">      0.00000000       0.00000000       0.00000000 </v>
   <v name="genvec1">      0.16666667       0.00000000       0.00000000 </v>
   <v name="genvec2">      0.00000000       0.16666667       0.00000000 </v>
   <v name="genvec3">      0.00000000       0.00000000       0.25000000 </v>
   <v name="shift">      0.00000000       0.00000000       0.00000000 </v>
  </generation>
  <varray name="kpointlist" >
   <v>       0.00000000       0.00000000       0.00000000 </v>
   <v>       0.16666667       0.00000000       0.00000000 </v>
   <v>       0.33333333       0.00000000       0.00000000 </v>
   <v>       0.50000000       0.00000000       0.00000000 </v>
   <v>       0.16666667       0.16666667       0.00000000 </v>
   <v>       0.33333333       0.16666667       0.00000000 </v>
   <v>       0.50000000       0.16666667       0.00000000 </v>
   <v>       0.33333333       0.33333333       0.00000000 </v>
   <v>       0.50000000       0.33333333       0.00000000 </v>
   <v>       0.50000000       0.50000000       0.00000000 </v>
   <v>       0.00000000       0.00000000       0.25000000 </v>
   <v>       0.16666667       0.00000000       0.25000000 </v>
   <v>       0.33333333       0.00000000       0.25000000 </v>
   <v>       0.50000000       0.00000000       0.25000000 </v>
   <v>       0.16666667       0.16666667       0.25000000 </v>
   <v>       0.33333333       0.16666667       0.25000000 </v>
   <v>       0.50000000       0.16666667       0.25000000 </v>
   <v>       0.33333333       0.33333333       0.25000000 </v>
   <v>       0.50000000       0.33333333       0.25000000 </v>
   <v>       0.50000000       0.50000000       0.25000000 </v>
   <v>       0.00000000       0.00000000       0.50000000 </v>
   <v>       0.16666667       0.00000000       0.50000000 </v>
   <v>       0.33333333       0.00000000       0.50000000 </v>
   <v>       0.50000000       0.00000000       0.50000000 </v>
   <v>       0.16666667       0.16666667       0.50000000 </v>
   <v>       0.33333333       0.16666667       0.50000000 </v>
   <v>       0.50000000       0.16666667       0.50000000 </v>
   <v>       0.33333333       0.33333333       0.50000000 </v>
   <v>       0.50000000       0.33333333       0.50000000 </v>
   <v>       0.50000000       0.50000000       0.50000000 </v>
  </varray>
  <varray name="weights" >
   <v>       0.00694444 </v>
   <v>       0.02777778 </v>
   <v>       0.02777778 </v>
   <v>       0.01388889 </v>
   <v>       0.02777778 </v>
   <v>       0.05555556 </v>
   <v>       0.02777778 </v>
   <v>       0.02777778 </v>
   <v>       0.02777778 </v>
   <v>       0.00694444 </v>
   <v>       0.01388889 </v>
   <v>       0.05555556 </v>
   <v>       0.05555556 </v>
   <v>       0.02777778 </v>
   <v>       0.05555556 </v>
   <v>       0.11111111 </v>
   <v>       0.05555556 </v>
   <v>       0.05555556 </v>
   <v>       0.05555556 </v>
   <v>       0.01388889 </v>
   <v>       0.00694444 </v>
   <v>       0.02777778 </v>
   <v>       0.02777778 </v>
   <v>       0.01388889 </v>
   <v>       0.02777778 </v>
   <v>       0.05555556 </v>
   <v>       0.02777778 </v>
   <v>       0.02777778 </v>
   <v>       0.02777778 </v>
   <v>       0.00694444 </v>
  </varray>
 </kpoints>
 <parameters>
  <separator name="general" >
   <i type="string" name="SYSTEM">unknown system</i>
   <i type="logical" name="LCOMPAT"> F  </i>
  </separator>
  <separator name="electronic" >
   <i type="string" name="PREC">n</i>
   <i name="ENMAX">    520.00000000</i>
   <i name="ENAUG">    490.69000000</i>
   <i name="EDIFF">      0.00000100</i>
   <i type="int" name="IALGO">    38</i>
   <i type="int" name="IWAVPR">    10</i>
   <i type="int" name="NBANDS">   128</i>
   <i type="int" name="NBANDSLOW">    -1</i>
   <i type="int" name="NBANDSHIGH">    -1</i>
   <i name="NELECT">    130.00000000</i>
   <i type="int" name="TURBO">     0</i>
   <i type="int" name="IRESTART">     0</i>
   <i type="int" name="NREBOOT">     0</i>
   <i type="int" name="NMIN">     0</i>
   <i name="EREF">      0.00000000</i>
   <separator name="electronic smearing" >
    <i type="int" name="ISMEAR">     1</i>
    <i name="SIGMA">      0.10000000</i>
    <i name="KSPACING">      0.50000000</i>
    <i type="logical" name="KGAMMA"> T  </i>
    <i type="logical" name="KBLOWUP"> T  </i>
   </separator>
   <separator name="electronic projectors" >
    <i type="logical" name="LREAL"> F  </i>
    <v name="ROPT">      0.00000000      0.00000000      0.00000000</v>
    <i type="int" name="LMAXPAW">  -100</i>
    <i type="int" name="LMAXMIX">     2</i>
    <i type="logical" name="NLSPLINE"> F  </i>
   </separator>
   <separator name="electronic startup" >
    <i type="int" name="ISTART">     0</i>
    <i type="int" name="ICHARG">    11</i>
    <i type="int" name="INIWAV">     1</i>
   </separator>
   <separator name="electronic spin" >
    <i type="int" name="ISPIN">     1</i>
    <i type="logical" name="LNONCOLLINEAR"> F  </i>
    <v name="MAGMOM">      1.00000000      1.00000000      1.00000000      1.00000000      1.00000000      1.00000000      1.00000000      1.00000000      1.00000000      1.00000000      1.00000000      1.00000000      1.00000000      1.00000000      1.00000000      1.00000000</v>
    <i name="NUPDOWN">     -1.00000000</i>
    <i type="logical" name="LSORBIT"> F  </i>
    <v name="SAXIS">      0.00000000      0.00000000      1.00000000</v>
    <i type="logical" name="LSPIRAL"> F  </i>
    <v name="QSPIRAL">      0.00000000      0.00000000      0.00000000</v>
    <i type="logical" name="LZEROZ"> F  </i>
   </separator>
   <separator name="electronic exchange-correlation" >
    <i type="logical" name="LASPH"> F  </i>
   </separator>
   <separator name="electronic convergence" >
    <i type="int" name="NELM">   500</i>
    <i type="int" name="NELMDL">     0</i>
    <i type="int" name="NELMIN">     2</i>
    <i name="ENINI">    520.00000000</i>
    <separator name="electronic convergence detail" >
     <i type="logical" name="LDIAG"> T  </i>
     <i type="logical" name="LSUBROT"> F  </i>
     <i name="WEIMIN">      0.00000000</i>
     <i name="EBREAK">      0.00000000</i>
     <i name="DEPER">      0.30000000</i>
     <i type="int" name="NRMM">     4</i>
     <i name="TIME">      0.40000000</i>
    </separator>
   </separator>
   <separator name="electronic mixer" >
    <i name="AMIX">      0.40000000</i>
    <i name="BMIX">      1.00000000</i>
    <i name="AMIN">      0.10000000</i>
    <i name="AMIX_MAG">      1.60000000</i>
    <i name="BMIX_MAG">      1.00000000</i>
    <separator name="electronic mixer details" >
     <i type="int" name="IMIX">     4</i>
     <i type="logical" name="MIXFIRST"> F  </i>
     <i type="int" name="MAXMIX">   -45</i>
     <i name="WC">    100.00000000</i>
     <i type="int" name="INIMIX">     1</i>
     <i type="int" name="MIXPRE">     1</i>
     <i type="int" name="MREMOVE">     5</i>
    </separator>
   </separator>
   <separator name="electronic dipolcorrection" >
    <i type="logical" name="LDIPOL"> F  </i>
    <i type="logical" name="LMONO"> F  </i>
    <i type="int" name="IDIPOL">     0</i>
    <i name="EPSILON">      1.00000000</i>
    <v name="DIPOL">   -100.00000000   -100.00000000   -100.00000000</v>
    <i name="EFIELD">      0.00000000</i>
    <i type="logical" name="LVACPOTAV"> F  </i>
   </separator>
  </separator>
  <separator name="grids" >
   <i type="int" name="NGX">    32</i>
   <i type="int" name="NGY">    32</i>
   <i type="int" name="NGZ">    48</i>
   <i type="int" name="NGXF">    64</i>
   <i type="int" name="NGYF">    64</i>
   <i type="int" name="NGZF">    96</i>
   <i type="logical" name="ADDGRID"> F  </i>
  </separator>
  <separator name="ionic" >
   <i type="int" name="NSW">     0</i>
   <i type="int" name="IBRION">    -1</i>
   <i type="int" name="MDALGO">     0</i>
   <i type="int" name="ISIF">     3</i>
   <i name="PSTRESS">      0.00000000</i>
   <i name="EDIFFG">     -0.01000000</i>
   <i type="int" name="NFREE">     0</i>
   <i name="POTIM">      0.50000000</i>
   <i name="SMASS">     -3.00000000</i>
   <i name="SCALEE">      1.00000000</i>
  </separator>
  <separator name="ionic md" >
   <i name="TEBEG">      0.00010000</i>
   <i name="TEEND">      0.00010000</i>
   <i type="int" name="NBLOCK">     1</i>
   <i type="int" name="KBLOCK">     1</i>
   <i type="int" name="NPACO">   256</i>
   <i name="APACO">     10.00000000</i>
  </separator>
  <separator name="symmetry" >
   <i type="int" name="ISYM">     2</i>
   <i name="SYMPREC">      0.00000100</i>
  </separator>
  <separator name="dos" >
   <i type="int" name="LORBIT">    10</i>
   <v name="RWIGS">     -1.00000000     -1.00000000     -1.00000000</v>
   <i type="int" name="NEDOS">  1000</i>
   <i name="EMIN">     10.00000000</i>
   <i name="EMAX">    -10.00000000</i>
   <i name="EFERMI">      0.00000000</i>
  </separator>
  <separator name="writing" >
   <i type="int" name="NWRITE">     2</i>
   <i type="logical" name="LWAVE"> T  </i>
   <i type="logical" name="LDOWNSAMPLE"> F  </i>
   <i type="logical" name="LCHARG"> T  </i>
   <i type="logical" name="LPARD"> F  </i>
   <i type="logical" name="LVTOT"> F  </i>
   <i type="logical" name="LVHAR"> F  </i>
   <i type="logical" name="LELF"> F  </i>
   <i type="logical" name="LOPTICS"> F  </i>
   <v name="STM">      0.00000000      0.00000000      0.00000000      0.00000000      0.00000000      0.00000000      0.00000000</v>
  </separator>
  <separator name="performance" >
   <i type="int" name="NPAR">    64</i>
   <i type="int" name="NSIM">     4</i>
   <i type="int" name="NBLK">    -1</i>
   <i type="logical" name="LPLANE"> T  </i>
   <i type="logical" name="LSCALAPACK"> T  </i>
   <i type="logical" name="LSCAAWARE"> T  </i>
   <i type="logical" name="LSCALU"> F  </i>
   <i type="logical" name="LASYNC"> F  </i>
   <i type="logical" name="LORBITALREAL"> F  </i>
  </separator>
  <separator name="miscellaneous" >
   <i type="int" name="IDIOT">     3</i>
   <i type="int" name="PHON_NSTRUCT">    -1</i>
   <i type="logical" name="LMUSIC"> F  </i>
   <v name="POMASS">     47.88000000     69.72300000     26.98100000</v>
   <v name="DARWINR">      0.00000000      0.00000000      0.00000000</v>
   <v name="DARWINV">      1.00000000      1.00000000      1.00000000</v>
   <i type="logical" name="LCORR"> T  </i>
  </separator>
  <i type="logical" name="GGA_COMPAT"> T  </i>
  <i type="logical" name="LBERRY"> F  </i>
  <i type="int" name="ICORELEVEL">     0</i>
  <i type="logical" name="LDAU"> F  </i>
  <i type="int" name="I_CONSTRAINED_M">     0</i>
  <separator name="electronic exchange-correlation" >
   <i type="string" name="GGA    ">PE</i>
   <i type="string" name="XC_C">1</i>
   <i type="int" name="VOSKOWN">     0</i>
   <i type="logical" name="LHFCALC"> F  </i>
   <i type="string" name="PRECFOCK"></i>
   <i type="logical" name="LSYMGRAD"> F  </i>
   <i type="logical" name="LHFONE"> F  </i>
   <i type="logical" name="LRHFCALC"> F  </i>
   <i type="logical" name="LTHOMAS"> F  </i>
   <i type="logical" name="LMODELHF"> F  </i>
   <i type="logical" name="LFOCKACE"> F  </i>
   <i name="ENCUT4O">     -1.00000000</i>
   <i type="int" name="EXXOEP">     0</i>
   <i type="int" name="FOURORBIT">     0</i>
   <i name="AEXX">      0.00000000</i>
   <i name="HFALPHA">      0.00000000</i>
   <i name="MCALPHA">      0.00000000</i>
   <i name="ALDAX">      1.00000000</i>
   <i name="AGGAX">      1.00000000</i>
   <i name="AMGGAX">      1.00000000</i>
   <i name="ALDAC">      1.00000000</i>
   <i name="AGGAC">      1.00000000</i>
   <i name="AMGGAC">      1.00000000</i>
   <i type="int" name="NKREDX">     1</i>
   <i type="int" name="NKREDY">     1</i>
   <i type="int" name="NKREDZ">     1</i>
   <i type="logical" name="SHIFTRED"> F  </i>
   <i type="logical" name="ODDONLY"> F  </i>
   <i type="logical" name="EVENONLY"> F  </i>
   <i type="int" name="LMAXFOCK">     0</i>
   <i type="int" name="NMAXFOCKAE">     0</i>
   <i type="logical" name="LFOCKAEDFT"> F  </i>
   <i name="HFSCREEN">      0.00000000</i>
   <i name="HFSCREENC">      0.00000000</i>
   <i type="int" name="NBANDSGWLOW">     0</i>
  </separator>
  <separator name="vdW DFT" >
   <i type="logical" name="LUSE_VDW"> F  </i>
   <i type="int" name="IVDW_NL">    -1</i>
   <i type="logical" name="LSPIN_VDW"> F  </i>
   <i name="ZAB_VDW">     -0.84910000</i>
   <i name="GAMMA_VDW">      1.39626340</i>
   <i name="ALPHA_VDW">      0.00000000</i>
   <i name="PARAM1">      0.12340000</i>
   <i name="PARAM2">      1.00000000</i>
   <i name="BPARAM">      6.30000000</i>
   <i name="CPARAM">      0.00930000</i>
  </separator>
  <separator name="model GW" >
   <i type="int" name="MODEL_GW">     0</i>
   <i name="MODEL_EPS0">      9.69221613</i>
   <i name="MODEL_ALPHA">      1.00000000</i>
  </separator>
  <separator name="linear response parameters" >
   <i type="logical" name="LEPSILON"> F  </i>
   <i type="logical" name="LRPA"> F  </i>
   <i type="logical" name="LNABLA"> F  </i>
   <i type="logical" name="LVEL"> F  </i>
   <i name="CSHIFT">      0.10000000</i>
   <i name="OMEGAMAX">     -1.00000000</i>
   <i name="DEG_THRESHOLD">      0.00200000</i>
   <i name="RTIME">     -0.10000000</i>
   <i name="WPLASMAI">      0.00000000</i>
   <v name="DFIELD">      0.00000000      0.00000000      0.00000000</v>
   <v name="WPLASMA">      0.00000000      0.00000000      0.00000000      0.00000000      0.00000000      0.00000000      0.00000000      0.00000000      0.00000000</v>
  </separator>
  <separator name="orbital magnetization" >
   <i type="logical" name="NUCIND"> F  </i>
   <v name="MAGPOS">      0.00000000      0.00000000      0.00000000</v>
   <i type="logical" name="LNICSALL"> T  </i>
   <i type="logical" name="ORBITALMAG"> F  </i>
   <i type="logical" name="LMAGBLOCH"> F  </i>
   <i type="logical" name="LCHIMAG"> F  </i>
   <i type="logical" name="LGAUGE"> T  </i>
   <i type="int" name="MAGATOM">     0</i>
   <v name="MAGDIPOL">      0.00000000      0.00000000      0.00000000</v>
   <v name="AVECCONST">      0.00000000      0.00000000      0.00000000</v>
  </separator>
  <separator name="response functions" >
   <i type="logical" name="LALL_IN_ONE"> F  </i>
   <i type="int" name="IALL_IN_ONE">    -1</i>
   <i type="int" name="NBANDS_WAVE">    -1</i>
   <i type="logical" name="LFINITE_TEMPERATURE"> F  </i>
   <i type="logical" name="LADDER"> F  </i>
   <i type="logical" name="LRPAFORCE"> F  </i>
   <i type="logical" name="LFXC"> F  </i>
   <i type="logical" name="LHARTREE"> T  </i>
   <i type="int" name="IBSE">     2</i>
   <v type="int" name="KPOINT">    -1     0     0     0</v>
   <i type="logical" name="LTCTC"> F  </i>
   <i type="logical" name="LTCTE"> F  </i>
   <i type="logical" name="LTETE"> F  </i>
   <i type="logical" name="LTRIPLET"> F  </i>
   <i type="logical" name="LFXCEPS"> F  </i>
   <i type="logical" name="LFXHEG"> F  </i>
   <i type="int" name="NATURALO">     2</i>
   <i type="logical" name="LHOLEGF"> F  </i>
   <i type="logical" name="L2ORDER"> F  </i>
   <i type="logical" name="LDMP1"> F  </i>
   <i type="logical" name="LMP2LT"> F  </i>
   <i type="logical" name="LSMP2LT"> F  </i>
   <i type="logical" name="LGWLF"> F  </i>
   <i name="ENCUTGW">     -1.60000002</i>
   <i name="ENCUTGWSOFT">     -1.60000002</i>
   <i name="ENCUTLF">     -1.00000000</i>
   <i type="logical" name="ESF_SPLINES"> F  </i>
   <i name="ESF_CONV">      0.01000000</i>
   <i type="int" name="ESF_NINTER">    15</i>
   <i type="int" name="LMAXMP2">    -1</i>
   <i name="SCISSOR">      0.00000000</i>
   <i type="int" name="NOMEGA">     0</i>
   <i type="int" name="NOMEGAR">     0</i>
   <i type="int" name="NBANDSGW">    -1</i>
   <i type="int" name="NBANDSO">    -1</i>
   <i type="int" name="NBANDSV">    -1</i>
   <i type="int" name="NELMGW">     1</i>
   <i type="int" name="NELMHF">     1</i>
   <i type="int" name="DIM">     3</i>
   <i type="int" name="IESPILON">     4</i>
   <i type="int" name="ANTIRES">     0</i>
   <i name="OMEGAMAX">    -30.00000000</i>
   <i name="OMEGAMIN">    -30.00000000</i>
   <i name="OMEGATL">   -200.00000000</i>
   <i type="int" name="OMEGAGRID">     0</i>
   <i name="CSHIFT">     -0.10000000</i>
   <i type="logical" name="LSELFENERGY"> F  </i>
   <i type="logical" name="LSPECTRAL"> F  </i>
   <i type="logical" name="LSPECTRALGW"> F  </i>
   <i type="logical" name="LSINGLES"> F  </i>
   <i type="logical" name="LFERMIGW"> F  </i>
   <i type="logical" name="ODDONLYGW"> F  </i>
   <i type="logical" name="EVENONLYGW"> F  </i>
   <i type="int" name="NKREDLFX">     1</i>
   <i type="int" name="NKREDLFY">     1</i>
   <i type="int" name="NKREDLFZ">     1</i>
   <i type="int" name="MAXMEM">  2800</i>
   <i type="int" name="TELESCOPE">     0</i>
   <i type="int" name="NTAUPAR">    -1</i>
   <i type="int" name="NOMEGAPAR">    -1</i>
   <i name="DAMP_NEWTON">      0.80000001</i>
   <i name="LAMBDA">      1.00000000</i>
  </separator>
  <separator name="External order field" >
   <i name="OFIELD_KAPPA">      0.00000000</i>
   <v name="OFIELD_K">      0.00000000      0.00000000      0.00000000</v>
   <i name="OFIELD_Q6_NEAR">      0.00000000</i>
   <i name="OFIELD_Q6_FAR">      0.00000000</i>
   <i name="OFIELD_A">      0.00000000</i>
  </separator>
  <separator name="optional k-points parameters" >
   <i type="int" name="KPOINTS_OPT_MODE">     1</i>
   <i type="logical" name="LKPOINTS_OPT"> F  </i>
  </separator>
 </parameters>
 <atominfo>
  <atoms>      16 </atoms>
  <types>       3 </types>
  <array name="atoms" >
   <dimension dim="1">ion</dimension>
   <field type="string">element</field>
   <field type="int">atomtype</field>
   <set>
    <rc><c>Ti</c><c>   1</c></rc>
    <rc><c>Ti</c><c>   1</c></rc>
    <rc><c>Ti</c><c>   1</c></rc>
    <rc><c>Ti</c><c>   1</c></rc>
    <rc><c>Ti</c><c>   1</c></rc>
    <rc><c>Ti</c><c>   1</c></rc>
    <rc><c>Ti</c><c>   1</c></rc>
    <rc><c>Ti</c><c>   1</c></rc>
    <rc><c>Ga</c><c>   2</c></rc>
    <rc><c>Al</c><c>   3</c></rc>
    <rc><c>Al</c><c>   3</c></rc>
    <rc><c>Al</c><c>   3</c></rc>
    <rc><c>Al</c><c>   3</c></rc>
    <rc><c>Al</c><c>   3</c></rc>
    <rc><c>Al</c><c>   3</c></rc>
    <rc><c>Al</c><c>   3</c></rc>
   </set>
  </array>
  <array name="atomtypes" >
   <dimension dim="1">type</dimension>
   <field type="int">atomspertype</field>
   <field type="string">element</field>
   <field>mass</field>
   <field>valence</field>
   <field type="string">pseudopotential</field>
   <set>
    <rc><c>   8</c><c>Ti</c><c>     47.88000000</c><c>     12.00000000</c><c>  PAW_PBE Ti_sv 26Sep2005               </c></rc>
    <rc><c>   1</c><c>Ga</c><c>     69.72300000</c><c>     13.00000000</c><c>  PAW_PBE Ga_d 06Jul2010                </c></rc>
    <rc><c>   7</c><c>Al</c><c>     26.98100000</c><c>      3.00000000</c><c>  PAW_PBE Al 04Jan2001                  </c></rc>
   </set>
  </array>
 </atominfo>
 <structure name="initialpos" >
  <crystal>
   <varray name="basis" >
    <v>       5.64528606       0.00000000       0.00000000 </v>
    <v>       0.00000000       5.64528606       0.00000000 </v>
    <v>       0.00000000       0.00000000       8.10998246 </v>
   </varray>
   <i name="volume">    258.45909678 </i>
   <varray name="rec_basis" >
    <v>       0.17713894       0.00000000       0.00000000 </v>
    <v>       0.00000000       0.17713894       0.00000000 </v>
    <v>       0.00000000       0.00000000       0.12330483 </v>
   </varray>
  </crystal>
  <varray name="positions" >
   <v>       0.00019716       0.00019716       0.00061719 </v>
   <v>       0.00019716       0.00019716       0.49938281 </v>
   <v>       0.00019716       0.49980284       0.00061719 </v>
   <v>       0.00019716       0.49980284       0.49938281 </v>
   <v>       0.49980284       0.00019716       0.00061719 </v>
   <v>       0.49980284       0.00019716       0.49938281 </v>
   <v>       0.49980284       0.49980284       0.00061719 </v>
   <v>       0.49980284       0.49980284       0.49938281 </v>
   <v>       0.25000000       0.25000000       0.25000000 </v>
   <v>       0.25000000       0.25000000       0.75000000 </v>
   <v>       0.25000000       0.75000000       0.25000000 </v>
   <v>       0.25000000       0.75000000       0.75000000 </v>
   <v>       0.75000000       0.25000000       0.25000000 </v>
   <v>       0.75000000       0.25000000       0.75000000 </v>
   <v>       0.75000000       0.75000000       0.25000000 </v>
   <v>       0.75000000       0.75000000       0.75000000 </v>
  </varray>
 </structure>
 <calculation>
  <scstep>
   <time name="dav">    3.78    3.78</time>
   <time name="total">    3.80    3.80</time>
   <energy>
    <i name="alphaZ">    381.68433306 </i>
    <i name="ewald">  -9869.40651717 </i>
    <i name="hartreedc">  -4556.37201821 </i>
    <i name="XCdc">    349.49089358 </i>
    <i name="pawpsdc">  14886.21537697 </i>
    <i name="pawaedc"> -14813.91545696 </i>
    <i name="eentropy">     -0.00192735 </i>
    <i name="bandstr">   -604.01436852 </i>
    <i name="atom">  15228.27630495 </i>
    <i name="e_fr_energy">   1001.95662034 </i>
    <i name="e_wo_entrp">   1001.95854769 </i>
    <i name="e_0_energy">   1001.95726279 </i>
   </energy>
  </scstep>
  <scstep>
   <time name="dav">    3.78    3.78</time>
   <time name="total">    3.78    3.78</time>
   <energy>
    <i name="e_fr_energy">    -12.07271496 </i>
    <i name="e_wo_entrp">    -12.07688991 </i>
    <i name="e_0_energy">    -12.07410661 </i>
   </energy>
  </scstep>
  <scstep>
   <time name="dav">   11.47   11.47</time>
   <time name="total">   11.47   11.47</time>
   <energy>
    <i name="e_fr_energy">    -95.84106780 </i>
    <i name="e_wo_entrp">    -95.84457837 </i>
    <i name="e_0_energy">    -95.84223799 </i>
   </energy>
  </scstep>
  <scstep>
   <time name="dav">    3.75    3.75</time>
   <time name="total">    3.75    3.75</time>
   <energy>
    <i name="e_fr_energy">    -98.40053965 </i>
    <i name="e_wo_entrp">    -98.40440091 </i>
    <i name="e_0_energy">    -98.40182674 </i>
   </energy>
  </scstep>
  <scstep>
   <time name="dav">    8.15    8.15</time>
   <time name="total">    8.15    8.15</time>
   <energy>
    <i name="e_fr_energy">    -98.45988072 </i>
    <i name="e_wo_entrp">    -98.46375005 </i>
    <i name="e_0_energy">    -98.46117049 </i>
   </energy>
  </scstep>
  <scstep>
   <time name="dav">    5.37    5.37</time>
   <time name="total">    5.37    5.37</time>
   <energy>
    <i name="e_fr_energy">    -98.46103240 </i>
    <i name="e_wo_entrp">    -98.46490167 </i>
    <i name="e_0_energy">    -98.46232216 </i>
   </energy>
  </scstep>
  <scstep>
   <time name="dav">    8.75    8.75</time>
   <time name="total">    8.75    8.75</time>
   <energy>
    <i name="e_fr_energy">    -98.46108545 </i>
    <i name="e_wo_entrp">    -98.46495471 </i>
    <i name="e_0_energy">    -98.46237520 </i>
   </energy>
  </scstep>
  <scstep>
   <time name="dav">    4.82    4.83</time>
   <time name="total">    4.83    4.83</time>
   <energy>
    <i name="alphaZ">    381.68433306 </i>
    <i name="ewald">  -9869.40651717 </i>
    <i name="hartreedc">  -4556.37201821 </i>
    <i name="XCdc">    349.49089358 </i>
    <i name="pawpsdc">  14886.21537697 </i>
    <i name="pawaedc"> -14813.91545696 </i>
    <i name="eentropy">      0.00386926 </i>
    <i name="bandstr">  -1704.43787167 </i>
    <i name="atom">  15228.27630495 </i>
    <i name="e_fr_energy">    -98.46108620 </i>
    <i name="e_wo_entrp">    -98.46495546 </i>
    <i name="e_0_energy">    -98.46237596 </i>
   </energy>
  </scstep>
  <structure>
   <crystal>
    <varray name="basis" >
     <v>       5.64528606       0.00000000       0.00000000 </v>
     <v>       0.00000000       5.64528606       0.00000000 </v>
     <v>       0.00000000       0.00000000       8.10998246 </v>
    </varray>
    <i name="volume">    258.45909678 </i>
    <varray name="rec_basis" >
     <v>       0.17713894       0.00000000       0.00000000 </v>
     <v>       0.00000000       0.17713894       0.00000000 </v>
     <v>       0.00000000       0.00000000       0.12330483 </v>
    </varray>
   </crystal>
   <varray name="positions" >
    <v>       0.00019716       0.00019716       0.00061719 </v>
    <v>       0.00019716       0.00019716       0.49938281 </v>
    <v>       0.00019716       0.49980284       0.00061719 </v>
    <v>       0.00019716       0.49980284       0.49938281 </v>
    <v>       0.49980284       0.00019716       0.00061719 </v>
    <v>       0.49980284       0.00019716       0.49938281 </v>
    <v>       0.49980284       0.49980284       0.00061719 </v>
    <v>       0.49980284       0.49980284       0.49938281 </v>
    <v>       0.25000000       0.25000000       0.25000000 </v>
    <v>       0.25000000       0.25000000       0.75000000 </v>
    <v>       0.25000000       0.75000000       0.25000000 </v>
    <v>       0.25000000       0.75000000       0.75000000 </v>
    <v>       0.75000000       0.25000000       0.25000000 </v>
    <v>       0.75000000       0.25000000       0.75000000 </v>
    <v>       0.75000000       0.75000000       0.25000000 </v>
    <v>       0.75000000       0.75000000       0.75000000 </v>
   </varray>
  </structure>
  <varray name="forces" >
   <v>       0.00068122       0.00068122       0.00750206 </v>
   <v>       0.00068122       0.00068122      -0.00750206 </v>
   <v>       0.00068122      -0.00068122       0.00750206 </v>
   <v>       0.00068122      -0.00068122      -0.00750206 </v>
   <v>      -0.00068122       0.00068122       0.00750206 </v>
   <v>      -0.00068122       0.00068122      -0.00750206 </v>
   <v>      -0.00068122      -0.00068122       0.00750206 </v>
   <v>      -0.00068122      -0.00068122      -0.00750206 </v>
   <v>       0.00000000      -0.00000000      -0.00000000 </v>
   <v>       0.00000000      -0.00000000      -0.00000000 </v>
   <v>       0.00000000      -0.00000000       0.00000000 </v>
   <v>       0.00000000      -0.00000000       0.00000000 </v>
   <v>       0.00000000      -0.00000000      -0.00000000 </v>
   <v>       0.00000000      -0.00000000      -0.00000000 </v>
   <v>       0.00000000      -0.00000000      -0.00000000 </v>
   <v>       0.00000000      -0.00000000      -0.00000000 </v>
  </varray>
  <varray name="stress" >
   <v>       1.88282944       0.00000000       0.00000000 </v>
   <v>      -0.00000000       1.88282944      -0.00000000 </v>
   <v>      -0.00000000       0.00000000       3.47054452 </v>
  </varray>
  <energy>
   <i name="e_fr_energy">    -98.46108620 </i>
   <i name="e_wo_entrp">    -98.46495546 </i>
   <i name="e_0_energy">    -98.46237596 </i>
  </energy>
  <time name="totalsc">   54.31   54.32</time>
  <eigenvalues>
   <array>
    <dimension dim="1">band</dimension>
    <dimension dim="2">kpoint</dimension>
    <dimension dim="3">spin</dimension>
    <field>eigene</field>
    <field>occ</field>
    <set>
     <set comment="spin 1">
      <set comment="kpoint 1">
       <r>  -48.3377    1.0000 </r>
       <r>  -48.3371    1.0000 </r>
       <r>  -48.2796    1.0000 </r>
       <r>  -48.2796    1.0000 </r>
       <r>  -48.2791    1.0000 </r>
       <r>  -48.2791    1.0000 </r>
       <r>  -48.2236    1.0000 </r>
       <r>  -48.2232    1.0000 </r>
       <r>  -24.7705    1.0000 </r>
       <r>  -24.7668    1.0000 </r>
       <r>  -24.7582    1.0000 </r>
       <r>  -24.7555    1.0000 </r>
       <r>  -24.7533    1.0000 </r>
       <r>  -24.7363    1.0000 </r>
       <r>  -24.6980    1.0000 </r>
       <r>  -24.6980    1.0000 </r>
       <r>  -24.6953    1.0000 </r>
       <r>  -24.6953    1.0000 </r>
       <r>  -24.6901    1.0000 </r>
       <r>  -24.6901    1.0000 </r>
       <r>  -24.6787    1.0000 </r>
       <r>  -24.6787    1.0000 </r>
       <r>  -24.6370    1.0000 </r>
       <r>  -24.6261    1.0000 </r>
       <r>  -24.2878    1.0000 </r>
       <r>  -24.2878    1.0000 </r>
       <r>  -24.2873    1.0000 </r>
       <r>  -24.2873    1.0000 </r>
       <r>  -24.2514    1.0000 </r>
       <r>  -24.2508    1.0000 </r>
       <r>  -24.2406    1.0000 </r>
       <r>  -24.2399    1.0000 </r>
       <r>   -6.1328    1.0000 </r>
       <r>   -6.1133    1.0000 </r>
       <r>   -6.0903    1.0000 </r>
       <r>   -6.0903    1.0000 </r>
       <r>   -6.0632    1.0000 </r>
       <r>   -0.9051    1.0000 </r>
       <r>    0.5714    1.0000 </r>
       <r>    2.9183    1.0000 </r>
       <r>    3.0201    1.0000 </r>
       <r>    3.4287    1.0000 </r>
       <r>    3.6082    1.0000 </r>
       <r>    3.7449    1.0000 </r>
       <r>    3.7449    1.0000 </r>
       <r>    3.7833    1.0000 </r>
       <r>    5.0722    1.0000 </r>
       <r>    5.3469    1.0000 </r>
       <r>    5.3469    1.0000 </r>
       <r>    5.7756    1.0000 </r>
       <r>    6.0063    1.0000 </r>
       <r>    6.0063    1.0000 </r>
       <r>    6.4768    1.0000 </r>
       <r>    6.5804    1.0000 </r>
       <r>    6.6019    1.0000 </r>
       <r>    7.1165    1.0000 </r>
       <r>    7.1399    1.0000 </r>
       <r>    7.1399    1.0000 </r>
       <r>    7.1468    1.0000 </r>
       <r>    7.4581    1.0000 </r>
       <r>    7.6120    1.0000 </r>
       <r>    7.8006    1.0000 </r>
       <r>    7.8006    1.0000 </r>
       <r>    7.9552    1.0000 </r>
       <r>    7.9811    1.0000 </r>
       <r>    8.0385    1.0010 </r>
       <r>    8.0385    1.0010 </r>
       <r>    8.1432    1.0279 </r>
       <r>    8.1432    1.0279 </r>
       <r>    8.9467   -0.0000 </r>
       <r>    9.7093   -0.0000 </r>
       <r>    9.7093   -0.0000 </r>
       <r>    9.7813   -0.0000 </r>
       <r>   10.0419   -0.0000 </r>
       <r>   10.0419   -0.0000 </r>
       <r>   10.0838   -0.0000 </r>
       <r>   10.0838   -0.0000 </r>
       <r>   10.1095   -0.0000 </r>
       <r>   10.1095   -0.0000 </r>
       <r>   10.4274    0.0000 </r>
       <r>   10.4624    0.0000 </r>
       <r>   10.4624    0.0000 </r>
       <r>   10.5756    0.0000 </r>
       <r>   10.5950    0.0000 </r>
       <r>   10.8018    0.0000 </r>
       <r>   10.8032    0.0000 </r>
       <r>   11.2225    0.0000 </r>
       <r>   11.6112    0.0000 </r>
       <r>   11.6221    0.0000 </r>
       <r>   11.9768    0.0000 </r>
       <r>   12.1414    0.0000 </r>
       <r>   12.4743    0.0000 </r>
       <r>   12.4766    0.0000 </r>
       <r>   12.5904    0.0000 </r>
       <r>   12.5904    0.0000 </r>
       <r>   12.6121    0.0000 </r>
       <r>   12.6121    0.0000 </r>
       <r>   13.0867    0.0000 </r>
       <r>   13.3200    0.0000 </r>
       <r>   13.3200    0.0000 </r>
       <r>   13.6267    0.0000 </r>
       <r>   13.6267    0.0000 </r>
       <r>   13.7079    0.0000 </r>
       <r>   13.7813    0.0000 </r>
       <r>   14.0441    0.0000 </r>
       <r>   14.0441    0.0000 </r>
       <r>   14.2648    0.0000 </r>
       <r>   14.5454    0.0000 </r>
       <r>   14.7444    0.0000 </r>
       <r>   16.2541    0.0000 </r>
       <r>   16.3119    0.0000 </r>
       <r>   16.4799    0.0000 </r>
       <r>   16.5854    0.0000 </r>
       <r>   16.6257    0.0000 </r>
       <r>   16.6257    0.0000 </r>
       <r>   17.8253    0.0000 </r>
       <r>   17.9512    0.0000 </r>
       <r>   18.6678    0.0000 </r>
       <r>   18.6678    0.0000 </r>
       <r>   19.0169    0.0000 </r>
       <r>   19.0169    0.0000 </r>
       <r>   19.4048    0.0000 </r>
       <r>   19.4048    0.0000 </r>
       <r>   19.9649    0.0000 </r>
       <r>   20.5197    0.0000 </r>
       <r>   20.5198    0.0000 </r>
       <r>   20.6870    0.0000 </r>
       <r>   20.6871    0.0000 </r>
      </set>
      <set comment="kpoint 2">
       <r>  -48.3339    1.0000 </r>
       <r>  -48.3333    1.0000 </r>
       <r>  -48.2835    1.0000 </r>
       <r>  -48.2830    1.0000 </r>
       <r>  -48.2759    1.0000 </r>
       <r>  -48.2754    1.0000 </r>
       <r>  -48.2274    1.0000 </r>
       <r>  -48.2269    1.0000 </r>
       <r>  -24.7617    1.0000 </r>
       <r>  -24.7580    1.0000 </r>
       <r>  -24.7496    1.0000 </r>
       <r>  -24.7340    1.0000 </r>
       <r>  -24.7311    1.0000 </r>
       <r>  -24.7274    1.0000 </r>
       <r>  -24.7025    1.0000 </r>
       <r>  -24.6997    1.0000 </r>
       <r>  -24.6944    1.0000 </r>
       <r>  -24.6891    1.0000 </r>
       <r>  -24.6826    1.0000 </r>
       <r>  -24.6770    1.0000 </r>
       <r>  -24.6659    1.0000 </r>
       <r>  -24.6640    1.0000 </r>
       <r>  -24.6408    1.0000 </r>
       <r>  -24.6297    1.0000 </r>
       <r>  -24.3206    1.0000 </r>
       <r>  -24.3199    1.0000 </r>
       <r>  -24.2850    1.0000 </r>
       <r>  -24.2845    1.0000 </r>
       <r>  -24.2779    1.0000 </r>
       <r>  -24.2772    1.0000 </r>
       <r>  -24.2478    1.0000 </r>
       <r>  -24.2471    1.0000 </r>
       <r>   -6.1321    1.0000 </r>
       <r>   -6.1134    1.0000 </r>
       <r>   -6.0905    1.0000 </r>
       <r>   -6.0903    1.0000 </r>
       <r>   -6.0628    1.0000 </r>
       <r>   -0.7706    1.0000 </r>
       <r>    0.6673    1.0000 </r>
       <r>    2.3035    1.0000 </r>
       <r>    2.8250    1.0000 </r>
       <r>    3.1737    1.0000 </r>
       <r>    3.3952    1.0000 </r>
       <r>    3.7421    1.0000 </r>
       <r>    3.8817    1.0000 </r>
       <r>    4.9347    1.0000 </r>
       <r>    5.1175    1.0000 </r>
       <r>    5.3964    1.0000 </r>
       <r>    5.6608    1.0000 </r>
       <r>    5.8511    1.0000 </r>
       <r>    5.8846    1.0000 </r>
       <r>    5.9740    1.0000 </r>
       <r>    6.1855    1.0000 </r>
       <r>    6.5870    1.0000 </r>
       <r>    6.6572    1.0000 </r>
       <r>    6.6791    1.0000 </r>
       <r>    6.7869    1.0000 </r>
       <r>    7.0172    1.0000 </r>
       <r>    7.3493    1.0000 </r>
       <r>    7.5090    1.0000 </r>
       <r>    7.6863    1.0000 </r>
       <r>    7.8210    1.0000 </r>
       <r>    7.8449    1.0000 </r>
       <r>    7.8850    1.0000 </r>
       <r>    7.9395    1.0000 </r>
       <r>    8.0057    1.0002 </r>
       <r>    8.1900    1.0276 </r>
       <r>    8.2559    0.7883 </r>
       <r>    8.9017   -0.0000 </r>
       <r>    9.0002   -0.0000 </r>
       <r>    9.6929   -0.0000 </r>
       <r>    9.7534   -0.0000 </r>
       <r>    9.7758   -0.0000 </r>
       <r>    9.8126   -0.0000 </r>
       <r>   10.1147   -0.0000 </r>
       <r>   10.1280   -0.0000 </r>
       <r>   10.1931   -0.0000 </r>
       <r>   10.2438   -0.0000 </r>
       <r>   10.2543   -0.0000 </r>
       <r>   10.3701    0.0000 </r>
       <r>   10.4466    0.0000 </r>
       <r>   10.4940    0.0000 </r>
       <r>   10.5292    0.0000 </r>
       <r>   10.5524    0.0000 </r>
       <r>   10.6204    0.0000 </r>
       <r>   10.7787    0.0000 </r>
       <r>   10.9449    0.0000 </r>
       <r>   11.4007    0.0000 </r>
       <r>   11.4757    0.0000 </r>
       <r>   11.4996    0.0000 </r>
       <r>   12.0255    0.0000 </r>
       <r>   12.2250    0.0000 </r>
       <r>   12.2682    0.0000 </r>
       <r>   12.3238    0.0000 </r>
       <r>   12.3275    0.0000 </r>
       <r>   12.5865    0.0000 </r>
       <r>   13.2030    0.0000 </r>
       <r>   13.3280    0.0000 </r>
       <r>   13.3778    0.0000 </r>
       <r>   13.4385    0.0000 </r>
       <r>   13.9274    0.0000 </r>
       <r>   13.9426    0.0000 </r>
       <r>   13.9929    0.0000 </r>
       <r>   14.0986    0.0000 </r>
       <r>   14.1792    0.0000 </r>
       <r>   14.2423    0.0000 </r>
       <r>   14.4705    0.0000 </r>
       <r>   14.5177    0.0000 </r>
       <r>   14.8554    0.0000 </r>
       <r>   15.0965    0.0000 </r>
       <r>   15.9039    0.0000 </r>
       <r>   16.2034    0.0000 </r>
       <r>   16.8069    0.0000 </r>
       <r>   16.9061    0.0000 </r>
       <r>   17.0252    0.0000 </r>
       <r>   17.8956    0.0000 </r>
       <r>   18.1527    0.0000 </r>
       <r>   18.6091    0.0000 </r>
       <r>   18.8240    0.0000 </r>
       <r>   18.8881    0.0000 </r>
       <r>   19.0677    0.0000 </r>
       <r>   19.2534    0.0000 </r>
       <r>   19.2744    0.0000 </r>
       <r>   19.4757    0.0000 </r>
       <r>   19.5823    0.0000 </r>
       <r>   19.9197    0.0000 </r>
       <r>   20.0593    0.0000 </r>
       <r>   20.0747    0.0000 </r>
      </set>
      <set comment="kpoint 3">
       <r>  -48.3233    1.0000 </r>
       <r>  -48.3227    1.0000 </r>
       <r>  -48.2942    1.0000 </r>
       <r>  -48.2937    1.0000 </r>
       <r>  -48.2657    1.0000 </r>
       <r>  -48.2652    1.0000 </r>
       <r>  -48.2377    1.0000 </r>
       <r>  -48.2372    1.0000 </r>
       <r>  -24.7485    1.0000 </r>
       <r>  -24.7451    1.0000 </r>
       <r>  -24.7380    1.0000 </r>
       <r>  -24.7223    1.0000 </r>
       <r>  -24.7148    1.0000 </r>
       <r>  -24.7119    1.0000 </r>
       <r>  -24.7061    1.0000 </r>
       <r>  -24.6933    1.0000 </r>
       <r>  -24.6787    1.0000 </r>
       <r>  -24.6664    1.0000 </r>
       <r>  -24.6509    1.0000 </r>
       <r>  -24.6468    1.0000 </r>
       <r>  -24.6445    1.0000 </r>
       <r>  -24.6395    1.0000 </r>
       <r>  -24.5855    1.0000 </r>
       <r>  -24.5843    1.0000 </r>
       <r>  -24.4093    1.0000 </r>
       <r>  -24.4081    1.0000 </r>
       <r>  -24.3609    1.0000 </r>
       <r>  -24.3601    1.0000 </r>
       <r>  -24.2774    1.0000 </r>
       <r>  -24.2768    1.0000 </r>
       <r>  -24.2562    1.0000 </r>
       <r>  -24.2556    1.0000 </r>
       <r>   -6.1308    1.0000 </r>
       <r>   -6.1137    1.0000 </r>
       <r>   -6.0907    1.0000 </r>
       <r>   -6.0902    1.0000 </r>
       <r>   -6.0621    1.0000 </r>
       <r>   -0.3759    1.0000 </r>
       <r>    0.9080    1.0000 </r>
       <r>    1.2872    1.0000 </r>
       <r>    2.1368    1.0000 </r>
       <r>    3.6195    1.0000 </r>
       <r>    3.6533    1.0000 </r>
       <r>    3.9730    1.0000 </r>
       <r>    4.2822    1.0000 </r>
       <r>    4.6319    1.0000 </r>
       <r>    4.9766    1.0000 </r>
       <r>    5.2006    1.0000 </r>
       <r>    5.5265    1.0000 </r>
       <r>    5.7757    1.0000 </r>
       <r>    5.8784    1.0000 </r>
       <r>    6.0660    1.0000 </r>
       <r>    6.4437    1.0000 </r>
       <r>    6.7278    1.0000 </r>
       <r>    6.8670    1.0000 </r>
       <r>    6.8710    1.0000 </r>
       <r>    6.9046    1.0000 </r>
       <r>    6.9369    1.0000 </r>
       <r>    7.5345    1.0000 </r>
       <r>    7.5950    1.0000 </r>
       <r>    7.6528    1.0000 </r>
       <r>    7.6789    1.0000 </r>
       <r>    7.8760    1.0000 </r>
       <r>    7.9568    1.0000 </r>
       <r>    8.1287    1.0213 </r>
       <r>    8.1579    1.0335 </r>
       <r>    8.5857   -0.0001 </r>
       <r>    8.6076   -0.0000 </r>
       <r>    9.0776   -0.0000 </r>
       <r>    9.1551   -0.0000 </r>
       <r>    9.2148   -0.0000 </r>
       <r>    9.3994   -0.0000 </r>
       <r>    9.5946   -0.0000 </r>
       <r>    9.7604   -0.0000 </r>
       <r>    9.8784   -0.0000 </r>
       <r>   10.0783   -0.0000 </r>
       <r>   10.2025   -0.0000 </r>
       <r>   10.2868   -0.0000 </r>
       <r>   10.3706    0.0000 </r>
       <r>   10.4182    0.0000 </r>
       <r>   10.4386    0.0000 </r>
       <r>   10.4475    0.0000 </r>
       <r>   10.5493    0.0000 </r>
       <r>   10.5964    0.0000 </r>
       <r>   10.6067    0.0000 </r>
       <r>   10.7160    0.0000 </r>
       <r>   11.0400    0.0000 </r>
       <r>   11.1385    0.0000 </r>
       <r>   11.1502    0.0000 </r>
       <r>   11.1837    0.0000 </r>
       <r>   11.7359    0.0000 </r>
       <r>   11.7508    0.0000 </r>
       <r>   12.0401    0.0000 </r>
       <r>   12.1765    0.0000 </r>
       <r>   12.4173    0.0000 </r>
       <r>   12.4966    0.0000 </r>
       <r>   12.7614    0.0000 </r>
       <r>   13.1674    0.0000 </r>
       <r>   13.7421    0.0000 </r>
       <r>   13.7445    0.0000 </r>
       <r>   13.9940    0.0000 </r>
       <r>   14.2681    0.0000 </r>
       <r>   14.3856    0.0000 </r>
       <r>   14.5901    0.0000 </r>
       <r>   14.6864    0.0000 </r>
       <r>   14.9453    0.0000 </r>
       <r>   14.9663    0.0000 </r>
       <r>   15.0071    0.0000 </r>
       <r>   15.1234    0.0000 </r>
       <r>   15.2042    0.0000 </r>
       <r>   15.3964    0.0000 </r>
       <r>   15.9537    0.0000 </r>
       <r>   16.5513    0.0000 </r>
       <r>   17.1486    0.0000 </r>
       <r>   17.2982    0.0000 </r>
       <r>   17.6240    0.0000 </r>
       <r>   17.7621    0.0000 </r>
       <r>   18.0441    0.0000 </r>
       <r>   18.0555    0.0000 </r>
       <r>   18.1278    0.0000 </r>
       <r>   18.2144    0.0000 </r>
       <r>   18.3569    0.0000 </r>
       <r>   18.9174    0.0000 </r>
       <r>   19.0667    0.0000 </r>
       <r>   19.1303    0.0000 </r>
       <r>   19.2949    0.0000 </r>
       <r>   19.4701    0.0000 </r>
       <r>   19.6211    0.0000 </r>
      </set>
      <set comment="kpoint 4">
       <r>  -48.3091    1.0000 </r>
       <r>  -48.3085    1.0000 </r>
       <r>  -48.3085    1.0000 </r>
       <r>  -48.3079    1.0000 </r>
       <r>  -48.2520    1.0000 </r>
       <r>  -48.2515    1.0000 </r>
       <r>  -48.2514    1.0000 </r>
       <r>  -48.2509    1.0000 </r>
       <r>  -24.7319    1.0000 </r>
       <r>  -24.7312    1.0000 </r>
       <r>  -24.7287    1.0000 </r>
       <r>  -24.7283    1.0000 </r>
       <r>  -24.7224    1.0000 </r>
       <r>  -24.7218    1.0000 </r>
       <r>  -24.7080    1.0000 </r>
       <r>  -24.7076    1.0000 </r>
       <r>  -24.6650    1.0000 </r>
       <r>  -24.6646    1.0000 </r>
       <r>  -24.6532    1.0000 </r>
       <r>  -24.6527    1.0000 </r>
       <r>  -24.5309    1.0000 </r>
       <r>  -24.5290    1.0000 </r>
       <r>  -24.5271    1.0000 </r>
       <r>  -24.5253    1.0000 </r>
       <r>  -24.4757    1.0000 </r>
       <r>  -24.4747    1.0000 </r>
       <r>  -24.4721    1.0000 </r>
       <r>  -24.4711    1.0000 </r>
       <r>  -24.2671    1.0000 </r>
       <r>  -24.2667    1.0000 </r>
       <r>  -24.2665    1.0000 </r>
       <r>  -24.2661    1.0000 </r>
       <r>   -6.1301    1.0000 </r>
       <r>   -6.1138    1.0000 </r>
       <r>   -6.0908    1.0000 </r>
       <r>   -6.0901    1.0000 </r>
       <r>   -6.0618    1.0000 </r>
       <r>    0.1308    1.0000 </r>
       <r>    0.4527    1.0000 </r>
       <r>    1.3692    1.0000 </r>
       <r>    1.6150    1.0000 </r>
       <r>    3.9734    1.0000 </r>
       <r>    4.2908    1.0000 </r>
       <r>    4.3195    1.0000 </r>
       <r>    4.3417    1.0000 </r>
       <r>    4.3703    1.0000 </r>
       <r>    4.3703    1.0000 </r>
       <r>    4.8838    1.0000 </r>
       <r>    4.9634    1.0000 </r>
       <r>    5.6849    1.0000 </r>
       <r>    5.7399    1.0000 </r>
       <r>    6.3640    1.0000 </r>
       <r>    6.3972    1.0000 </r>
       <r>    7.1326    1.0000 </r>
       <r>    7.1576    1.0000 </r>
       <r>    7.2046    1.0000 </r>
       <r>    7.2062    1.0000 </r>
       <r>    7.2243    1.0000 </r>
       <r>    7.2809    1.0000 </r>
       <r>    7.4610    1.0000 </r>
       <r>    7.4914    1.0000 </r>
       <r>    8.0200    1.0004 </r>
       <r>    8.0680    1.0033 </r>
       <r>    8.0854    1.0063 </r>
       <r>    8.0925    1.0080 </r>
       <r>    8.5998   -0.0001 </r>
       <r>    8.6545   -0.0000 </r>
       <r>    8.8634   -0.0000 </r>
       <r>    8.9178   -0.0000 </r>
       <r>    9.0658   -0.0000 </r>
       <r>    9.1258   -0.0000 </r>
       <r>    9.1609   -0.0000 </r>
       <r>    9.1897   -0.0000 </r>
       <r>    9.3684   -0.0000 </r>
       <r>    9.3971   -0.0000 </r>
       <r>   10.0509   -0.0000 </r>
       <r>   10.0745   -0.0000 </r>
       <r>   10.3174    0.0000 </r>
       <r>   10.3271    0.0000 </r>
       <r>   10.3495    0.0000 </r>
       <r>   10.4769    0.0000 </r>
       <r>   10.6213    0.0000 </r>
       <r>   10.6368    0.0000 </r>
       <r>   10.7270    0.0000 </r>
       <r>   10.7384    0.0000 </r>
       <r>   10.7877    0.0000 </r>
       <r>   10.8000    0.0000 </r>
       <r>   11.0817    0.0000 </r>
       <r>   11.1740    0.0000 </r>
       <r>   11.5900    0.0000 </r>
       <r>   11.5902    0.0000 </r>
       <r>   11.7434    0.0000 </r>
       <r>   11.9220    0.0000 </r>
       <r>   11.9610    0.0000 </r>
       <r>   12.0094    0.0000 </r>
       <r>   12.3099    0.0000 </r>
       <r>   12.3320    0.0000 </r>
       <r>   13.5734    0.0000 </r>
       <r>   13.6102    0.0000 </r>
       <r>   13.8789    0.0000 </r>
       <r>   13.9797    0.0000 </r>
       <r>   14.4454    0.0000 </r>
       <r>   14.4540    0.0000 </r>
       <r>   14.7622    0.0000 </r>
       <r>   14.9141    0.0000 </r>
       <r>   15.4827    0.0000 </r>
       <r>   15.5159    0.0000 </r>
       <r>   15.5572    0.0000 </r>
       <r>   15.6347    0.0000 </r>
       <r>   16.1843    0.0000 </r>
       <r>   16.2348    0.0000 </r>
       <r>   16.2729    0.0000 </r>
       <r>   16.2746    0.0000 </r>
       <r>   16.3745    0.0000 </r>
       <r>   16.4740    0.0000 </r>
       <r>   16.4883    0.0000 </r>
       <r>   16.5086    0.0000 </r>
       <r>   16.8686    0.0000 </r>
       <r>   17.2178    0.0000 </r>
       <r>   17.9726    0.0000 </r>
       <r>   18.1782    0.0000 </r>
       <r>   18.6238    0.0000 </r>
       <r>   19.0199    0.0000 </r>
       <r>   19.3668    0.0000 </r>
       <r>   19.4101    0.0000 </r>
       <r>   19.4819    0.0000 </r>
       <r>   19.5078    0.0000 </r>
       <r>   19.5948    0.0000 </r>
      </set>
      <set comment="kpoint 5">
       <r>  -48.3300    1.0000 </r>
       <r>  -48.3294    1.0000 </r>
       <r>  -48.2798    1.0000 </r>
       <r>  -48.2798    1.0000 </r>
       <r>  -48.2793    1.0000 </r>
       <r>  -48.2793    1.0000 </r>
       <r>  -48.2312    1.0000 </r>
       <r>  -48.2307    1.0000 </r>
       <r>  -24.7483    1.0000 </r>
       <r>  -24.7351    1.0000 </r>
       <r>  -24.7318    1.0000 </r>
       <r>  -24.7252    1.0000 </r>
       <r>  -24.7228    1.0000 </r>
       <r>  -24.7202    1.0000 </r>
       <r>  -24.6934    1.0000 </r>
       <r>  -24.6933    1.0000 </r>
       <r>  -24.6811    1.0000 </r>
       <r>  -24.6808    1.0000 </r>
       <r>  -24.6721    1.0000 </r>
       <r>  -24.6699    1.0000 </r>
       <r>  -24.6686    1.0000 </r>
       <r>  -24.6668    1.0000 </r>
       <r>  -24.6445    1.0000 </r>
       <r>  -24.6333    1.0000 </r>
       <r>  -24.3195    1.0000 </r>
       <r>  -24.3187    1.0000 </r>
       <r>  -24.3158    1.0000 </r>
       <r>  -24.3152    1.0000 </r>
       <r>  -24.2852    1.0000 </r>
       <r>  -24.2845    1.0000 </r>
       <r>  -24.2744    1.0000 </r>
       <r>  -24.2737    1.0000 </r>
       <r>   -6.1314    1.0000 </r>
       <r>   -6.1136    1.0000 </r>
       <r>   -6.0904    1.0000 </r>
       <r>   -6.0904    1.0000 </r>
       <r>   -6.0625    1.0000 </r>
       <r>   -0.6372    1.0000 </r>
       <r>    0.7632    1.0000 </r>
       <r>    2.2937    1.0000 </r>
       <r>    2.5799    1.0000 </r>
       <r>    2.9100    1.0000 </r>
       <r>    3.0930    1.0000 </r>
       <r>    3.3251    1.0000 </r>
       <r>    4.6355    1.0000 </r>
       <r>    5.1138    1.0000 </r>
       <r>    5.1954    1.0000 </r>
       <r>    5.2573    1.0000 </r>
       <r>    5.9073    1.0000 </r>
       <r>    5.9170    1.0000 </r>
       <r>    5.9515    1.0000 </r>
       <r>    6.2059    1.0000 </r>
       <r>    6.2329    1.0000 </r>
       <r>    6.2619    1.0000 </r>
       <r>    6.6609    1.0000 </r>
       <r>    6.7145    1.0000 </r>
       <r>    6.7318    1.0000 </r>
       <r>    6.7533    1.0000 </r>
       <r>    7.5654    1.0000 </r>
       <r>    7.7480    1.0000 </r>
       <r>    7.7659    1.0000 </r>
       <r>    7.8902    1.0000 </r>
       <r>    7.9061    1.0000 </r>
       <r>    7.9102    1.0000 </r>
       <r>    7.9768    1.0000 </r>
       <r>    8.0724    1.0039 </r>
       <r>    8.0788    1.0050 </r>
       <r>    8.2786    0.6166 </r>
       <r>    9.0517   -0.0000 </r>
       <r>    9.1916   -0.0000 </r>
       <r>    9.6998   -0.0000 </r>
       <r>    9.7028   -0.0000 </r>
       <r>    9.7221   -0.0000 </r>
       <r>    9.8966   -0.0000 </r>
       <r>    9.9035   -0.0000 </r>
       <r>   10.0003   -0.0000 </r>
       <r>   10.2651   -0.0000 </r>
       <r>   10.2766   -0.0000 </r>
       <r>   10.2886   -0.0000 </r>
       <r>   10.3094    0.0000 </r>
       <r>   10.4132    0.0000 </r>
       <r>   10.4314    0.0000 </r>
       <r>   10.4759    0.0000 </r>
       <r>   10.4891    0.0000 </r>
       <r>   10.6032    0.0000 </r>
       <r>   10.7663    0.0000 </r>
       <r>   10.9635    0.0000 </r>
       <r>   11.1766    0.0000 </r>
       <r>   11.3264    0.0000 </r>
       <r>   11.3667    0.0000 </r>
       <r>   11.5607    0.0000 </r>
       <r>   12.1494    0.0000 </r>
       <r>   12.1802    0.0000 </r>
       <r>   12.2447    0.0000 </r>
       <r>   12.2459    0.0000 </r>
       <r>   12.3334    0.0000 </r>
       <r>   13.4030    0.0000 </r>
       <r>   13.5799    0.0000 </r>
       <r>   13.5874    0.0000 </r>
       <r>   13.5967    0.0000 </r>
       <r>   14.0215    0.0000 </r>
       <r>   14.2238    0.0000 </r>
       <r>   14.2857    0.0000 </r>
       <r>   14.2941    0.0000 </r>
       <r>   14.2979    0.0000 </r>
       <r>   14.4815    0.0000 </r>
       <r>   14.5378    0.0000 </r>
       <r>   14.6275    0.0000 </r>
       <r>   14.7910    0.0000 </r>
       <r>   15.0952    0.0000 </r>
       <r>   15.6811    0.0000 </r>
       <r>   15.9042    0.0000 </r>
       <r>   16.8536    0.0000 </r>
       <r>   16.9108    0.0000 </r>
       <r>   17.1479    0.0000 </r>
       <r>   17.2673    0.0000 </r>
       <r>   17.6271    0.0000 </r>
       <r>   18.2998    0.0000 </r>
       <r>   18.3120    0.0000 </r>
       <r>   18.3764    0.0000 </r>
       <r>   18.3988    0.0000 </r>
       <r>   18.8024    0.0000 </r>
       <r>   19.3175    0.0000 </r>
       <r>   19.4167    0.0000 </r>
       <r>   19.9739    0.0000 </r>
       <r>   20.0189    0.0000 </r>
       <r>   20.0373    0.0000 </r>
       <r>   20.2339    0.0000 </r>
      </set>
      <set comment="kpoint 6">
       <r>  -48.3195    1.0000 </r>
       <r>  -48.3189    1.0000 </r>
       <r>  -48.2904    1.0000 </r>
       <r>  -48.2899    1.0000 </r>
       <r>  -48.2696    1.0000 </r>
       <r>  -48.2691    1.0000 </r>
       <r>  -48.2415    1.0000 </r>
       <r>  -48.2410    1.0000 </r>
       <r>  -24.7361    1.0000 </r>
       <r>  -24.7211    1.0000 </r>
       <r>  -24.7158    1.0000 </r>
       <r>  -24.7122    1.0000 </r>
       <r>  -24.7048    1.0000 </r>
       <r>  -24.6916    1.0000 </r>
       <r>  -24.6828    1.0000 </r>
       <r>  -24.6825    1.0000 </r>
       <r>  -24.6802    1.0000 </r>
       <r>  -24.6702    1.0000 </r>
       <r>  -24.6548    1.0000 </r>
       <r>  -24.6432    1.0000 </r>
       <r>  -24.6426    1.0000 </r>
       <r>  -24.6404    1.0000 </r>
       <r>  -24.5895    1.0000 </r>
       <r>  -24.5882    1.0000 </r>
       <r>  -24.4062    1.0000 </r>
       <r>  -24.4050    1.0000 </r>
       <r>  -24.3643    1.0000 </r>
       <r>  -24.3634    1.0000 </r>
       <r>  -24.3095    1.0000 </r>
       <r>  -24.3088    1.0000 </r>
       <r>  -24.2874    1.0000 </r>
       <r>  -24.2868    1.0000 </r>
       <r>   -6.1301    1.0000 </r>
       <r>   -6.1139    1.0000 </r>
       <r>   -6.0906    1.0000 </r>
       <r>   -6.0903    1.0000 </r>
       <r>   -6.0618    1.0000 </r>
       <r>   -0.2457    1.0000 </r>
       <r>    1.0059    1.0000 </r>
       <r>    1.4060    1.0000 </r>
       <r>    2.2268    1.0000 </r>
       <r>    2.8249    1.0000 </r>
       <r>    3.3030    1.0000 </r>
       <r>    3.7632    1.0000 </r>
       <r>    4.0152    1.0000 </r>
       <r>    4.4719    1.0000 </r>
       <r>    5.3029    1.0000 </r>
       <r>    5.4606    1.0000 </r>
       <r>    6.0562    1.0000 </r>
       <r>    6.0580    1.0000 </r>
       <r>    6.2869    1.0000 </r>
       <r>    6.3137    1.0000 </r>
       <r>    6.3366    1.0000 </r>
       <r>    6.5208    1.0000 </r>
       <r>    6.9346    1.0000 </r>
       <r>    6.9484    1.0000 </r>
       <r>    6.9679    1.0000 </r>
       <r>    6.9889    1.0000 </r>
       <r>    7.5239    1.0000 </r>
       <r>    7.6699    1.0000 </r>
       <r>    7.6718    1.0000 </r>
       <r>    7.7994    1.0000 </r>
       <r>    7.9704    1.0000 </r>
       <r>    8.1213    1.0180 </r>
       <r>    8.2331    0.9174 </r>
       <r>    8.2396    0.8857 </r>
       <r>    8.4038   -0.0332 </r>
       <r>    8.5645   -0.0004 </r>
       <r>    9.0521   -0.0000 </r>
       <r>    9.2009   -0.0000 </r>
       <r>    9.4567   -0.0000 </r>
       <r>    9.5255   -0.0000 </r>
       <r>    9.6116   -0.0000 </r>
       <r>    9.7191   -0.0000 </r>
       <r>    9.8037   -0.0000 </r>
       <r>   10.0112   -0.0000 </r>
       <r>   10.0522   -0.0000 </r>
       <r>   10.1887   -0.0000 </r>
       <r>   10.2073   -0.0000 </r>
       <r>   10.2444   -0.0000 </r>
       <r>   10.3251    0.0000 </r>
       <r>   10.3337    0.0000 </r>
       <r>   10.3501    0.0000 </r>
       <r>   10.3849    0.0000 </r>
       <r>   10.4630    0.0000 </r>
       <r>   10.4978    0.0000 </r>
       <r>   10.9631    0.0000 </r>
       <r>   11.0359    0.0000 </r>
       <r>   11.1184    0.0000 </r>
       <r>   11.4022    0.0000 </r>
       <r>   11.4837    0.0000 </r>
       <r>   11.7809    0.0000 </r>
       <r>   12.0073    0.0000 </r>
       <r>   12.2243    0.0000 </r>
       <r>   12.2449    0.0000 </r>
       <r>   12.7964    0.0000 </r>
       <r>   12.8226    0.0000 </r>
       <r>   13.2355    0.0000 </r>
       <r>   13.6629    0.0000 </r>
       <r>   14.0108    0.0000 </r>
       <r>   14.3199    0.0000 </r>
       <r>   14.3924    0.0000 </r>
       <r>   14.4669    0.0000 </r>
       <r>   14.5652    0.0000 </r>
       <r>   14.5681    0.0000 </r>
       <r>   14.7285    0.0000 </r>
       <r>   14.9242    0.0000 </r>
       <r>   14.9412    0.0000 </r>
       <r>   15.1322    0.0000 </r>
       <r>   15.7078    0.0000 </r>
       <r>   15.8334    0.0000 </r>
       <r>   16.0036    0.0000 </r>
       <r>   16.3407    0.0000 </r>
       <r>   16.5549    0.0000 </r>
       <r>   16.8543    0.0000 </r>
       <r>   16.9439    0.0000 </r>
       <r>   17.0973    0.0000 </r>
       <r>   17.4160    0.0000 </r>
       <r>   17.7857    0.0000 </r>
       <r>   17.8303    0.0000 </r>
       <r>   17.8787    0.0000 </r>
       <r>   18.1876    0.0000 </r>
       <r>   18.4605    0.0000 </r>
       <r>   19.3464    0.0000 </r>
       <r>   19.6012    0.0000 </r>
       <r>   19.7894    0.0000 </r>
       <r>   19.9187    0.0000 </r>
       <r>   20.0265    0.0000 </r>
      </set>
      <set comment="kpoint 7">
       <r>  -48.3053    1.0000 </r>
       <r>  -48.3047    1.0000 </r>
       <r>  -48.3047    1.0000 </r>
       <r>  -48.3041    1.0000 </r>
       <r>  -48.2558    1.0000 </r>
       <r>  -48.2554    1.0000 </r>
       <r>  -48.2553    1.0000 </r>
       <r>  -48.2548    1.0000 </r>
       <r>  -24.7208    1.0000 </r>
       <r>  -24.7201    1.0000 </r>
       <r>  -24.7064    1.0000 </r>
       <r>  -24.7061    1.0000 </r>
       <r>  -24.6995    1.0000 </r>
       <r>  -24.6988    1.0000 </r>
       <r>  -24.6965    1.0000 </r>
       <r>  -24.6960    1.0000 </r>
       <r>  -24.6689    1.0000 </r>
       <r>  -24.6685    1.0000 </r>
       <r>  -24.6569    1.0000 </r>
       <r>  -24.6564    1.0000 </r>
       <r>  -24.5272    1.0000 </r>
       <r>  -24.5254    1.0000 </r>
       <r>  -24.5234    1.0000 </r>
       <r>  -24.5217    1.0000 </r>
       <r>  -24.4794    1.0000 </r>
       <r>  -24.4784    1.0000 </r>
       <r>  -24.4758    1.0000 </r>
       <r>  -24.4747    1.0000 </r>
       <r>  -24.2988    1.0000 </r>
       <r>  -24.2984    1.0000 </r>
       <r>  -24.2981    1.0000 </r>
       <r>  -24.2977    1.0000 </r>
       <r>   -6.1294    1.0000 </r>
       <r>   -6.1140    1.0000 </r>
       <r>   -6.0907    1.0000 </r>
       <r>   -6.0902    1.0000 </r>
       <r>   -6.0615    1.0000 </r>
       <r>    0.2521    1.0000 </r>
       <r>    0.5830    1.0000 </r>
       <r>    1.4657    1.0000 </r>
       <r>    1.7169    1.0000 </r>
       <r>    3.2202    1.0000 </r>
       <r>    3.4470    1.0000 </r>
       <r>    3.7747    1.0000 </r>
       <r>    3.8803    1.0000 </r>
       <r>    4.4204    1.0000 </r>
       <r>    4.4690    1.0000 </r>
       <r>    5.8276    1.0000 </r>
       <r>    5.9088    1.0000 </r>
       <r>    6.2022    1.0000 </r>
       <r>    6.2156    1.0000 </r>
       <r>    6.2294    1.0000 </r>
       <r>    6.2440    1.0000 </r>
       <r>    7.1876    1.0000 </r>
       <r>    7.1982    1.0000 </r>
       <r>    7.2435    1.0000 </r>
       <r>    7.2579    1.0000 </r>
       <r>    7.2738    1.0000 </r>
       <r>    7.3250    1.0000 </r>
       <r>    7.5850    1.0000 </r>
       <r>    7.6180    1.0000 </r>
       <r>    8.0306    1.0007 </r>
       <r>    8.0981    1.0095 </r>
       <r>    8.1804    1.0336 </r>
       <r>    8.1974    1.0193 </r>
       <r>    8.4369   -0.0301 </r>
       <r>    8.4882   -0.0092 </r>
       <r>    8.9462   -0.0000 </r>
       <r>    8.9723   -0.0000 </r>
       <r>    9.0372   -0.0000 </r>
       <r>    9.1615   -0.0000 </r>
       <r>    9.3601   -0.0000 </r>
       <r>    9.3853   -0.0000 </r>
       <r>    9.4074   -0.0000 </r>
       <r>    9.4324   -0.0000 </r>
       <r>    9.9729   -0.0000 </r>
       <r>    9.9816   -0.0000 </r>
       <r>   10.1938   -0.0000 </r>
       <r>   10.1991   -0.0000 </r>
       <r>   10.2198   -0.0000 </r>
       <r>   10.2350   -0.0000 </r>
       <r>   10.2464   -0.0000 </r>
       <r>   10.3602    0.0000 </r>
       <r>   10.5608    0.0000 </r>
       <r>   10.5721    0.0000 </r>
       <r>   10.6468    0.0000 </r>
       <r>   10.6561    0.0000 </r>
       <r>   10.7501    0.0000 </r>
       <r>   10.8303    0.0000 </r>
       <r>   11.7607    0.0000 </r>
       <r>   11.9796    0.0000 </r>
       <r>   12.0506    0.0000 </r>
       <r>   12.1067    0.0000 </r>
       <r>   12.1222    0.0000 </r>
       <r>   12.1361    0.0000 </r>
       <r>   12.1468    0.0000 </r>
       <r>   12.2013    0.0000 </r>
       <r>   13.6343    0.0000 </r>
       <r>   13.6597    0.0000 </r>
       <r>   14.4116    0.0000 </r>
       <r>   14.4533    0.0000 </r>
       <r>   14.5312    0.0000 </r>
       <r>   14.5326    0.0000 </r>
       <r>   14.5911    0.0000 </r>
       <r>   14.7597    0.0000 </r>
       <r>   14.8981    0.0000 </r>
       <r>   14.9853    0.0000 </r>
       <r>   15.0013    0.0000 </r>
       <r>   15.0928    0.0000 </r>
       <r>   15.6024    0.0000 </r>
       <r>   15.7501    0.0000 </r>
       <r>   16.4504    0.0000 </r>
       <r>   16.5828    0.0000 </r>
       <r>   16.6505    0.0000 </r>
       <r>   16.6523    0.0000 </r>
       <r>   17.0014    0.0000 </r>
       <r>   17.1767    0.0000 </r>
       <r>   17.2545    0.0000 </r>
       <r>   17.3073    0.0000 </r>
       <r>   17.4213    0.0000 </r>
       <r>   17.5114    0.0000 </r>
       <r>   17.5627    0.0000 </r>
       <r>   18.0097    0.0000 </r>
       <r>   19.1700    0.0000 </r>
       <r>   19.2932    0.0000 </r>
       <r>   19.7996    0.0000 </r>
       <r>   19.9779    0.0000 </r>
       <r>   19.9975    0.0000 </r>
      </set>
      <set comment="kpoint 8">
       <r>  -48.3090    1.0000 </r>
       <r>  -48.3084    1.0000 </r>
       <r>  -48.2802    1.0000 </r>
       <r>  -48.2802    1.0000 </r>
       <r>  -48.2796    1.0000 </r>
       <r>  -48.2796    1.0000 </r>
       <r>  -48.2519    1.0000 </r>
       <r>  -48.2514    1.0000 </r>
       <r>  -24.7245    1.0000 </r>
       <r>  -24.7090    1.0000 </r>
       <r>  -24.6940    1.0000 </r>
       <r>  -24.6939    1.0000 </r>
       <r>  -24.6806    1.0000 </r>
       <r>  -24.6805    1.0000 </r>
       <r>  -24.6652    1.0000 </r>
       <r>  -24.6532    1.0000 </r>
       <r>  -24.6370    1.0000 </r>
       <r>  -24.6349    1.0000 </r>
       <r>  -24.6266    1.0000 </r>
       <r>  -24.6246    1.0000 </r>
       <r>  -24.6064    1.0000 </r>
       <r>  -24.6046    1.0000 </r>
       <r>  -24.5956    1.0000 </r>
       <r>  -24.5944    1.0000 </r>
       <r>  -24.4027    1.0000 </r>
       <r>  -24.4013    1.0000 </r>
       <r>  -24.3915    1.0000 </r>
       <r>  -24.3907    1.0000 </r>
       <r>  -24.3781    1.0000 </r>
       <r>  -24.3773    1.0000 </r>
       <r>  -24.3674    1.0000 </r>
       <r>  -24.3665    1.0000 </r>
       <r>   -6.1287    1.0000 </r>
       <r>   -6.1142    1.0000 </r>
       <r>   -6.0905    1.0000 </r>
       <r>   -6.0905    1.0000 </r>
       <r>   -6.0612    1.0000 </r>
       <r>    0.1344    1.0000 </r>
       <r>    1.2545    1.0000 </r>
       <r>    1.7072    1.0000 </r>
       <r>    1.8322    1.0000 </r>
       <r>    2.4748    1.0000 </r>
       <r>    2.6595    1.0000 </r>
       <r>    3.1415    1.0000 </r>
       <r>    3.7352    1.0000 </r>
       <r>    4.1750    1.0000 </r>
       <r>    5.5375    1.0000 </r>
       <r>    5.5774    1.0000 </r>
       <r>    5.9981    1.0000 </r>
       <r>    6.6750    1.0000 </r>
       <r>    6.7290    1.0000 </r>
       <r>    6.7881    1.0000 </r>
       <r>    6.8834    1.0000 </r>
       <r>    7.0094    1.0000 </r>
       <r>    7.0654    1.0000 </r>
       <r>    7.1080    1.0000 </r>
       <r>    7.1427    1.0000 </r>
       <r>    7.2077    1.0000 </r>
       <r>    7.4660    1.0000 </r>
       <r>    7.6147    1.0000 </r>
       <r>    7.8400    1.0000 </r>
       <r>    8.0717    1.0039 </r>
       <r>    8.0832    1.0058 </r>
       <r>    8.1232    1.0188 </r>
       <r>    8.2226    0.9598 </r>
       <r>    8.5542   -0.0007 </r>
       <r>    8.5683   -0.0003 </r>
       <r>    8.6608   -0.0000 </r>
       <r>    8.7707   -0.0000 </r>
       <r>    9.3323   -0.0000 </r>
       <r>    9.6200   -0.0000 </r>
       <r>    9.6339   -0.0000 </r>
       <r>    9.6665   -0.0000 </r>
       <r>    9.6836   -0.0000 </r>
       <r>    9.7485   -0.0000 </r>
       <r>    9.8149   -0.0000 </r>
       <r>    9.8571   -0.0000 </r>
       <r>    9.8585   -0.0000 </r>
       <r>    9.8783   -0.0000 </r>
       <r>    9.8822   -0.0000 </r>
       <r>    9.9768   -0.0000 </r>
       <r>   10.1251   -0.0000 </r>
       <r>   10.1424   -0.0000 </r>
       <r>   10.2357   -0.0000 </r>
       <r>   10.2713   -0.0000 </r>
       <r>   10.2754   -0.0000 </r>
       <r>   10.3482    0.0000 </r>
       <r>   10.5630    0.0000 </r>
       <r>   10.6795    0.0000 </r>
       <r>   11.7211    0.0000 </r>
       <r>   11.7585    0.0000 </r>
       <r>   11.8473    0.0000 </r>
       <r>   12.1250    0.0000 </r>
       <r>   12.1547    0.0000 </r>
       <r>   12.7797    0.0000 </r>
       <r>   12.9075    0.0000 </r>
       <r>   13.0646    0.0000 </r>
       <r>   13.5385    0.0000 </r>
       <r>   13.5987    0.0000 </r>
       <r>   13.6591    0.0000 </r>
       <r>   13.7022    0.0000 </r>
       <r>   14.2786    0.0000 </r>
       <r>   14.7180    0.0000 </r>
       <r>   14.7401    0.0000 </r>
       <r>   14.7448    0.0000 </r>
       <r>   14.7775    0.0000 </r>
       <r>   15.1229    0.0000 </r>
       <r>   15.3910    0.0000 </r>
       <r>   15.4788    0.0000 </r>
       <r>   15.5567    0.0000 </r>
       <r>   15.5948    0.0000 </r>
       <r>   15.6553    0.0000 </r>
       <r>   15.7374    0.0000 </r>
       <r>   15.8060    0.0000 </r>
       <r>   15.9178    0.0000 </r>
       <r>   15.9570    0.0000 </r>
       <r>   17.0748    0.0000 </r>
       <r>   17.6255    0.0000 </r>
       <r>   17.6363    0.0000 </r>
       <r>   18.0753    0.0000 </r>
       <r>   18.2462    0.0000 </r>
       <r>   18.3147    0.0000 </r>
       <r>   18.9011    0.0000 </r>
       <r>   18.9356    0.0000 </r>
       <r>   20.3198    0.0000 </r>
       <r>   20.3793    0.0000 </r>
       <r>   20.4634    0.0000 </r>
       <r>   20.5585    0.0000 </r>
      </set>
      <set comment="kpoint 9">
       <r>  -48.2949    1.0000 </r>
       <r>  -48.2943    1.0000 </r>
       <r>  -48.2943    1.0000 </r>
       <r>  -48.2938    1.0000 </r>
       <r>  -48.2663    1.0000 </r>
       <r>  -48.2658    1.0000 </r>
       <r>  -48.2658    1.0000 </r>
       <r>  -48.2653    1.0000 </r>
       <r>  -24.7095    1.0000 </r>
       <r>  -24.7089    1.0000 </r>
       <r>  -24.6950    1.0000 </r>
       <r>  -24.6946    1.0000 </r>
       <r>  -24.6798    1.0000 </r>
       <r>  -24.6794    1.0000 </r>
       <r>  -24.6671    1.0000 </r>
       <r>  -24.6666    1.0000 </r>
       <r>  -24.6172    1.0000 </r>
       <r>  -24.6166    1.0000 </r>
       <r>  -24.6153    1.0000 </r>
       <r>  -24.6148    1.0000 </r>
       <r>  -24.5172    1.0000 </r>
       <r>  -24.5156    1.0000 </r>
       <r>  -24.5135    1.0000 </r>
       <r>  -24.5119    1.0000 </r>
       <r>  -24.4894    1.0000 </r>
       <r>  -24.4883    1.0000 </r>
       <r>  -24.4858    1.0000 </r>
       <r>  -24.4846    1.0000 </r>
       <r>  -24.3847    1.0000 </r>
       <r>  -24.3843    1.0000 </r>
       <r>  -24.3838    1.0000 </r>
       <r>  -24.3833    1.0000 </r>
       <r>   -6.1280    1.0000 </r>
       <r>   -6.1144    1.0000 </r>
       <r>   -6.0906    1.0000 </r>
       <r>   -6.0904    1.0000 </r>
       <r>   -6.0609    1.0000 </r>
       <r>    0.5978    1.0000 </r>
       <r>    0.9683    1.0000 </r>
       <r>    1.7138    1.0000 </r>
       <r>    2.0184    1.0000 </r>
       <r>    2.2972    1.0000 </r>
       <r>    2.4333    1.0000 </r>
       <r>    3.0195    1.0000 </r>
       <r>    3.1529    1.0000 </r>
       <r>    4.7801    1.0000 </r>
       <r>    4.8221    1.0000 </r>
       <r>    5.8171    1.0000 </r>
       <r>    5.8415    1.0000 </r>
       <r>    6.9033    1.0000 </r>
       <r>    6.9307    1.0000 </r>
       <r>    7.0185    1.0000 </r>
       <r>    7.0305    1.0000 </r>
       <r>    7.2924    1.0000 </r>
       <r>    7.3193    1.0000 </r>
       <r>    7.3387    1.0000 </r>
       <r>    7.3784    1.0000 </r>
       <r>    7.3791    1.0000 </r>
       <r>    7.4094    1.0000 </r>
       <r>    7.8797    1.0000 </r>
       <r>    7.9211    1.0000 </r>
       <r>    7.9870    1.0001 </r>
       <r>    8.0384    1.0010 </r>
       <r>    8.2014    1.0133 </r>
       <r>    8.2708    0.6793 </r>
       <r>    8.5030   -0.0056 </r>
       <r>    8.5192   -0.0031 </r>
       <r>    9.0288   -0.0000 </r>
       <r>    9.0399   -0.0000 </r>
       <r>    9.1238   -0.0000 </r>
       <r>    9.1911   -0.0000 </r>
       <r>    9.5124   -0.0000 </r>
       <r>    9.5229   -0.0000 </r>
       <r>    9.6288   -0.0000 </r>
       <r>    9.6447   -0.0000 </r>
       <r>    9.7344   -0.0000 </r>
       <r>    9.7446   -0.0000 </r>
       <r>    9.7486   -0.0000 </r>
       <r>    9.7782   -0.0000 </r>
       <r>    9.9416   -0.0000 </r>
       <r>    9.9428   -0.0000 </r>
       <r>   10.0206   -0.0000 </r>
       <r>   10.1080   -0.0000 </r>
       <r>   10.1933   -0.0000 </r>
       <r>   10.2063   -0.0000 </r>
       <r>   10.2149   -0.0000 </r>
       <r>   10.2482   -0.0000 </r>
       <r>   10.3147    0.0000 </r>
       <r>   10.3171    0.0000 </r>
       <r>   11.7683    0.0000 </r>
       <r>   11.7907    0.0000 </r>
       <r>   12.0738    0.0000 </r>
       <r>   12.0895    0.0000 </r>
       <r>   12.5970    0.0000 </r>
       <r>   12.7877    0.0000 </r>
       <r>   12.8468    0.0000 </r>
       <r>   12.9086    0.0000 </r>
       <r>   13.6883    0.0000 </r>
       <r>   13.7898    0.0000 </r>
       <r>   13.9711    0.0000 </r>
       <r>   14.2480    0.0000 </r>
       <r>   14.2635    0.0000 </r>
       <r>   14.2702    0.0000 </r>
       <r>   14.2874    0.0000 </r>
       <r>   14.2990    0.0000 </r>
       <r>   14.5382    0.0000 </r>
       <r>   14.5491    0.0000 </r>
       <r>   15.1917    0.0000 </r>
       <r>   15.1947    0.0000 </r>
       <r>   15.3936    0.0000 </r>
       <r>   15.4603    0.0000 </r>
       <r>   15.5483    0.0000 </r>
       <r>   15.6357    0.0000 </r>
       <r>   15.7327    0.0000 </r>
       <r>   15.8342    0.0000 </r>
       <r>   16.9045    0.0000 </r>
       <r>   17.0838    0.0000 </r>
       <r>   18.2138    0.0000 </r>
       <r>   18.3176    0.0000 </r>
       <r>   18.4919    0.0000 </r>
       <r>   18.6435    0.0000 </r>
       <r>   18.6514    0.0000 </r>
       <r>   18.7374    0.0000 </r>
       <r>   18.9756    0.0000 </r>
       <r>   19.3506    0.0000 </r>
       <r>   19.4965    0.0000 </r>
       <r>   19.7067    0.0000 </r>
       <r>   19.8780    0.0000 </r>
      </set>
      <set comment="kpoint 10">
       <r>  -48.2809    1.0000 </r>
       <r>  -48.2804    1.0000 </r>
       <r>  -48.2803    1.0000 </r>
       <r>  -48.2803    1.0000 </r>
       <r>  -48.2798    1.0000 </r>
       <r>  -48.2798    1.0000 </r>
       <r>  -48.2798    1.0000 </r>
       <r>  -48.2792    1.0000 </r>
       <r>  -24.6950    1.0000 </r>
       <r>  -24.6943    1.0000 </r>
       <r>  -24.6943    1.0000 </r>
       <r>  -24.6940    1.0000 </r>
       <r>  -24.6812    1.0000 </r>
       <r>  -24.6809    1.0000 </r>
       <r>  -24.6809    1.0000 </r>
       <r>  -24.6803    1.0000 </r>
       <r>  -24.5163    1.0000 </r>
       <r>  -24.5143    1.0000 </r>
       <r>  -24.5121    1.0000 </r>
       <r>  -24.5103    1.0000 </r>
       <r>  -24.5040    1.0000 </r>
       <r>  -24.5040    1.0000 </r>
       <r>  -24.5024    1.0000 </r>
       <r>  -24.5024    1.0000 </r>
       <r>  -24.4989    1.0000 </r>
       <r>  -24.4989    1.0000 </r>
       <r>  -24.4979    1.0000 </r>
       <r>  -24.4979    1.0000 </r>
       <r>  -24.4910    1.0000 </r>
       <r>  -24.4899    1.0000 </r>
       <r>  -24.4868    1.0000 </r>
       <r>  -24.4858    1.0000 </r>
       <r>   -6.1273    1.0000 </r>
       <r>   -6.1146    1.0000 </r>
       <r>   -6.0905    1.0000 </r>
       <r>   -6.0905    1.0000 </r>
       <r>   -6.0606    1.0000 </r>
       <r>    0.9510    1.0000 </r>
       <r>    1.5769    1.0000 </r>
       <r>    1.5769    1.0000 </r>
       <r>    1.6091    1.0000 </r>
       <r>    2.2205    1.0000 </r>
       <r>    2.4957    1.0000 </r>
       <r>    2.4957    1.0000 </r>
       <r>    2.5192    1.0000 </r>
       <r>    5.2511    1.0000 </r>
       <r>    5.3139    1.0000 </r>
       <r>    5.3262    1.0000 </r>
       <r>    5.3262    1.0000 </r>
       <r>    7.3505    1.0000 </r>
       <r>    7.3660    1.0000 </r>
       <r>    7.3660    1.0000 </r>
       <r>    7.4089    1.0000 </r>
       <r>    7.4145    1.0000 </r>
       <r>    7.4304    1.0000 </r>
       <r>    7.4304    1.0000 </r>
       <r>    7.4741    1.0000 </r>
       <r>    7.6500    1.0000 </r>
       <r>    7.6500    1.0000 </r>
       <r>    7.6810    1.0000 </r>
       <r>    7.7638    1.0000 </r>
       <r>    8.0786    1.0050 </r>
       <r>    8.0786    1.0050 </r>
       <r>    8.0983    1.0096 </r>
       <r>    8.2136    0.9874 </r>
       <r>    8.9447   -0.0000 </r>
       <r>    8.9599   -0.0000 </r>
       <r>    8.9736   -0.0000 </r>
       <r>    8.9736   -0.0000 </r>
       <r>    9.1718   -0.0000 </r>
       <r>    9.1826   -0.0000 </r>
       <r>    9.2439   -0.0000 </r>
       <r>    9.2439   -0.0000 </r>
       <r>    9.5887   -0.0000 </r>
       <r>    9.6004   -0.0000 </r>
       <r>    9.6689   -0.0000 </r>
       <r>    9.6689   -0.0000 </r>
       <r>    9.8268   -0.0000 </r>
       <r>    9.8268   -0.0000 </r>
       <r>    9.8800   -0.0000 </r>
       <r>    9.9209   -0.0000 </r>
       <r>    9.9211   -0.0000 </r>
       <r>    9.9211   -0.0000 </r>
       <r>    9.9217   -0.0000 </r>
       <r>    9.9816   -0.0000 </r>
       <r>   10.0144   -0.0000 </r>
       <r>   10.0339   -0.0000 </r>
       <r>   10.0408   -0.0000 </r>
       <r>   10.0408   -0.0000 </r>
       <r>   11.9028    0.0000 </r>
       <r>   11.9028    0.0000 </r>
       <r>   11.9500    0.0000 </r>
       <r>   12.0759    0.0000 </r>
       <r>   12.8772    0.0000 </r>
       <r>   13.4862    0.0000 </r>
       <r>   13.5438    0.0000 </r>
       <r>   13.5865    0.0000 </r>
       <r>   13.5865    0.0000 </r>
       <r>   13.8870    0.0000 </r>
       <r>   13.8870    0.0000 </r>
       <r>   13.9692    0.0000 </r>
       <r>   13.9791    0.0000 </r>
       <r>   13.9791    0.0000 </r>
       <r>   14.0173    0.0000 </r>
       <r>   14.0397    0.0000 </r>
       <r>   14.0397    0.0000 </r>
       <r>   14.0458    0.0000 </r>
       <r>   14.1469    0.0000 </r>
       <r>   14.2802    0.0000 </r>
       <r>   15.1678    0.0000 </r>
       <r>   15.1678    0.0000 </r>
       <r>   15.1827    0.0000 </r>
       <r>   15.4178    0.0000 </r>
       <r>   17.0694    0.0000 </r>
       <r>   17.0830    0.0000 </r>
       <r>   17.2864    0.0000 </r>
       <r>   17.2864    0.0000 </r>
       <r>   17.9981    0.0000 </r>
       <r>   18.0643    0.0000 </r>
       <r>   18.1712    0.0000 </r>
       <r>   18.1712    0.0000 </r>
       <r>   19.3329    0.0000 </r>
       <r>   19.4086    0.0000 </r>
       <r>   19.6886    0.0000 </r>
       <r>   19.6886    0.0000 </r>
       <r>   20.0571    0.0000 </r>
       <r>   20.0571    0.0000 </r>
       <r>   20.3198    0.0000 </r>
      </set>
      <set comment="kpoint 11">
       <r>  -48.3376    1.0000 </r>
       <r>  -48.3372    1.0000 </r>
       <r>  -48.2795    1.0000 </r>
       <r>  -48.2795    1.0000 </r>
       <r>  -48.2792    1.0000 </r>
       <r>  -48.2792    1.0000 </r>
       <r>  -48.2236    1.0000 </r>
       <r>  -48.2232    1.0000 </r>
       <r>  -24.7699    1.0000 </r>
       <r>  -24.7673    1.0000 </r>
       <r>  -24.7578    1.0000 </r>
       <r>  -24.7559    1.0000 </r>
       <r>  -24.7510    1.0000 </r>
       <r>  -24.7389    1.0000 </r>
       <r>  -24.6974    1.0000 </r>
       <r>  -24.6974    1.0000 </r>
       <r>  -24.6956    1.0000 </r>
       <r>  -24.6956    1.0000 </r>
       <r>  -24.6886    1.0000 </r>
       <r>  -24.6886    1.0000 </r>
       <r>  -24.6805    1.0000 </r>
       <r>  -24.6805    1.0000 </r>
       <r>  -24.6354    1.0000 </r>
       <r>  -24.6277    1.0000 </r>
       <r>  -24.2878    1.0000 </r>
       <r>  -24.2878    1.0000 </r>
       <r>  -24.2874    1.0000 </r>
       <r>  -24.2874    1.0000 </r>
       <r>  -24.2513    1.0000 </r>
       <r>  -24.2509    1.0000 </r>
       <r>  -24.2405    1.0000 </r>
       <r>  -24.2400    1.0000 </r>
       <r>   -6.1328    1.0000 </r>
       <r>   -6.1133    1.0000 </r>
       <r>   -6.0904    1.0000 </r>
       <r>   -6.0904    1.0000 </r>
       <r>   -6.0631    1.0000 </r>
       <r>   -0.7710    1.0000 </r>
       <r>    0.2419    1.0000 </r>
       <r>    2.9114    1.0000 </r>
       <r>    3.4738    1.0000 </r>
       <r>    3.5580    1.0000 </r>
       <r>    3.5998    1.0000 </r>
       <r>    3.7274    1.0000 </r>
       <r>    3.8987    1.0000 </r>
       <r>    3.8987    1.0000 </r>
       <r>    4.9559    1.0000 </r>
       <r>    4.9559    1.0000 </r>
       <r>    5.1523    1.0000 </r>
       <r>    5.6412    1.0000 </r>
       <r>    5.8502    1.0000 </r>
       <r>    6.1327    1.0000 </r>
       <r>    6.1327    1.0000 </r>
       <r>    6.6581    1.0000 </r>
       <r>    6.6824    1.0000 </r>
       <r>    7.0378    1.0000 </r>
       <r>    7.0663    1.0000 </r>
       <r>    7.1202    1.0000 </r>
       <r>    7.1202    1.0000 </r>
       <r>    7.4768    1.0000 </r>
       <r>    7.4768    1.0000 </r>
       <r>    7.4796    1.0000 </r>
       <r>    7.5888    1.0000 </r>
       <r>    8.0056    1.0002 </r>
       <r>    8.0056    1.0002 </r>
       <r>    8.1680    1.0354 </r>
       <r>    8.2537    0.8029 </r>
       <r>    8.8631   -0.0000 </r>
       <r>    9.0093   -0.0000 </r>
       <r>    9.0093   -0.0000 </r>
       <r>    9.5947   -0.0000 </r>
       <r>    9.9700   -0.0000 </r>
       <r>    9.9700   -0.0000 </r>
       <r>   10.0512   -0.0000 </r>
       <r>   10.0512   -0.0000 </r>
       <r>   10.1023   -0.0000 </r>
       <r>   10.1023   -0.0000 </r>
       <r>   10.1159   -0.0000 </r>
       <r>   10.1346   -0.0000 </r>
       <r>   10.1346   -0.0000 </r>
       <r>   10.4020    0.0000 </r>
       <r>   10.4020    0.0000 </r>
[...]
       </set>
       <set comment="band 103">
        <r>  0.0035  0.0015  0.0298 </r>
        <r>  0.0035  0.0015  0.0298 </r>
        <r>  0.0061  0.0026  0.0314 </r>
        <r>  0.0061  0.0026  0.0314 </r>
        <r>  0.0061  0.0026  0.0314 </r>
        <r>  0.0061  0.0026  0.0314 </r>
        <r>  0.0035  0.0015  0.0298 </r>
        <r>  0.0035  0.0015  0.0298 </r>
        <r>  0.0000  0.0555  0.0000 </r>
        <r>  0.0000  0.0000  0.0000 </r>
        <r>  0.0268  0.0000  0.0000 </r>
        <r>  0.0000  0.0000  0.0000 </r>
        <r>  0.1721  0.0000  0.0000 </r>
        <r>  0.0000  0.0000  0.0000 </r>
        <r>  0.0000  0.0382  0.0000 </r>
        <r>  0.0000  0.0000  0.0000 </r>
       </set>
       <set comment="band 104">
        <r>  0.0061  0.0026  0.0314 </r>
        <r>  0.0061  0.0026  0.0314 </r>
        <r>  0.0035  0.0015  0.0298 </r>
        <r>  0.0035  0.0015  0.0298 </r>
        <r>  0.0035  0.0015  0.0298 </r>
        <r>  0.0035  0.0015  0.0298 </r>
        <r>  0.0061  0.0026  0.0314 </r>
        <r>  0.0061  0.0026  0.0314 </r>
        <r>  0.0000  0.0555  0.0000 </r>
        <r>  0.0000  0.0000  0.0000 </r>
        <r>  0.1721  0.0000  0.0000 </r>
        <r>  0.0000  0.0000  0.0000 </r>
        <r>  0.0268  0.0000  0.0000 </r>
        <r>  0.0000  0.0000  0.0000 </r>
        <r>  0.0000  0.0382  0.0000 </r>
        <r>  0.0000  0.0000  0.0000 </r>
       </set>
       <set comment="band 105">
        <r>  0.0048  0.0022  0.0295 </r>
        <r>  0.0048  0.0022  0.0295 </r>
        <r>  0.0048  0.0022  0.0295 </r>
        <r>  0.0048  0.0022  0.0295 </r>
        <r>  0.0048  0.0022  0.0295 </r>
        <r>  0.0048  0.0022  0.0295 </r>
        <r>  0.0048  0.0022  0.0295 </r>
        <r>  0.0048  0.0022  0.0295 </r>
        <r>  0.0000  0.0000  0.0000 </r>
        <r>  0.0000  0.0000  0.0000 </r>
        <r>  0.0000  0.0000  0.0000 </r>
        <r>  0.0000  0.0334  0.0000 </r>
        <r>  0.0000  0.0000  0.0000 </r>
        <r>  0.0000  0.0334  0.0000 </r>
        <r>  0.0000  0.0000  0.0000 </r>
        <r>  0.1977  0.0000  0.0000 </r>
       </set>
       <set comment="band 106">
        <r>  0.0049  0.0022  0.0296 </r>
        <r>  0.0049  0.0022  0.0296 </r>
        <r>  0.0049  0.0022  0.0296 </r>
        <r>  0.0049  0.0022  0.0296 </r>
        <r>  0.0049  0.0022  0.0296 </r>
        <r>  0.0049  0.0022  0.0296 </r>
        <r>  0.0049  0.0022  0.0296 </r>
        <r>  0.0049  0.0022  0.0296 </r>
        <r>  0.0000  0.0000  0.0000 </r>
        <r>  0.1977  0.0000  0.0000 </r>
        <r>  0.0000  0.0000  0.0000 </r>
        <r>  0.0000  0.0333  0.0000 </r>
        <r>  0.0000  0.0000  0.0000 </r>
        <r>  0.0000  0.0333  0.0000 </r>
        <r>  0.0000  0.0000  0.0000 </r>
        <r>  0.0000  0.0000  0.0000 </r>
       </set>
       <set comment="band 107">
        <r>  0.0001  0.0002  0.0257 </r>
        <r>  0.0001  0.0002  0.0257 </r>
        <r>  0.0094  0.0042  0.0342 </r>
        <r>  0.0094  0.0042  0.0342 </r>
        <r>  0.0094  0.0042  0.0342 </r>
        <r>  0.0094  0.0042  0.0342 </r>
        <r>  0.0001  0.0002  0.0257 </r>
        <r>  0.0001  0.0002  0.0257 </r>
        <r>  0.0000  0.0000  0.0004 </r>
        <r>  0.0000  0.0327  0.0000 </r>
        <r>  0.0000  0.0000  0.0000 </r>
        <r>  0.0928  0.0000  0.0000 </r>
        <r>  0.0000  0.0000  0.0000 </r>
        <r>  0.1035  0.0000  0.0000 </r>
        <r>  0.0000  0.0000  0.0000 </r>
        <r>  0.0000  0.0342  0.0000 </r>
       </set>
       <set comment="band 108">
        <r>  0.0094  0.0042  0.0342 </r>
        <r>  0.0094  0.0042  0.0342 </r>
        <r>  0.0001  0.0002  0.0257 </r>
        <r>  0.0001  0.0002  0.0257 </r>
        <r>  0.0001  0.0002  0.0257 </r>
        <r>  0.0001  0.0002  0.0257 </r>
        <r>  0.0094  0.0042  0.0342 </r>
        <r>  0.0094  0.0042  0.0342 </r>
        <r>  0.0000  0.0000  0.0004 </r>
        <r>  0.0000  0.0327  0.0000 </r>
        <r>  0.0000  0.0000  0.0000 </r>
        <r>  0.1035  0.0000  0.0000 </r>
        <r>  0.0000  0.0000  0.0000 </r>
        <r>  0.0928  0.0000  0.0000 </r>
        <r>  0.0000  0.0000  0.0000 </r>
        <r>  0.0000  0.0342  0.0000 </r>
       </set>
       <set comment="band 109">
        <r>  0.0043  0.0022  0.0288 </r>
        <r>  0.0043  0.0022  0.0288 </r>
        <r>  0.0043  0.0022  0.0288 </r>
        <r>  0.0043  0.0022  0.0288 </r>
        <r>  0.0043  0.0022  0.0288 </r>
        <r>  0.0043  0.0022  0.0288 </r>
        <r>  0.0043  0.0022  0.0288 </r>
        <r>  0.0043  0.0022  0.0288 </r>
        <r>  0.0000  0.0000  0.0200 </r>
        <r>  0.0000  0.0000  0.0000 </r>
        <r>  0.0000  0.0412  0.0000 </r>
        <r>  0.0000  0.0000  0.0000 </r>
        <r>  0.0000  0.0412  0.0000 </r>
        <r>  0.0000  0.0000  0.0000 </r>
        <r>  0.2000  0.0000  0.0000 </r>
        <r>  0.0000  0.0001  0.0000 </r>
       </set>
       <set comment="band 110">
        <r>  0.0140  0.0033  0.0117 </r>
        <r>  0.0140  0.0033  0.0117 </r>
        <r>  0.0140  0.0033  0.0117 </r>
        <r>  0.0140  0.0033  0.0117 </r>
        <r>  0.0140  0.0033  0.0117 </r>
        <r>  0.0140  0.0033  0.0117 </r>
        <r>  0.0140  0.0033  0.0117 </r>
        <r>  0.0140  0.0033  0.0117 </r>
        <r>  0.0000  0.2261  0.0000 </r>
        <r>  0.0098  0.0000  0.0000 </r>
        <r>  0.0000  0.0000  0.0000 </r>
        <r>  0.0000  0.0130  0.0000 </r>
        <r>  0.0000  0.0000  0.0000 </r>
        <r>  0.0000  0.0130  0.0000 </r>
        <r>  0.0000  0.0000  0.0000 </r>
        <r>  0.0000  0.0000  0.0000 </r>
       </set>
       <set comment="band 111">
        <r>  0.0072  0.0031  0.0114 </r>
        <r>  0.0072  0.0031  0.0114 </r>
        <r>  0.0189  0.0049  0.0114 </r>
        <r>  0.0189  0.0049  0.0114 </r>
        <r>  0.0189  0.0049  0.0114 </r>
        <r>  0.0189  0.0049  0.0114 </r>
        <r>  0.0072  0.0031  0.0114 </r>
        <r>  0.0072  0.0031  0.0114 </r>
        <r>  0.0000  0.0243  0.0000 </r>
        <r>  0.0000  0.0000  0.0000 </r>
        <r>  0.0074  0.0000  0.0000 </r>
        <r>  0.0000  0.0830  0.0000 </r>
        <r>  0.0028  0.0000  0.0000 </r>
        <r>  0.0000  0.0316  0.0000 </r>
        <r>  0.0000  0.0139  0.0000 </r>
        <r>  0.0000  0.0000  0.0000 </r>
       </set>
       <set comment="band 112">
        <r>  0.0189  0.0049  0.0114 </r>
        <r>  0.0189  0.0049  0.0114 </r>
        <r>  0.0072  0.0031  0.0114 </r>
        <r>  0.0072  0.0031  0.0114 </r>
        <r>  0.0072  0.0031  0.0114 </r>
        <r>  0.0072  0.0031  0.0114 </r>
        <r>  0.0189  0.0049  0.0114 </r>
        <r>  0.0189  0.0049  0.0114 </r>
        <r>  0.0000  0.0243  0.0000 </r>
        <r>  0.0000  0.0000  0.0000 </r>
        <r>  0.0028  0.0000  0.0000 </r>
        <r>  0.0000  0.0316  0.0000 </r>
        <r>  0.0074  0.0000  0.0000 </r>
        <r>  0.0000  0.0830  0.0000 </r>
        <r>  0.0000  0.0139  0.0000 </r>
        <r>  0.0000  0.0000  0.0000 </r>
       </set>
       <set comment="band 113">
        <r>  0.0033  0.0027  0.0122 </r>
        <r>  0.0033  0.0027  0.0122 </r>
        <r>  0.0219  0.0059  0.0119 </r>
        <r>  0.0219  0.0059  0.0119 </r>
        <r>  0.0219  0.0059  0.0119 </r>
        <r>  0.0219  0.0059  0.0119 </r>
        <r>  0.0033  0.0027  0.0122 </r>
        <r>  0.0033  0.0027  0.0122 </r>
        <r>  0.0000  0.0000  0.0000 </r>
        <r>  0.0000  0.0132  0.0000 </r>
        <r>  0.0000  0.0185  0.0000 </r>
        <r>  0.0017  0.0000  0.0000 </r>
        <r>  0.0000  0.0950  0.0000 </r>
        <r>  0.0087  0.0000  0.0000 </r>
        <r>  0.0000  0.0000  0.0000 </r>
        <r>  0.0000  0.0137  0.0000 </r>
       </set>
       <set comment="band 114">
        <r>  0.0219  0.0059  0.0119 </r>
        <r>  0.0219  0.0059  0.0119 </r>
        <r>  0.0033  0.0027  0.0122 </r>
        <r>  0.0033  0.0028  0.0122 </r>
        <r>  0.0033  0.0028  0.0122 </r>
        <r>  0.0033  0.0027  0.0122 </r>
        <r>  0.0219  0.0059  0.0119 </r>
        <r>  0.0219  0.0059  0.0119 </r>
        <r>  0.0000  0.0000  0.0000 </r>
        <r>  0.0000  0.0132  0.0000 </r>
        <r>  0.0000  0.0950  0.0000 </r>
        <r>  0.0087  0.0000  0.0000 </r>
        <r>  0.0000  0.0185  0.0000 </r>
        <r>  0.0017  0.0000  0.0000 </r>
        <r>  0.0000  0.0000  0.0000 </r>
        <r>  0.0000  0.0137  0.0000 </r>
       </set>
       <set comment="band 115">
        <r>  0.0125  0.0043  0.0119 </r>
        <r>  0.0125  0.0043  0.0119 </r>
        <r>  0.0125  0.0043  0.0119 </r>
        <r>  0.0125  0.0043  0.0119 </r>
        <r>  0.0125  0.0043  0.0119 </r>
        <r>  0.0125  0.0043  0.0119 </r>
        <r>  0.0125  0.0043  0.0119 </r>
        <r>  0.0125  0.0043  0.0119 </r>
        <r>  0.0000  0.0000  0.0000 </r>
        <r>  0.0000  0.0000  0.0000 </r>
        <r>  0.0000  0.0000  0.0000 </r>
        <r>  0.0000  0.0134  0.0000 </r>
        <r>  0.0000  0.0000  0.0000 </r>
        <r>  0.0000  0.0134  0.0000 </r>
        <r>  0.0000  0.1135  0.0000 </r>
        <r>  0.0104  0.0000  0.0000 </r>
       </set>
       <set comment="band 116">
        <r>  0.0148  0.0042  0.0127 </r>
        <r>  0.0148  0.0042  0.0127 </r>
        <r>  0.0148  0.0042  0.0127 </r>
        <r>  0.0148  0.0042  0.0127 </r>
        <r>  0.0148  0.0042  0.0127 </r>
        <r>  0.0148  0.0042  0.0127 </r>
        <r>  0.0148  0.0042  0.0127 </r>
        <r>  0.0148  0.0042  0.0127 </r>
        <r>  0.0000  0.0000  0.0123 </r>
        <r>  0.0000  0.0000  0.0000 </r>
        <r>  0.0000  0.0077  0.0000 </r>
        <r>  0.0000  0.0000  0.0000 </r>
        <r>  0.0000  0.0077  0.0000 </r>
        <r>  0.0000  0.0000  0.0000 </r>
        <r>  0.0178  0.0000  0.0000 </r>
        <r>  0.0000  0.1295  0.0000 </r>
       </set>
       <set comment="band 117">
        <r>  0.0175  0.0014  0.0111 </r>
        <r>  0.0175  0.0014  0.0111 </r>
        <r>  0.0175  0.0014  0.0111 </r>
        <r>  0.0175  0.0014  0.0111 </r>
        <r>  0.0175  0.0014  0.0111 </r>
        <r>  0.0175  0.0014  0.0111 </r>
        <r>  0.0175  0.0014  0.0111 </r>
        <r>  0.0175  0.0014  0.0111 </r>
        <r>  0.0035  0.0000  0.0521 </r>
        <r>  0.0000  0.1640  0.0000 </r>
        <r>  0.0000  0.0194  0.0000 </r>
        <r>  0.0000  0.0000  0.0000 </r>
        <r>  0.0000  0.0194  0.0000 </r>
        <r>  0.0000  0.0000  0.0000 </r>
        <r>  0.0000  0.0000  0.0000 </r>
        <r>  0.0000  0.0000  0.0000 </r>
       </set>
       <set comment="band 118">
        <r>  0.0052  0.0111  0.0249 </r>
        <r>  0.0049  0.0117  0.0228 </r>
        <r>  0.0050  0.0118  0.0229 </r>
        <r>  0.0050  0.0113  0.0212 </r>
        <r>  0.0048  0.0102  0.0234 </r>
        <r>  0.0044  0.0115  0.0220 </r>
        <r>  0.0054  0.0115  0.0246 </r>
        <r>  0.0051  0.0121  0.0226 </r>
        <r>  0.0000  0.0902  0.0000 </r>
        <r>  0.0088  0.0000  0.0000 </r>
        <r>  0.0000  0.0000  0.0000 </r>
        <r>  0.0000  0.0001  0.0000 </r>
        <r>  0.0000  0.0000  0.0000 </r>
        <r>  0.0000  0.0001  0.0000 </r>
        <r>  0.0000  0.0000  0.0000 </r>
        <r>  0.0000  0.0000  0.0000 </r>
       </set>
       <set comment="band 119">
        <r>  0.0044  0.0086  0.0186 </r>
        <r>  0.0045  0.0087  0.0172 </r>
        <r>  0.0070  0.0127  0.0288 </r>
        <r>  0.0075  0.0117  0.0261 </r>
        <r>  0.0077  0.0112  0.0275 </r>
        <r>  0.0066  0.0128  0.0283 </r>
        <r>  0.0047  0.0089  0.0174 </r>
        <r>  0.0043  0.0092  0.0177 </r>
        <r>  0.0000  0.0000  0.0000 </r>
        <r>  0.0000  0.0000  0.0000 </r>
        <r>  0.0051  0.0000  0.0000 </r>
        <r>  0.0000  0.0386  0.0000 </r>
        <r>  0.0029  0.0000  0.0000 </r>
        <r>  0.0000  0.0216  0.0000 </r>
        <r>  0.0000  0.0001  0.0000 </r>
        <r>  0.0000  0.0000  0.0000 </r>
       </set>
       <set comment="band 120">
        <r>  0.0088  0.0100  0.0257 </r>
        <r>  0.0058  0.0141  0.0300 </r>
        <r>  0.0037  0.0102  0.0198 </r>
        <r>  0.0051  0.0074  0.0152 </r>
        <r>  0.0055  0.0071  0.0166 </r>
        <r>  0.0035  0.0107  0.0190 </r>
        <r>  0.0061  0.0136  0.0313 </r>
        <r>  0.0082  0.0106  0.0241 </r>
        <r>  0.0000  0.0000  0.0001 </r>
        <r>  0.0000  0.0000  0.0000 </r>
        <r>  0.0028  0.0000  0.0000 </r>
        <r>  0.0000  0.0215  0.0000 </r>
        <r>  0.0050  0.0000  0.0000 </r>
        <r>  0.0000  0.0379  0.0000 </r>
        <r>  0.0000  0.0008  0.0000 </r>
        <r>  0.0001  0.0000  0.0000 </r>
       </set>
       <set comment="band 121">
        <r>  0.0038  0.0133  0.0197 </r>
        <r>  0.0084  0.0077  0.0241 </r>
        <r>  0.0068  0.0100  0.0164 </r>
        <r>  0.0066  0.0136  0.0265 </r>
        <r>  0.0033  0.0139  0.0227 </r>
        <r>  0.0074  0.0062  0.0270 </r>
        <r>  0.0053  0.0107  0.0149 </r>
        <r>  0.0059  0.0090  0.0314 </r>
        <r>  0.0000  0.0002  0.0001 </r>
        <r>  0.0000  0.0000  0.0000 </r>
        <r>  0.0000  0.0001  0.0000 </r>
        <r>  0.0000  0.0002  0.0000 </r>
        <r>  0.0001  0.0001  0.0000 </r>
        <r>  0.0000  0.0006  0.0000 </r>
        <r>  0.0002  0.0589  0.0000 </r>
        <r>  0.0073  0.0006  0.0000 </r>
       </set>
       <set comment="band 122">
        <r>  0.0053  0.0101  0.0281 </r>
        <r>  0.0038  0.0117  0.0190 </r>
        <r>  0.0062  0.0093  0.0245 </r>
        <r>  0.0038  0.0128  0.0173 </r>
        <r>  0.0053  0.0112  0.0272 </r>
        <r>  0.0037  0.0131  0.0188 </r>
        <r>  0.0064  0.0106  0.0257 </r>
        <r>  0.0040  0.0146  0.0189 </r>
        <r>  0.0000  0.0000  0.0019 </r>
        <r>  0.0000  0.0000  0.0000 </r>
        <r>  0.0000  0.0000  0.0000 </r>
        <r>  0.0000  0.0000  0.0000 </r>
        <r>  0.0000  0.0001  0.0000 </r>
        <r>  0.0000  0.0001  0.0000 </r>
        <r>  0.0120  0.0006  0.0000 </r>
        <r>  0.0001  0.0494  0.0000 </r>
       </set>
       <set comment="band 123">
        <r>  0.0044  0.0147  0.0251 </r>
        <r>  0.0042  0.0146  0.0281 </r>
        <r>  0.0031  0.0108  0.0267 </r>
        <r>  0.0033  0.0125  0.0244 </r>
        <r>  0.0036  0.0110  0.0263 </r>
        <r>  0.0035  0.0145  0.0223 </r>
        <r>  0.0038  0.0150  0.0268 </r>
        <r>  0.0042  0.0130  0.0310 </r>
        <r>  0.0000  0.0000  0.0003 </r>
        <r>  0.0000  0.0030  0.0000 </r>
        <r>  0.0000  0.0002  0.0000 </r>
        <r>  0.0000  0.0000  0.0000 </r>
        <r>  0.0000  0.0369  0.0000 </r>
        <r>  0.0049  0.0000  0.0000 </r>
        <r>  0.0000  0.0000  0.0000 </r>
        <r>  0.0000  0.0028  0.0000 </r>
       </set>
       <set comment="band 124">
        <r>  0.0038  0.0119  0.0193 </r>
        <r>  0.0025  0.0131  0.0312 </r>
        <r>  0.0028  0.0139  0.0320 </r>
        <r>  0.0044  0.0162  0.0236 </r>
        <r>  0.0048  0.0109  0.0274 </r>
        <r>  0.0035  0.0174  0.0276 </r>
        <r>  0.0026  0.0129  0.0268 </r>
        <r>  0.0044  0.0110  0.0246 </r>
        <r>  0.0003  0.0002  0.0010 </r>
        <r>  0.0000  0.0033  0.0000 </r>
        <r>  0.0000  0.0350  0.0000 </r>
        <r>  0.0045  0.0001  0.0000 </r>
        <r>  0.0000  0.0003  0.0000 </r>
        <r>  0.0000  0.0001  0.0000 </r>
        <r>  0.0000  0.0002  0.0000 </r>
        <r>  0.0000  0.0026  0.0000 </r>
       </set>
       <set comment="band 125">
        <r>  0.0000  0.0255  0.0297 </r>
        <r>  0.0000  0.0259  0.0434 </r>
        <r>  0.0000  0.0096  0.0372 </r>
        <r>  0.0000  0.0126  0.0245 </r>
        <r>  0.0000  0.0070  0.0287 </r>
        <r>  0.0000  0.0106  0.0354 </r>
        <r>  0.0000  0.0247  0.0340 </r>
        <r>  0.0000  0.0249  0.0254 </r>
        <r>  0.0002  0.0119  0.0004 </r>
        <r>  0.0000  0.0002  0.0000 </r>
        <r>  0.0000  0.0002  0.0000 </r>
        <r>  0.0000  0.0004  0.0000 </r>
        <r>  0.0000  0.0002  0.0000 </r>
        <r>  0.0000  0.0004  0.0000 </r>
        <r>  0.0000  0.0066  0.0000 </r>
        <r>  0.0000  0.0000  0.0000 </r>
       </set>
       <set comment="band 126">
        <r>  0.0000  0.0161  0.0249 </r>
        <r>  0.0000  0.0194  0.0384 </r>
        <r>  0.0000  0.0188  0.0279 </r>
        <r>  0.0000  0.0157  0.0384 </r>
        <r>  0.0000  0.0198  0.0305 </r>
        <r>  0.0000  0.0167  0.0322 </r>
        <r>  0.0000  0.0159  0.0458 </r>
        <r>  0.0000  0.0198  0.0200 </r>
        <r>  0.0001  0.0022  0.0003 </r>
        <r>  0.0000  0.0002  0.0000 </r>
        <r>  0.0000  0.0001  0.0000 </r>
        <r>  0.0000  0.0061  0.0000 </r>
        <r>  0.0000  0.0001  0.0000 </r>
        <r>  0.0000  0.0061  0.0000 </r>
        <r>  0.0000  0.0012  0.0000 </r>
        <r>  0.0000  0.0000  0.0000 </r>
       </set>
       <set comment="band 127">
        <r>  0.0001  0.0170  0.0267 </r>
        <r>  0.0001  0.0205  0.0359 </r>
        <r>  0.0001  0.0144  0.0251 </r>
        <r>  0.0001  0.0145  0.0400 </r>
        <r>  0.0001  0.0193  0.0366 </r>
        <r>  0.0000  0.0194  0.0266 </r>
        <r>  0.0001  0.0163  0.0405 </r>
        <r>  0.0001  0.0188  0.0252 </r>
        <r>  0.0007  0.0050  0.0015 </r>
        <r>  0.0000  0.0008  0.0000 </r>
        <r>  0.0000  0.0001  0.0000 </r>
        <r>  0.0000  0.0041  0.0000 </r>
        <r>  0.0000  0.0003  0.0000 </r>
        <r>  0.0000  0.0042  0.0000 </r>
        <r>  0.0000  0.0028  0.0000 </r>
        <r>  0.0000  0.0000  0.0000 </r>
       </set>
       <set comment="band 128">
        <r>  0.0001  0.0226  0.0420 </r>
        <r>  0.0001  0.0125  0.0327 </r>
        <r>  0.0001  0.0251  0.0296 </r>
        <r>  0.0001  0.0084  0.0337 </r>
        <r>  0.0001  0.0267  0.0270 </r>
        <r>  0.0000  0.0094  0.0379 </r>
        <r>  0.0001  0.0224  0.0269 </r>
        <r>  0.0001  0.0119  0.0267 </r>
        <r>  0.0006  0.0005  0.0013 </r>
        <r>  0.0000  0.0007  0.0000 </r>
        <r>  0.0000  0.0063  0.0000 </r>
        <r>  0.0000  0.0006  0.0000 </r>
        <r>  0.0000  0.0063  0.0000 </r>
        <r>  0.0000  0.0006  0.0000 </r>
        <r>  0.0000  0.0003  0.0000 </r>
        <r>  0.0000  0.0000  0.0000 </r>
       </set>
      </set>
     </set>
    </set>
   </array>
  </projected>
 </calculation>
 <structure name="finalpos" >
  <crystal>
   <varray name="basis" >
    <v>       5.64528606       0.00000000       0.00000000 </v>
    <v>       0.00000000       5.64528606       0.00000000 </v>
    <v>       0.00000000       0.00000000       8.10998246 </v>
   </varray>
   <i name="volume">    258.45909678 </i>
   <varray name="rec_basis" >
    <v>       0.17713894       0.00000000       0.00000000 </v>
    <v>       0.00000000       0.17713894       0.00000000 </v>
    <v>       0.00000000       0.00000000       0.12330483 </v>
   </varray>
  </crystal>
  <varray name="positions" >
   <v>       0.00019716       0.00019716       0.00061719 </v>
   <v>       0.00019716       0.00019716       0.49938281 </v>
   <v>       0.00019716       0.49980284       0.00061719 </v>
   <v>       0.00019716       0.49980284       0.49938281 </v>
   <v>       0.49980284       0.00019716       0.00061719 </v>
   <v>       0.49980284       0.00019716       0.49938281 </v>
   <v>       0.49980284       0.49980284       0.00061719 </v>
   <v>       0.49980284       0.49980284       0.49938281 </v>
   <v>       0.25000000       0.25000000       0.25000000 </v>
   <v>       0.25000000       0.25000000       0.75000000 </v>
   <v>       0.25000000       0.75000000       0.25000000 </v>
   <v>       0.25000000       0.75000000       0.75000000 </v>
   <v>       0.75000000       0.25000000       0.25000000 </v>
   <v>       0.75000000       0.25000000       0.75000000 </v>
   <v>       0.75000000       0.75000000       0.25000000 </v>
   <v>       0.75000000       0.75000000       0.75000000 </v>
  </varray>
 </structure>
</modeling>
