unknown system                          
           1
     5.645286    0.000000    0.000000
     0.000000    5.645286    0.000000
     0.000000    0.000000    8.109982
   Ti   Ga   Al
     8     1     7
Direct configuration=     1
   0.00019716  0.00019716  0.00061719
   0.00019716  0.00019716  0.49938281
   0.00019716  0.49980284  0.00061719
   0.00019716  0.49980284  0.49938281
   0.49980284  0.00019716  0.00061719
   0.49980284  0.00019716  0.49938281
   0.49980284  0.49980284  0.00061719
   0.49980284  0.49980284  0.49938281
   0.25000000  0.25000000  0.25000000
   0.25000000  0.25000000  0.75000000
   0.25000000  0.75000000  0.25000000
   0.25000000  0.75000000  0.75000000
   0.75000000  0.25000000  0.25000000
   0.75000000  0.25000000  0.75000000
   0.75000000  0.75000000  0.25000000
   0.75000000  0.75000000  0.75000000
