  16  16   1   0
  0.1621382E+02  0.5650682E-09  0.5650682E-09  0.8124629E-09  0.5000000E-15
  1.000000000000000E-004
  CAR 
 unknown system                          
     25.62924153    -51.82188008  301      8.26487346      1.00000000
    -51.822  0.0000E+00  0.0000E+00
    -51.564  0.0000E+00  0.0000E+00
    -51.306  0.0000E+00  0.0000E+00
    -51.047  0.0000E+00  0.0000E+00
    -50.789  0.0000E+00  0.0000E+00
    -50.531  0.0000E+00  0.0000E+00
    -50.273  0.0000E+00  0.0000E+00
    -50.015  0.0000E+00  0.0000E+00
    -49.757  0.0000E+00  0.0000E+00
    -49.498  0.0000E+00  0.0000E+00
    -49.240 -0.5153E-37 -0.1330E-37
    -48.982 -0.6111E-19 -0.1578E-19
    -48.724 -0.1114E-06 -0.2876E-07
    -48.466 -0.3411E+00 -0.8805E-01
    -48.207  0.4739E+02  0.1215E+02
    -47.949  0.1495E+02  0.1600E+02
    -47.691 -0.1897E-01  0.1600E+02
    -47.433 -0.1270E-09  0.1600E+02
    -47.175  0.0000E+00  0.1600E+02
    -46.917  0.0000E+00  0.1600E+02
    -46.658  0.0000E+00  0.1600E+02
    -46.400  0.0000E+00  0.1600E+02
    -46.142  0.0000E+00  0.1600E+02
    -45.884  0.0000E+00  0.1600E+02
    -45.626  0.0000E+00  0.1600E+02
    -45.368  0.0000E+00  0.1600E+02
    -45.109  0.0000E+00  0.1600E+02
    -44.851  0.0000E+00  0.1600E+02
    -44.593  0.0000E+00  0.1600E+02
    -44.335  0.0000E+00  0.1600E+02
    -44.077  0.0000E+00  0.1600E+02
    -43.819  0.0000E+00  0.1600E+02
    -43.560  0.0000E+00  0.1600E+02
    -43.302  0.0000E+00  0.1600E+02
    -43.044  0.0000E+00  0.1600E+02
    -42.786  0.0000E+00  0.1600E+02
    -42.528  0.0000E+00  0.1600E+02
    -42.270  0.0000E+00  0.1600E+02
    -42.011  0.0000E+00  0.1600E+02
    -41.753  0.0000E+00  0.1600E+02
    -41.495  0.0000E+00  0.1600E+02
    -41.237  0.0000E+00  0.1600E+02
    -40.979  0.0000E+00  0.1600E+02
    -40.721  0.0000E+00  0.1600E+02
    -40.462  0.0000E+00  0.1600E+02
    -40.204  0.0000E+00  0.1600E+02
    -39.946  0.0000E+00  0.1600E+02
    -39.688  0.0000E+00  0.1600E+02
    -39.430  0.0000E+00  0.1600E+02
    -39.172  0.0000E+00  0.1600E+02
    -38.913  0.0000E+00  0.1600E+02
    -38.655  0.0000E+00  0.1600E+02
    -38.397  0.0000E+00  0.1600E+02
    -38.139  0.0000E+00  0.1600E+02
    -37.881  0.0000E+00  0.1600E+02
    -37.623  0.0000E+00  0.1600E+02
    -37.364  0.0000E+00  0.1600E+02
    -37.106  0.0000E+00  0.1600E+02
    -36.848  0.0000E+00  0.1600E+02
    -36.590  0.0000E+00  0.1600E+02
    -36.332  0.0000E+00  0.1600E+02
    -36.073  0.0000E+00  0.1600E+02
    -35.815  0.0000E+00  0.1600E+02
    -35.557  0.0000E+00  0.1600E+02
    -35.299  0.0000E+00  0.1600E+02
    -35.041  0.0000E+00  0.1600E+02
    -34.783  0.0000E+00  0.1600E+02
    -34.524  0.0000E+00  0.1600E+02
    -34.266  0.0000E+00  0.1600E+02
    -34.008  0.0000E+00  0.1600E+02
    -33.750  0.0000E+00  0.1600E+02
    -33.492  0.0000E+00  0.1600E+02
    -33.234  0.0000E+00  0.1600E+02
    -32.975  0.0000E+00  0.1600E+02
    -32.717  0.0000E+00  0.1600E+02
    -32.459  0.0000E+00  0.1600E+02
    -32.201  0.0000E+00  0.1600E+02
    -31.943  0.0000E+00  0.1600E+02
    -31.685  0.0000E+00  0.1600E+02
    -31.426  0.0000E+00  0.1600E+02
    -31.168  0.0000E+00  0.1600E+02
    -30.910  0.0000E+00  0.1600E+02
    -30.652  0.0000E+00  0.1600E+02
    -30.394  0.0000E+00  0.1600E+02
    -30.136  0.0000E+00  0.1600E+02
    -29.877  0.0000E+00  0.1600E+02
    -29.619  0.0000E+00  0.1600E+02
    -29.361  0.0000E+00  0.1600E+02
    -29.103  0.0000E+00  0.1600E+02
    -28.845  0.0000E+00  0.1600E+02
    -28.587  0.0000E+00  0.1600E+02
    -28.328  0.0000E+00  0.1600E+02
    -28.070  0.0000E+00  0.1600E+02
    -27.812  0.0000E+00  0.1600E+02
    -27.554  0.0000E+00  0.1600E+02
    -27.296  0.0000E+00  0.1600E+02
    -27.038  0.0000E+00  0.1600E+02
    -26.779  0.0000E+00  0.1600E+02
    -26.521  0.0000E+00  0.1600E+02
    -26.263  0.0000E+00  0.1600E+02
    -26.005  0.0000E+00  0.1600E+02
    -25.747 -0.8515E-44  0.1600E+02
    -25.488 -0.7075E-24  0.1600E+02
    -25.230 -0.8903E-10  0.1600E+02
    -24.972 -0.1757E-01  0.1600E+02
    -24.714  0.1413E+02  0.1964E+02
    -24.456  0.1143E+03  0.4915E+02
    -24.198  0.5225E+02  0.6264E+02
    -23.939  0.5281E+01  0.6400E+02
    -23.681 -0.4207E-02  0.6400E+02
    -23.423 -0.4953E-11  0.6400E+02
    -23.165  0.0000E+00  0.6400E+02
    -22.907  0.0000E+00  0.6400E+02
    -22.649  0.0000E+00  0.6400E+02
    -22.390  0.0000E+00  0.6400E+02
    -22.132  0.0000E+00  0.6400E+02
    -21.874  0.0000E+00  0.6400E+02
    -21.616  0.0000E+00  0.6400E+02
    -21.358  0.0000E+00  0.6400E+02
    -21.100  0.0000E+00  0.6400E+02
    -20.841  0.0000E+00  0.6400E+02
    -20.583  0.0000E+00  0.6400E+02
    -20.325  0.0000E+00  0.6400E+02
    -20.067  0.0000E+00  0.6400E+02
    -19.809  0.0000E+00  0.6400E+02
    -19.551  0.0000E+00  0.6400E+02
    -19.292  0.0000E+00  0.6400E+02
    -19.034  0.0000E+00  0.6400E+02
    -18.776  0.0000E+00  0.6400E+02
    -18.518  0.0000E+00  0.6400E+02
    -18.260  0.0000E+00  0.6400E+02
    -18.002  0.0000E+00  0.6400E+02
    -17.743  0.0000E+00  0.6400E+02
    -17.485  0.0000E+00  0.6400E+02
    -17.227  0.0000E+00  0.6400E+02
    -16.969  0.0000E+00  0.6400E+02
    -16.711  0.0000E+00  0.6400E+02
    -16.453  0.0000E+00  0.6400E+02
    -16.194  0.0000E+00  0.6400E+02
    -15.936  0.0000E+00  0.6400E+02
    -15.678  0.0000E+00  0.6400E+02
    -15.420  0.0000E+00  0.6400E+02
    -15.162  0.0000E+00  0.6400E+02
    -14.904  0.0000E+00  0.6400E+02
    -14.645  0.0000E+00  0.6400E+02
    -14.387  0.0000E+00  0.6400E+02
    -14.129  0.0000E+00  0.6400E+02
    -13.871  0.0000E+00  0.6400E+02
    -13.613  0.0000E+00  0.6400E+02
    -13.354  0.0000E+00  0.6400E+02
    -13.096  0.0000E+00  0.6400E+02
    -12.838  0.0000E+00  0.6400E+02
    -12.580  0.0000E+00  0.6400E+02
    -12.322  0.0000E+00  0.6400E+02
    -12.064  0.0000E+00  0.6400E+02
    -11.805  0.0000E+00  0.6400E+02
    -11.547  0.0000E+00  0.6400E+02
    -11.289  0.0000E+00  0.6400E+02
    -11.031  0.0000E+00  0.6400E+02
    -10.773  0.0000E+00  0.6400E+02
    -10.515  0.0000E+00  0.6400E+02
    -10.256  0.0000E+00  0.6400E+02
     -9.998  0.0000E+00  0.6400E+02
     -9.740  0.0000E+00  0.6400E+02
     -9.482  0.0000E+00  0.6400E+02
     -9.224  0.0000E+00  0.6400E+02
     -8.966  0.0000E+00  0.6400E+02
     -8.707  0.0000E+00  0.6400E+02
     -8.449  0.0000E+00  0.6400E+02
     -8.191  0.0000E+00  0.6400E+02
     -7.933  0.0000E+00  0.6400E+02
     -7.675  0.0000E+00  0.6400E+02
     -7.417  0.0000E+00  0.6400E+02
     -7.158  0.0000E+00  0.6400E+02
     -6.900  0.0000E+00  0.6400E+02
     -6.642  0.0000E+00  0.6400E+02
     -6.384  0.0000E+00  0.6400E+02
     -6.126  0.0000E+00  0.6400E+02
     -5.868  0.0000E+00  0.6400E+02
     -5.609  0.0000E+00  0.6400E+02
     -5.351  0.0000E+00  0.6400E+02
     -5.093  0.0000E+00  0.6400E+02
     -4.835  0.0000E+00  0.6400E+02
     -4.577  0.0000E+00  0.6400E+02
     -4.319  0.0000E+00  0.6400E+02
     -4.060  0.0000E+00  0.6400E+02
     -3.802  0.0000E+00  0.6400E+02
     -3.544  0.0000E+00  0.6400E+02
     -3.286  0.0000E+00  0.6400E+02
     -3.028  0.0000E+00  0.6400E+02
     -2.770  0.0000E+00  0.6400E+02
     -2.511  0.0000E+00  0.6400E+02
     -2.253  0.0000E+00  0.6400E+02
     -1.995  0.0000E+00  0.6400E+02
     -1.737 -0.1709E-45  0.6400E+02
     -1.479 -0.1665E-25  0.6400E+02
     -1.220 -0.2366E-11  0.6400E+02
     -0.962 -0.4284E-03  0.6400E+02
     -0.704  0.2707E+00  0.6407E+02
     -0.446  0.1008E+01  0.6433E+02
     -0.188  0.6370E+00  0.6449E+02
      0.070  0.1655E+01  0.6492E+02
      0.329  0.9109E+00  0.6516E+02
      0.587  0.2109E+01  0.6570E+02
      0.845  0.2374E+01  0.6631E+02
      1.103  0.3237E+01  0.6715E+02
      1.361  0.2186E+01  0.6771E+02
      1.619  0.2823E+01  0.6844E+02
      1.878  0.5091E+01  0.6976E+02
      2.136  0.4365E+01  0.7088E+02
      2.394  0.3341E+01  0.7175E+02
      2.652  0.4022E+01  0.7279E+02
      2.910  0.2031E+01  0.7331E+02
      3.168  0.2538E+01  0.7396E+02
      3.427  0.3191E+01  0.7479E+02
      3.685  0.5057E+01  0.7609E+02
      3.943  0.4592E+01  0.7728E+02
      4.201  0.2657E+01  0.7797E+02
      4.459  0.8486E+01  0.8016E+02
      4.717  0.3859E+01  0.8115E+02
      4.976  0.4633E+01  0.8235E+02
      5.234  0.5447E+01  0.8375E+02
      5.492  0.8567E+01  0.8597E+02
      5.750  0.7873E+01  0.8800E+02
      6.008  0.7359E+01  0.8990E+02
      6.266  0.7542E+01  0.9185E+02
      6.525  0.9682E+01  0.9435E+02
      6.783  0.1393E+02  0.9794E+02
      7.041  0.9829E+01  0.1005E+03
      7.299  0.1057E+02  0.1032E+03
      7.557  0.1364E+02  0.1067E+03
      7.815  0.1599E+02  0.1109E+03
      8.074  0.2029E+02  0.1161E+03
      8.332  0.1766E+02  0.1207E+03
      8.590  0.9971E+01  0.1232E+03
      8.848  0.8196E+01  0.1253E+03
      9.106  0.1879E+02  0.1302E+03
      9.365  0.1433E+02  0.1339E+03
      9.623  0.8861E+01  0.1362E+03
      9.881  0.1250E+02  0.1394E+03
     10.139  0.3459E+02  0.1483E+03
     10.397  0.2450E+02  0.1547E+03
     10.655  0.1939E+02  0.1597E+03
     10.914  0.1768E+02  0.1642E+03
     11.172  0.6157E+01  0.1658E+03
     11.430  0.6138E+01  0.1674E+03
     11.688  0.9458E+01  0.1698E+03
     11.946  0.7819E+01  0.1719E+03
     12.204  0.1387E+02  0.1754E+03
     12.463  0.1326E+02  0.1789E+03
     12.721  0.1204E+02  0.1820E+03
     12.979  0.9650E+01  0.1845E+03
     13.237  0.5055E+01  0.1858E+03
     13.495  0.9440E+01  0.1882E+03
     13.753  0.8563E+01  0.1904E+03
     14.012  0.1456E+02  0.1942E+03
     14.270  0.1571E+02  0.1982E+03
     14.528  0.9228E+01  0.2006E+03
     14.786  0.6980E+01  0.2024E+03
     15.044  0.5810E+01  0.2039E+03
     15.302  0.8246E+01  0.2061E+03
     15.561  0.7802E+01  0.2081E+03
     15.819  0.5673E+01  0.2095E+03
     16.077  0.5601E+01  0.2110E+03
     16.335  0.8576E+01  0.2132E+03
     16.593  0.1054E+02  0.2159E+03
     16.851  0.1017E+02  0.2185E+03
     17.110  0.7185E+01  0.2204E+03
     17.368  0.8004E+01  0.2225E+03
     17.626  0.9715E+01  0.2250E+03
     17.884  0.8157E+01  0.2271E+03
     18.142  0.1273E+02  0.2304E+03
     18.400  0.7220E+01  0.2322E+03
     18.659  0.7302E+01  0.2341E+03
     18.917  0.9166E+01  0.2365E+03
     19.175  0.9084E+01  0.2388E+03
     19.433  0.9631E+01  0.2413E+03
     19.691  0.8092E+01  0.2434E+03
     19.949  0.6747E+01  0.2451E+03
     20.208  0.7115E+01  0.2470E+03
     20.466  0.6358E+01  0.2486E+03
     20.724  0.1041E+02  0.2513E+03
     20.982  0.7322E+01  0.2532E+03
     21.240  0.5244E+01  0.2545E+03
     21.499  0.2003E+01  0.2551E+03
     21.757  0.1154E+01  0.2554E+03
     22.015  0.2374E+01  0.2560E+03
     22.273  0.9777E-01  0.2560E+03
     22.531 -0.1836E-02  0.2560E+03
     22.789 -0.1373E-08  0.2560E+03
     23.048  0.0000E+00  0.2560E+03
     23.306  0.0000E+00  0.2560E+03
     23.564  0.0000E+00  0.2560E+03
     23.822  0.0000E+00  0.2560E+03
     24.080  0.0000E+00  0.2560E+03
     24.338  0.0000E+00  0.2560E+03
     24.597  0.0000E+00  0.2560E+03
     24.855  0.0000E+00  0.2560E+03
     25.113  0.0000E+00  0.2560E+03
     25.371  0.0000E+00  0.2560E+03
     25.629  0.0000E+00  0.2560E+03
     25.62924153    -51.82188008  301      8.26487346      1.00000000
    -51.822  0.0000E+00  0.0000E+00  0.0000E+00  0.0000E+00  0.0000E+00  0.0000E+00  0.0000E+00  0.0000E+00  0.0000E+00
    -51.564  0.0000E+00  0.0000E+00  0.0000E+00  0.0000E+00  0.0000E+00  0.0000E+00  0.0000E+00  0.0000E+00  0.0000E+00
    -51.306  0.0000E+00  0.0000E+00  0.0000E+00  0.0000E+00  0.0000E+00  0.0000E+00  0.0000E+00  0.0000E+00  0.0000E+00
    -51.047  0.0000E+00  0.0000E+00  0.0000E+00  0.0000E+00  0.0000E+00  0.0000E+00  0.0000E+00  0.0000E+00  0.0000E+00
    -50.789  0.0000E+00  0.0000E+00  0.0000E+00  0.0000E+00  0.0000E+00  0.0000E+00  0.0000E+00  0.0000E+00  0.0000E+00
    -50.531  0.0000E+00  0.0000E+00  0.0000E+00  0.0000E+00  0.0000E+00  0.0000E+00  0.0000E+00  0.0000E+00  0.0000E+00
    -50.273  0.0000E+00  0.0000E+00  0.0000E+00  0.0000E+00  0.0000E+00  0.0000E+00  0.0000E+00  0.0000E+00  0.0000E+00
    -50.015  0.0000E+00  0.0000E+00  0.0000E+00  0.0000E+00  0.0000E+00  0.0000E+00  0.0000E+00  0.0000E+00  0.0000E+00
    -49.757  0.0000E+00  0.0000E+00  0.0000E+00  0.0000E+00  0.0000E+00  0.0000E+00  0.0000E+00  0.0000E+00  0.0000E+00
    -49.498  0.0000E+00  0.0000E+00  0.0000E+00  0.0000E+00  0.0000E+00  0.0000E+00  0.0000E+00  0.0000E+00  0.0000E+00
    -49.240 -0.6399E-38 -0.2895E-44 -0.3287E-47 -0.2895E-44 -0.8361E-49 -0.1116E-50 -0.4090E-43 -0.1116E-50 -0.4526E-45
    -48.982 -0.7589E-20 -0.5668E-26 -0.3869E-29 -0.5668E-26 -0.2137E-30 -0.1864E-32 -0.4747E-25 -0.1864E-32 -0.1669E-26
    -48.724 -0.1383E-07 -0.2220E-13 -0.6838E-17 -0.2220E-13 -0.1388E-17 -0.6651E-20 -0.8120E-13 -0.6651E-20 -0.1207E-13
    -48.466 -0.4238E-01 -0.1702E-06 -0.1804E-10 -0.1702E-06 -0.1978E-10 -0.6027E-13 -0.2160E-06 -0.6027E-13 -0.1510E-06
    -48.207  0.5892E+01  0.2836E-04  0.2224E-08  0.2836E-04  0.3761E-08  0.1466E-10  0.3228E-04  0.1466E-10  0.2804E-04
    -47.949  0.1860E+01  0.8172E-05  0.6004E-09  0.8172E-05  0.1023E-08  0.8476E-11  0.1456E-04  0.8476E-11  0.8003E-05
    -47.691 -0.2362E-02 -0.7264E-08 -0.7267E-12 -0.7264E-08 -0.7112E-12 -0.1214E-13 -0.2418E-07 -0.1214E-13 -0.6091E-08
    -47.433 -0.1582E-10 -0.1851E-16 -0.4618E-20 -0.1851E-16 -0.7354E-21 -0.7011E-22 -0.2107E-15 -0.7011E-22 -0.8060E-17
    -47.175  0.0000E+00  0.0000E+00  0.0000E+00  0.0000E+00  0.0000E+00  0.0000E+00  0.0000E+00  0.0000E+00  0.0000E+00
    -46.917  0.0000E+00  0.0000E+00  0.0000E+00  0.0000E+00  0.0000E+00  0.0000E+00  0.0000E+00  0.0000E+00  0.0000E+00
    -46.658  0.0000E+00  0.0000E+00  0.0000E+00  0.0000E+00  0.0000E+00  0.0000E+00  0.0000E+00  0.0000E+00  0.0000E+00
    -46.400  0.0000E+00  0.0000E+00  0.0000E+00  0.0000E+00  0.0000E+00  0.0000E+00  0.0000E+00  0.0000E+00  0.0000E+00
    -46.142  0.0000E+00  0.0000E+00  0.0000E+00  0.0000E+00  0.0000E+00  0.0000E+00  0.0000E+00  0.0000E+00  0.0000E+00
    -45.884  0.0000E+00  0.0000E+00  0.0000E+00  0.0000E+00  0.0000E+00  0.0000E+00  0.0000E+00  0.0000E+00  0.0000E+00
    -45.626  0.0000E+00  0.0000E+00  0.0000E+00  0.0000E+00  0.0000E+00  0.0000E+00  0.0000E+00  0.0000E+00  0.0000E+00
    -45.368  0.0000E+00  0.0000E+00  0.0000E+00  0.0000E+00  0.0000E+00  0.0000E+00  0.0000E+00  0.0000E+00  0.0000E+00
    -45.109  0.0000E+00  0.0000E+00  0.0000E+00  0.0000E+00  0.0000E+00  0.0000E+00  0.0000E+00  0.0000E+00  0.0000E+00
    -44.851  0.0000E+00  0.0000E+00  0.0000E+00  0.0000E+00  0.0000E+00  0.0000E+00  0.0000E+00  0.0000E+00  0.0000E+00
    -44.593  0.0000E+00  0.0000E+00  0.0000E+00  0.0000E+00  0.0000E+00  0.0000E+00  0.0000E+00  0.0000E+00  0.0000E+00
    -44.335  0.0000E+00  0.0000E+00  0.0000E+00  0.0000E+00  0.0000E+00  0.0000E+00  0.0000E+00  0.0000E+00  0.0000E+00
    -44.077  0.0000E+00  0.0000E+00  0.0000E+00  0.0000E+00  0.0000E+00  0.0000E+00  0.0000E+00  0.0000E+00  0.0000E+00
    -43.819  0.0000E+00  0.0000E+00  0.0000E+00  0.0000E+00  0.0000E+00  0.0000E+00  0.0000E+00  0.0000E+00  0.0000E+00
    -43.560  0.0000E+00  0.0000E+00  0.0000E+00  0.0000E+00  0.0000E+00  0.0000E+00  0.0000E+00  0.0000E+00  0.0000E+00
    -43.302  0.0000E+00  0.0000E+00  0.0000E+00  0.0000E+00  0.0000E+00  0.0000E+00  0.0000E+00  0.0000E+00  0.0000E+00
    -43.044  0.0000E+00  0.0000E+00  0.0000E+00  0.0000E+00  0.0000E+00  0.0000E+00  0.0000E+00  0.0000E+00  0.0000E+00
    -42.786  0.0000E+00  0.0000E+00  0.0000E+00  0.0000E+00  0.0000E+00  0.0000E+00  0.0000E+00  0.0000E+00  0.0000E+00
    -42.528  0.0000E+00  0.0000E+00  0.0000E+00  0.0000E+00  0.0000E+00  0.0000E+00  0.0000E+00  0.0000E+00  0.0000E+00
    -42.270  0.0000E+00  0.0000E+00  0.0000E+00  0.0000E+00  0.0000E+00  0.0000E+00  0.0000E+00  0.0000E+00  0.0000E+00
    -42.011  0.0000E+00  0.0000E+00  0.0000E+00  0.0000E+00  0.0000E+00  0.0000E+00  0.0000E+00  0.0000E+00  0.0000E+00
    -41.753  0.0000E+00  0.0000E+00  0.0000E+00  0.0000E+00  0.0000E+00  0.0000E+00  0.0000E+00  0.0000E+00  0.0000E+00
    -41.495  0.0000E+00  0.0000E+00  0.0000E+00  0.0000E+00  0.0000E+00  0.0000E+00  0.0000E+00  0.0000E+00  0.0000E+00
    -41.237  0.0000E+00  0.0000E+00  0.0000E+00  0.0000E+00  0.0000E+00  0.0000E+00  0.0000E+00  0.0000E+00  0.0000E+00
    -40.979  0.0000E+00  0.0000E+00  0.0000E+00  0.0000E+00  0.0000E+00  0.0000E+00  0.0000E+00  0.0000E+00  0.0000E+00
    -40.721  0.0000E+00  0.0000E+00  0.0000E+00  0.0000E+00  0.0000E+00  0.0000E+00  0.0000E+00  0.0000E+00  0.0000E+00
    -40.462  0.0000E+00  0.0000E+00  0.0000E+00  0.0000E+00  0.0000E+00  0.0000E+00  0.0000E+00  0.0000E+00  0.0000E+00
    -40.204  0.0000E+00  0.0000E+00  0.0000E+00  0.0000E+00  0.0000E+00  0.0000E+00  0.0000E+00  0.0000E+00  0.0000E+00
    -39.946  0.0000E+00  0.0000E+00  0.0000E+00  0.0000E+00  0.0000E+00  0.0000E+00  0.0000E+00  0.0000E+00  0.0000E+00
    -39.688  0.0000E+00  0.0000E+00  0.0000E+00  0.0000E+00  0.0000E+00  0.0000E+00  0.0000E+00  0.0000E+00  0.0000E+00
    -39.430  0.0000E+00  0.0000E+00  0.0000E+00  0.0000E+00  0.0000E+00  0.0000E+00  0.0000E+00  0.0000E+00  0.0000E+00
    -39.172  0.0000E+00  0.0000E+00  0.0000E+00  0.0000E+00  0.0000E+00  0.0000E+00  0.0000E+00  0.0000E+00  0.0000E+00
    -38.913  0.0000E+00  0.0000E+00  0.0000E+00  0.0000E+00  0.0000E+00  0.0000E+00  0.0000E+00  0.0000E+00  0.0000E+00
    -38.655  0.0000E+00  0.0000E+00  0.0000E+00  0.0000E+00  0.0000E+00  0.0000E+00  0.0000E+00  0.0000E+00  0.0000E+00
    -38.397  0.0000E+00  0.0000E+00  0.0000E+00  0.0000E+00  0.0000E+00  0.0000E+00  0.0000E+00  0.0000E+00  0.0000E+00
    -38.139  0.0000E+00  0.0000E+00  0.0000E+00  0.0000E+00  0.0000E+00  0.0000E+00  0.0000E+00  0.0000E+00  0.0000E+00
    -37.881  0.0000E+00  0.0000E+00  0.0000E+00  0.0000E+00  0.0000E+00  0.0000E+00  0.0000E+00  0.0000E+00  0.0000E+00
    -37.623  0.0000E+00  0.0000E+00  0.0000E+00  0.0000E+00  0.0000E+00  0.0000E+00  0.0000E+00  0.0000E+00  0.0000E+00
    -37.364  0.0000E+00  0.0000E+00  0.0000E+00  0.0000E+00  0.0000E+00  0.0000E+00  0.0000E+00  0.0000E+00  0.0000E+00
    -37.106  0.0000E+00  0.0000E+00  0.0000E+00  0.0000E+00  0.0000E+00  0.0000E+00  0.0000E+00  0.0000E+00  0.0000E+00
    -36.848  0.0000E+00  0.0000E+00  0.0000E+00  0.0000E+00  0.0000E+00  0.0000E+00  0.0000E+00  0.0000E+00  0.0000E+00
    -36.590  0.0000E+00  0.0000E+00  0.0000E+00  0.0000E+00  0.0000E+00  0.0000E+00  0.0000E+00  0.0000E+00  0.0000E+00
    -36.332  0.0000E+00  0.0000E+00  0.0000E+00  0.0000E+00  0.0000E+00  0.0000E+00  0.0000E+00  0.0000E+00  0.0000E+00
    -36.073  0.0000E+00  0.0000E+00  0.0000E+00  0.0000E+00  0.0000E+00  0.0000E+00  0.0000E+00  0.0000E+00  0.0000E+00
    -35.815  0.0000E+00  0.0000E+00  0.0000E+00  0.0000E+00  0.0000E+00  0.0000E+00  0.0000E+00  0.0000E+00  0.0000E+00
    -35.557  0.0000E+00  0.0000E+00  0.0000E+00  0.0000E+00  0.0000E+00  0.0000E+00  0.0000E+00  0.0000E+00  0.0000E+00
    -35.299  0.0000E+00  0.0000E+00  0.0000E+00  0.0000E+00  0.0000E+00  0.0000E+00  0.0000E+00  0.0000E+00  0.0000E+00
    -35.041  0.0000E+00  0.0000E+00  0.0000E+00  0.0000E+00  0.0000E+00  0.0000E+00  0.0000E+00  0.0000E+00  0.0000E+00
    -34.783  0.0000E+00  0.0000E+00  0.0000E+00  0.0000E+00  0.0000E+00  0.0000E+00  0.0000E+00  0.0000E+00  0.0000E+00
    -34.524  0.0000E+00  0.0000E+00  0.0000E+00  0.0000E+00  0.0000E+00  0.0000E+00  0.0000E+00  0.0000E+00  0.0000E+00
    -34.266  0.0000E+00  0.0000E+00  0.0000E+00  0.0000E+00  0.0000E+00  0.0000E+00  0.0000E+00  0.0000E+00  0.0000E+00
    -34.008  0.0000E+00  0.0000E+00  0.0000E+00  0.0000E+00  0.0000E+00  0.0000E+00  0.0000E+00  0.0000E+00  0.0000E+00
    -33.750  0.0000E+00  0.0000E+00  0.0000E+00  0.0000E+00  0.0000E+00  0.0000E+00  0.0000E+00  0.0000E+00  0.0000E+00
    -33.492  0.0000E+00  0.0000E+00  0.0000E+00  0.0000E+00  0.0000E+00  0.0000E+00  0.0000E+00  0.0000E+00  0.0000E+00
    -33.234  0.0000E+00  0.0000E+00  0.0000E+00  0.0000E+00  0.0000E+00  0.0000E+00  0.0000E+00  0.0000E+00  0.0000E+00
    -32.975  0.0000E+00  0.0000E+00  0.0000E+00  0.0000E+00  0.0000E+00  0.0000E+00  0.0000E+00  0.0000E+00  0.0000E+00
    -32.717  0.0000E+00  0.0000E+00  0.0000E+00  0.0000E+00  0.0000E+00  0.0000E+00  0.0000E+00  0.0000E+00  0.0000E+00
    -32.459  0.0000E+00  0.0000E+00  0.0000E+00  0.0000E+00  0.0000E+00  0.0000E+00  0.0000E+00  0.0000E+00  0.0000E+00
    -32.201  0.0000E+00  0.0000E+00  0.0000E+00  0.0000E+00  0.0000E+00  0.0000E+00  0.0000E+00  0.0000E+00  0.0000E+00
    -31.943  0.0000E+00  0.0000E+00  0.0000E+00  0.0000E+00  0.0000E+00  0.0000E+00  0.0000E+00  0.0000E+00  0.0000E+00
    -31.685  0.0000E+00  0.0000E+00  0.0000E+00  0.0000E+00  0.0000E+00  0.0000E+00  0.0000E+00  0.0000E+00  0.0000E+00
    -31.426  0.0000E+00  0.0000E+00  0.0000E+00  0.0000E+00  0.0000E+00  0.0000E+00  0.0000E+00  0.0000E+00  0.0000E+00
    -31.168  0.0000E+00  0.0000E+00  0.0000E+00  0.0000E+00  0.0000E+00  0.0000E+00  0.0000E+00  0.0000E+00  0.0000E+00
    -30.910  0.0000E+00  0.0000E+00  0.0000E+00  0.0000E+00  0.0000E+00  0.0000E+00  0.0000E+00  0.0000E+00  0.0000E+00
    -30.652  0.0000E+00  0.0000E+00  0.0000E+00  0.0000E+00  0.0000E+00  0.0000E+00  0.0000E+00  0.0000E+00  0.0000E+00
    -30.394  0.0000E+00  0.0000E+00  0.0000E+00  0.0000E+00  0.0000E+00  0.0000E+00  0.0000E+00  0.0000E+00  0.0000E+00
    -30.136  0.0000E+00  0.0000E+00  0.0000E+00  0.0000E+00  0.0000E+00  0.0000E+00  0.0000E+00  0.0000E+00  0.0000E+00
    -29.877  0.0000E+00  0.0000E+00  0.0000E+00  0.0000E+00  0.0000E+00  0.0000E+00  0.0000E+00  0.0000E+00  0.0000E+00
    -29.619  0.0000E+00  0.0000E+00  0.0000E+00  0.0000E+00  0.0000E+00  0.0000E+00  0.0000E+00  0.0000E+00  0.0000E+00
    -29.361  0.0000E+00  0.0000E+00  0.0000E+00  0.0000E+00  0.0000E+00  0.0000E+00  0.0000E+00  0.0000E+00  0.0000E+00
    -29.103  0.0000E+00  0.0000E+00  0.0000E+00  0.0000E+00  0.0000E+00  0.0000E+00  0.0000E+00  0.0000E+00  0.0000E+00
    -28.845  0.0000E+00  0.0000E+00  0.0000E+00  0.0000E+00  0.0000E+00  0.0000E+00  0.0000E+00  0.0000E+00  0.0000E+00
    -28.587  0.0000E+00  0.0000E+00  0.0000E+00  0.0000E+00  0.0000E+00  0.0000E+00  0.0000E+00  0.0000E+00  0.0000E+00
    -28.328  0.0000E+00  0.0000E+00  0.0000E+00  0.0000E+00  0.0000E+00  0.0000E+00  0.0000E+00  0.0000E+00  0.0000E+00
    -28.070  0.0000E+00  0.0000E+00  0.0000E+00  0.0000E+00  0.0000E+00  0.0000E+00  0.0000E+00  0.0000E+00  0.0000E+00
    -27.812  0.0000E+00  0.0000E+00  0.0000E+00  0.0000E+00  0.0000E+00  0.0000E+00  0.0000E+00  0.0000E+00  0.0000E+00
    -27.554  0.0000E+00  0.0000E+00  0.0000E+00  0.0000E+00  0.0000E+00  0.0000E+00  0.0000E+00  0.0000E+00  0.0000E+00
    -27.296  0.0000E+00  0.0000E+00  0.0000E+00  0.0000E+00  0.0000E+00  0.0000E+00  0.0000E+00  0.0000E+00  0.0000E+00
    -27.038  0.0000E+00  0.0000E+00  0.0000E+00  0.0000E+00  0.0000E+00  0.0000E+00  0.0000E+00  0.0000E+00  0.0000E+00
    -26.779  0.0000E+00  0.0000E+00  0.0000E+00  0.0000E+00  0.0000E+00  0.0000E+00  0.0000E+00  0.0000E+00  0.0000E+00
    -26.521  0.0000E+00  0.0000E+00  0.0000E+00  0.0000E+00  0.0000E+00  0.0000E+00  0.0000E+00  0.0000E+00  0.0000E+00
    -26.263  0.0000E+00  0.0000E+00  0.0000E+00  0.0000E+00  0.0000E+00  0.0000E+00  0.0000E+00  0.0000E+00  0.0000E+00
    -26.005  0.0000E+00  0.0000E+00  0.0000E+00  0.0000E+00  0.0000E+00  0.0000E+00  0.0000E+00  0.0000E+00  0.0000E+00
    -25.747 -0.3953E-51 -0.5067E-45 -0.2309E-46 -0.5067E-45 -0.2586E-51 -0.1022E-52 -0.1660E-51 -0.1022E-52 -0.4703E-51
    -25.488 -0.4689E-31 -0.4105E-25 -0.4027E-26 -0.4105E-25 -0.3251E-31 -0.2180E-32 -0.1975E-31 -0.2180E-32 -0.5563E-31
    -25.230 -0.9374E-17 -0.4856E-11 -0.1132E-11 -0.4856E-11 -0.7624E-17 -0.1058E-17 -0.3966E-17 -0.1058E-17 -0.1107E-16
    -24.972 -0.3620E-08 -0.7824E-03 -0.5790E-03 -0.7824E-03 -0.3273E-08 -0.1331E-08 -0.1538E-08 -0.1331E-08 -0.4243E-08
    -24.714  0.7824E-06  0.5184E+00  0.6885E+00  0.5184E+00  0.3344E-05  0.2211E-05  0.3321E-06  0.2211E-05  0.1106E-05
    -24.456  0.4597E-03  0.3499E+01  0.7022E+01  0.3499E+01  0.3128E-04  0.2700E-04  0.1956E-03  0.2700E-04  0.5375E-03
    -24.198  0.3212E-03  0.3272E+01 -0.9470E-01  0.3272E+01  0.1831E-04 -0.3230E-06  0.1371E-03 -0.3230E-06  0.4843E-03
    -23.939 -0.7824E-06  0.3273E+00 -0.1914E-06  0.3273E+00  0.1045E-05  0.1120E-09 -0.3266E-06  0.1120E-09 -0.1254E-05
    -23.681 -0.9300E-09 -0.2607E-03 -0.7126E-11 -0.2607E-03 -0.6999E-09 -0.9349E-13 -0.4012E-09 -0.9349E-13 -0.1344E-08
    -23.423 -0.2439E-18 -0.3070E-12 -0.1015E-20 -0.3070E-12 -0.1594E-18 -0.1080E-21 -0.1059E-18 -0.1080E-21 -0.3518E-18
    -23.165  0.0000E+00  0.0000E+00  0.0000E+00  0.0000E+00  0.0000E+00  0.0000E+00  0.0000E+00  0.0000E+00  0.0000E+00
    -22.907  0.0000E+00  0.0000E+00  0.0000E+00  0.0000E+00  0.0000E+00  0.0000E+00  0.0000E+00  0.0000E+00  0.0000E+00
    -22.649  0.0000E+00  0.0000E+00  0.0000E+00  0.0000E+00  0.0000E+00  0.0000E+00  0.0000E+00  0.0000E+00  0.0000E+00
    -22.390  0.0000E+00  0.0000E+00  0.0000E+00  0.0000E+00  0.0000E+00  0.0000E+00  0.0000E+00  0.0000E+00  0.0000E+00
    -22.132  0.0000E+00  0.0000E+00  0.0000E+00  0.0000E+00  0.0000E+00  0.0000E+00  0.0000E+00  0.0000E+00  0.0000E+00
    -21.874  0.0000E+00  0.0000E+00  0.0000E+00  0.0000E+00  0.0000E+00  0.0000E+00  0.0000E+00  0.0000E+00  0.0000E+00
    -21.616  0.0000E+00  0.0000E+00  0.0000E+00  0.0000E+00  0.0000E+00  0.0000E+00  0.0000E+00  0.0000E+00  0.0000E+00
    -21.358  0.0000E+00  0.0000E+00  0.0000E+00  0.0000E+00  0.0000E+00  0.0000E+00  0.0000E+00  0.0000E+00  0.0000E+00
    -21.100  0.0000E+00  0.0000E+00  0.0000E+00  0.0000E+00  0.0000E+00  0.0000E+00  0.0000E+00  0.0000E+00  0.0000E+00
    -20.841  0.0000E+00  0.0000E+00  0.0000E+00  0.0000E+00  0.0000E+00  0.0000E+00  0.0000E+00  0.0000E+00  0.0000E+00
    -20.583  0.0000E+00  0.0000E+00  0.0000E+00  0.0000E+00  0.0000E+00  0.0000E+00  0.0000E+00  0.0000E+00  0.0000E+00
    -20.325  0.0000E+00  0.0000E+00  0.0000E+00  0.0000E+00  0.0000E+00  0.0000E+00  0.0000E+00  0.0000E+00  0.0000E+00
    -20.067  0.0000E+00  0.0000E+00  0.0000E+00  0.0000E+00  0.0000E+00  0.0000E+00  0.0000E+00  0.0000E+00  0.0000E+00
    -19.809  0.0000E+00  0.0000E+00  0.0000E+00  0.0000E+00  0.0000E+00  0.0000E+00  0.0000E+00  0.0000E+00  0.0000E+00
    -19.551  0.0000E+00  0.0000E+00  0.0000E+00  0.0000E+00  0.0000E+00  0.0000E+00  0.0000E+00  0.0000E+00  0.0000E+00
    -19.292  0.0000E+00  0.0000E+00  0.0000E+00  0.0000E+00  0.0000E+00  0.0000E+00  0.0000E+00  0.0000E+00  0.0000E+00
    -19.034  0.0000E+00  0.0000E+00  0.0000E+00  0.0000E+00  0.0000E+00  0.0000E+00  0.0000E+00  0.0000E+00  0.0000E+00
    -18.776  0.0000E+00  0.0000E+00  0.0000E+00  0.0000E+00  0.0000E+00  0.0000E+00  0.0000E+00  0.0000E+00  0.0000E+00
    -18.518  0.0000E+00  0.0000E+00  0.0000E+00  0.0000E+00  0.0000E+00  0.0000E+00  0.0000E+00  0.0000E+00  0.0000E+00
    -18.260  0.0000E+00  0.0000E+00  0.0000E+00  0.0000E+00  0.0000E+00  0.0000E+00  0.0000E+00  0.0000E+00  0.0000E+00
    -18.002  0.0000E+00  0.0000E+00  0.0000E+00  0.0000E+00  0.0000E+00  0.0000E+00  0.0000E+00  0.0000E+00  0.0000E+00
    -17.743  0.0000E+00  0.0000E+00  0.0000E+00  0.0000E+00  0.0000E+00  0.0000E+00  0.0000E+00  0.0000E+00  0.0000E+00
    -17.485  0.0000E+00  0.0000E+00  0.0000E+00  0.0000E+00  0.0000E+00  0.0000E+00  0.0000E+00  0.0000E+00  0.0000E+00
    -17.227  0.0000E+00  0.0000E+00  0.0000E+00  0.0000E+00  0.0000E+00  0.0000E+00  0.0000E+00  0.0000E+00  0.0000E+00
    -16.969  0.0000E+00  0.0000E+00  0.0000E+00  0.0000E+00  0.0000E+00  0.0000E+00  0.0000E+00  0.0000E+00  0.0000E+00
    -16.711  0.0000E+00  0.0000E+00  0.0000E+00  0.0000E+00  0.0000E+00  0.0000E+00  0.0000E+00  0.0000E+00  0.0000E+00
    -16.453  0.0000E+00  0.0000E+00  0.0000E+00  0.0000E+00  0.0000E+00  0.0000E+00  0.0000E+00  0.0000E+00  0.0000E+00
    -16.194  0.0000E+00  0.0000E+00  0.0000E+00  0.0000E+00  0.0000E+00  0.0000E+00  0.0000E+00  0.0000E+00  0.0000E+00
    -15.936  0.0000E+00  0.0000E+00  0.0000E+00  0.0000E+00  0.0000E+00  0.0000E+00  0.0000E+00  0.0000E+00  0.0000E+00
    -15.678  0.0000E+00  0.0000E+00  0.0000E+00  0.0000E+00  0.0000E+00  0.0000E+00  0.0000E+00  0.0000E+00  0.0000E+00
    -15.420  0.0000E+00  0.0000E+00  0.0000E+00  0.0000E+00  0.0000E+00  0.0000E+00  0.0000E+00  0.0000E+00  0.0000E+00
    -15.162  0.0000E+00  0.0000E+00  0.0000E+00  0.0000E+00  0.0000E+00  0.0000E+00  0.0000E+00  0.0000E+00  0.0000E+00
    -14.904  0.0000E+00  0.0000E+00  0.0000E+00  0.0000E+00  0.0000E+00  0.0000E+00  0.0000E+00  0.0000E+00  0.0000E+00
    -14.645  0.0000E+00  0.0000E+00  0.0000E+00  0.0000E+00  0.0000E+00  0.0000E+00  0.0000E+00  0.0000E+00  0.0000E+00
    -14.387  0.0000E+00  0.0000E+00  0.0000E+00  0.0000E+00  0.0000E+00  0.0000E+00  0.0000E+00  0.0000E+00  0.0000E+00
    -14.129  0.0000E+00  0.0000E+00  0.0000E+00  0.0000E+00  0.0000E+00  0.0000E+00  0.0000E+00  0.0000E+00  0.0000E+00
    -13.871  0.0000E+00  0.0000E+00  0.0000E+00  0.0000E+00  0.0000E+00  0.0000E+00  0.0000E+00  0.0000E+00  0.0000E+00
    -13.613  0.0000E+00  0.0000E+00  0.0000E+00  0.0000E+00  0.0000E+00  0.0000E+00  0.0000E+00  0.0000E+00  0.0000E+00
    -13.354  0.0000E+00  0.0000E+00  0.0000E+00  0.0000E+00  0.0000E+00  0.0000E+00  0.0000E+00  0.0000E+00  0.0000E+00
    -13.096  0.0000E+00  0.0000E+00  0.0000E+00  0.0000E+00  0.0000E+00  0.0000E+00  0.0000E+00  0.0000E+00  0.0000E+00
    -12.838  0.0000E+00  0.0000E+00  0.0000E+00  0.0000E+00  0.0000E+00  0.0000E+00  0.0000E+00  0.0000E+00  0.0000E+00
    -12.580  0.0000E+00  0.0000E+00  0.0000E+00  0.0000E+00  0.0000E+00  0.0000E+00  0.0000E+00  0.0000E+00  0.0000E+00
    -12.322  0.0000E+00  0.0000E+00  0.0000E+00  0.0000E+00  0.0000E+00  0.0000E+00  0.0000E+00  0.0000E+00  0.0000E+00
    -12.064  0.0000E+00  0.0000E+00  0.0000E+00  0.0000E+00  0.0000E+00  0.0000E+00  0.0000E+00  0.0000E+00  0.0000E+00
    -11.805  0.0000E+00  0.0000E+00  0.0000E+00  0.0000E+00  0.0000E+00  0.0000E+00  0.0000E+00  0.0000E+00  0.0000E+00
    -11.547  0.0000E+00  0.0000E+00  0.0000E+00  0.0000E+00  0.0000E+00  0.0000E+00  0.0000E+00  0.0000E+00  0.0000E+00