   16   16    1    1
  0.1621382E+02  0.5650682E-09  0.5650682E-09  0.8124629E-09  0.5000000E-15
  1.000000000000000E-004
  CAR 
 unknown system                          
    120    180    128
 
  0.0000000E+00  0.0000000E+00  0.0000000E+00  0.5555556E-02
      1        -48.301375   1.000000
      2        -48.300759   1.000000
      3        -48.243875   1.000000
      4        -48.243875   1.000000
      5        -48.243414   1.000000
      6        -48.243414   1.000000
      7        -48.188520   1.000000
      8        -48.188078   1.000000
      9        -24.726472   1.000000
     10        -24.726472   1.000000
     11        -24.723825   1.000000
     12        -24.723825   1.000000
     13        -24.714330   1.000000
     14        -24.696955   1.000000
     15        -24.659486   1.000000
     16        -24.659486   1.000000
     17        -24.658117   1.000000
     18        -24.658117   1.000000
     19        -24.652336   1.000000
     20        -24.652336   1.000000
     21        -24.639758   1.000000
     22        -24.639758   1.000000
     23        -24.597551   1.000000
     24        -24.586895   1.000000
     25        -24.255131   1.000000
     26        -24.255131   1.000000
     27        -24.254582   1.000000
     28        -24.254582   1.000000
     29        -24.213600   1.000000
     30        -24.213600   1.000000
     31        -24.213007   1.000000
     32        -24.213007   1.000000
     33         -0.712719   1.000000
     34          0.764149   1.000000
     35          3.063960   1.000000
     36          3.410048   1.000000
     37          3.410048   1.000000
     38          3.756095   1.000000
     39          3.756095   1.000000
     40          3.793569   1.000000
     41          3.793569   1.000000
     42          5.143879   1.000000
     43          5.392231   1.000000
     44          5.392231   1.000000
     45          5.828383   1.000000
     46          6.060574   1.000000
     47          6.060574   1.000000
     48          6.471095   1.000000
     49          6.638614   1.000000
     50          6.638614   1.000000
     51          7.127641   1.000000
     52          7.127641   1.000000
     53          7.173644   1.000000
     54          7.173644   1.000000
     55          7.481051   1.000000
     56          7.651563   1.000000
     57          7.849522   1.000000
     58          7.849522   1.000000
     59          7.914636   1.000004
     60          7.988768   1.000334
     61          8.076279   1.011353
     62          8.076279   1.011353
     63          8.123734   1.031348
     64          8.123734   1.031348
     65          8.977242  -0.000000
     66          9.707279  -0.000000
     67          9.707279  -0.000000
     68         10.076677  -0.000000
     69         10.076677  -0.000000
     70         10.078082  -0.000000
     71         10.121222  -0.000000
     72         10.121222  -0.000000
     73         10.129982  -0.000000
     74         10.129982  -0.000000
     75         10.453115   0.000000
     76         10.478823   0.000000
     77         10.478823   0.000000
     78         10.607818   0.000000
     79         10.607818   0.000000
     80         10.833649   0.000000
     81         10.833649   0.000000
     82         11.035161   0.000000
     83         11.635473   0.000000
     84         11.649149   0.000000
     85         12.134003   0.000000
     86         12.134003   0.000000
     87         12.496220   0.000000
     88         12.496220   0.000000
     89         12.498499   0.000000
     90         12.500778   0.000000
     91         12.638596   0.000000
     92         12.638596   0.000000
     93         13.287915   0.000000
     94         13.347714   0.000000
     95         13.347714   0.000000
     96         13.448720   0.000000
     97         13.448720   0.000000
     98         13.657027   0.000000
     99         13.657027   0.000000
    100         13.974559   0.000000
    101         13.974559   0.000000
    102         14.318070   0.000000
    103         14.516475   0.000000
    104         14.668001   0.000000
    105         16.235404   0.000000
    106         16.313285   0.000000
    107         16.313285   0.000000
    108         16.608167   0.000000
    109         16.672236   0.000000
    110         16.672236   0.000000
    111         17.416895   0.000000
    112         17.721283   0.000000
    113         18.668335   0.000000
    114         18.668335   0.000000
    115         19.054867   0.000000
    116         19.054867   0.000000
    117         19.388890   0.000000
    118         19.388890   0.000000
    119         19.948422   0.000000
    120         20.552781   0.000000
    121         20.552781   0.000000
    122         20.573195   0.000000
    123         20.573195   0.000000
    124         20.972660   0.000000
    125         20.976559   0.000000
    126         20.976568   0.000000
    127         21.025511   0.000000
    128         21.025534   0.000000
 
  0.0000000E+00  0.2631579E-01  0.0000000E+00  0.5555556E-02
      1        -48.301277   1.000000
      2        -48.300666   1.000000
      3        -48.243974   1.000000
      4        -48.243781   1.000000
      5        -48.243512   1.000000
      6        -48.243319   1.000000
      7        -48.188616   1.000000
      8        -48.188168   1.000000
      9        -24.726357   1.000000
     10        -24.725690   1.000000
     11        -24.723711   1.000000
     12        -24.723044   1.000000
     13        -24.714239   1.000000
     14        -24.696858   1.000000
     15        -24.659603   1.000000
     16        -24.658746   1.000000
     17        -24.658212   1.000000
     18        -24.657358   1.000000
     19        -24.652443   1.000000
     20        -24.652241   1.000000
     21        -24.639856   1.000000
     22        -24.639666   1.000000
     23        -24.597643   1.000000
     24        -24.586986   1.000000
     25        -24.255964   1.000000
     26        -24.255416   1.000000
     27        -24.255061   1.000000
     28        -24.254518   1.000000
     29        -24.214378   1.000000
     30        -24.213777   1.000000
     31        -24.213669   1.000000
     32        -24.213074   1.000000
     33         -0.709298   1.000000
     34          0.766653   1.000000
     35          3.067790   1.000000
     36          3.396752   1.000000
     37          3.412849   1.000000
     38          3.561771   1.000000
     39          3.758053   1.000000
     40          3.796941   1.000000
     41          3.990732   1.000000
     42          5.141045   1.000000
     43          5.393480   1.000000
     44          5.408369   1.000000
     45          5.830286   1.000000
     46          6.051223   1.000000
     47          6.059713   1.000000
     48          6.473936   1.000000
     49          6.640463   1.000000
     50          6.640529   1.000000
     51          7.008743   1.000000
     52          7.132889   1.000000
     53          7.170655   1.000000
     54          7.286572   1.000000
     55          7.482412   1.000000
     56          7.653460   1.000000
     57          7.705424   1.000000
     58          7.851371   1.000000
     59          7.985553   1.000283
     60          8.057173   1.006185
     61          8.073635   1.010501
     62          8.080085   1.012660
     63          8.120157   1.029929
     64          8.126567   1.032373
     65          8.978555  -0.000000
     66          9.707024  -0.000000
     67          9.708468  -0.000000
     68         10.069236  -0.000000
     69         10.078822  -0.000000
     70         10.090651  -0.000000
     71         10.114006  -0.000000
     72         10.122000  -0.000000
     73         10.132138  -0.000000
     74         10.133352  -0.000000
     75         10.451581   0.000000
     76         10.479401   0.000000
     77         10.482785   0.000000
     78         10.606410   0.000000
     79         10.606929   0.000000
     80         10.822729   0.000000
     81         10.833016   0.000000
     82         11.027664   0.000000
     83         11.631976   0.000000
     84         11.645929   0.000000
     85         12.134151   0.000000
     86         12.138248   0.000000
     87         12.337622   0.000000
     88         12.489356   0.000000
     89         12.494188   0.000000
     90         12.624683   0.000000
     91         12.637986   0.000000
     92         12.650528   0.000000
     93         13.296441   0.000000
     94         13.349105   0.000000
     95         13.363533   0.000000
     96         13.437098   0.000000
     97         13.462389   0.000000
     98         13.666521   0.000000
     99         13.667778   0.000000
    100         13.974514   0.000000
    101         13.979556   0.000000
    102         14.323373   0.000000
    103         14.516284   0.000000
    104         14.670082   0.000000
    105         16.220319   0.000000
    106         16.311335   0.000000
    107         16.329469   0.000000
    108         16.566179   0.000000
    109         16.619347   0.000000
    110         16.676769   0.000000
    111         17.512374   0.000000
    112         17.717525   0.000000
    113         18.653607   0.000000
    114         18.672636   0.000000
    115         19.056201   0.000000
    116         19.077328   0.000000
    117         19.386620   0.000000
    118         19.392058   0.000000
    119         19.960793   0.000000
    120         20.376248   0.000000
    121         20.425373   0.000000
    122         20.556411   0.000000
    123         20.566601   0.000000
    124         20.957373   0.000000
    125         20.992194   0.000000
    126         21.031815   0.000000
    127         21.086400   0.000000
    128         21.103342   0.000000
 
  0.0000000E+00  0.5263158E-01  0.0000000E+00  0.5555556E-02
      1        -48.300987   1.000000
      2        -48.300375   1.000000
      3        -48.244272   1.000000
      4        -48.243809   1.000000
      5        -48.243504   1.000000
      6        -48.243036   1.000000
      7        -48.188901   1.000000
      8        -48.188453   1.000000
      9        -24.726020   1.000000
     10        -24.723374   1.000000
     11        -24.723350   1.000000
     12        -24.720713   1.000000
     13        -24.713925   1.000000
     14        -24.696574   1.000000
     15        -24.659951   1.000000
     16        -24.658551   1.000000
     17        -24.656530   1.000000
     18        -24.655140   1.000000
     19        -24.652773   1.000000
     20        -24.651960   1.000000
     21        -24.640161   1.000000
     22        -24.639405   1.000000
     23        -24.597926   1.000000
     24        -24.587260   1.000000
     25        -24.258458   1.000000
     26        -24.257889   1.000000
     27        -24.254855   1.000000
     28        -24.254305   1.000000
     29        -24.216733   1.000000
     30        -24.216089   1.000000
     31        -24.213883   1.000000
     32        -24.213282   1.000000
     33         -0.699053   1.000000
     34          0.774179   1.000000
     35          3.079262   1.000000
     36          3.353124   1.000000
     37          3.358145   1.000000
     38          3.421252   1.000000
     39          3.763916   1.000000
     40          3.807044   1.000000
     41          4.207833   1.000000
     42          5.132573   1.000000
     43          5.397217   1.000000
     44          5.455482   1.000000
     45          5.835984   1.000000
     46          6.023571   1.000000
     47          6.057120   1.000000
     48          6.482430   1.000000
     49          6.646002   1.000000
     50          6.646268   1.000000
     51          6.864733   1.000000
     52          7.148604   1.000000
     53          7.161732   1.000000
     54          7.412652   1.000000
     55          7.486462   1.000000
     56          7.532686   1.000000
     57          7.659131   1.000000
     58          7.856948   1.000000
     59          7.975969   1.000171
     60          8.065726   1.008217
     61          8.091481   1.017094
     62          8.109488   1.025201
     63          8.135063   1.034709
     64          8.225067   0.809099
     65          8.982493  -0.000000
     66          9.706227  -0.000000
     67          9.712030  -0.000000
     68         10.047175  -0.000000
     69         10.085248  -0.000000
     70         10.092429  -0.000000
     71         10.124330  -0.000000
     72         10.127849  -0.000000
     73         10.138598  -0.000000
     74         10.143419  -0.000000
     75         10.446982   0.000000
     76         10.481131   0.000000
     77         10.494621   0.000000
     78         10.602214   0.000000
     79         10.604268   0.000000
     80         10.790653   0.000000
     81         10.831115   0.000000
     82         11.005873   0.000000
     83         11.621535   0.000000
     84         11.636304   0.000000
     85         12.134580   0.000000
     86         12.150970   0.000000
     87         12.168674   0.000000
     88         12.468991   0.000000
     89         12.481457   0.000000
     90         12.584945   0.000000
     91         12.636148   0.000000
     92         12.793075   0.000000
     93         13.321946   0.000000
     94         13.353345   0.000000
     95         13.403005   0.000000
     96         13.410265   0.000000
     97         13.502702   0.000000
     98         13.694738   0.000000
     99         13.698140   0.000000
    100         13.974376   0.000000
    101         13.994646   0.000000
    102         14.339190   0.000000
    103         14.515659   0.000000
    104         14.676476   0.000000
    105         16.175633   0.000000
    106         16.305466   0.000000
    107         16.333295   0.000000
    108         16.377234   0.000000
    109         16.652635   0.000000
    110         16.690325   0.000000
    111         17.708333   0.000000
    112         17.713529   0.000000
    113         18.610245   0.000000
    114         18.685377   0.000000
    115         19.060246   0.000000
    116         19.142161   0.000000
    117         19.379482   0.000000
    118         19.401468   0.000000
    119         19.997809   0.000000
    120         20.057577   0.000000
    121         20.196801   0.000000
    122         20.547192   0.000000
    123         20.567324   0.000000
    124         20.883775   0.000000
    125         20.895175   0.000000
    126         20.901870   0.000000
    127         20.911049   0.000000
    128         21.050656   0.000000
 
  0.0000000E+00  0.7894737E-01  0.0000000E+00  0.5555556E-02
      1        -48.300506   1.000000
      2        -48.299893   1.000000
      3        -48.244763   1.000000
      4        -48.244297   1.000000
      5        -48.243037   1.000000
      6        -48.242569   1.000000
      7        -48.189373   1.000000
      8        -48.188926   1.000000
      9        -24.725455   1.000000
     10        -24.722818   1.000000
     11        -24.719461   1.000000
     12        -24.716826   1.000000
     13        -24.713407   1.000000
     14        -24.696095   1.000000
     15        -24.660525   1.000000
     16        -24.659109   1.000000
     17        -24.653297   1.000000
     18        -24.652847   1.000000
     19        -24.651496   1.000000
     20        -24.651455   1.000000
     21        -24.640649   1.000000
     22        -24.638959   1.000000
     23        -24.598393   1.000000
     24        -24.587715   1.000000
     25        -24.262583   1.000000
     26        -24.261992   1.000000
     27        -24.254515   1.000000
     28        -24.253958   1.000000
     29        -24.220603   1.000000
     30        -24.219956   1.000000
     31        -24.214236   1.000000
     32        -24.213629   1.000000
     33         -0.681992   1.000000
     34          0.786712   1.000000
     35          3.098336   1.000000
     36          3.147698   1.000000
     37          3.297606   1.000000
     38          3.435243   1.000000
     39          3.773671   1.000000
     40          3.823861   1.000000
     41          4.427165   1.000000
     42          5.118542   1.000000
     43          5.403418   1.000000
     44          5.530168   1.000000
     45          5.845453   1.000000
     46          5.978769   1.000000
     47          6.052783   1.000000
     48          6.496503   1.000000
     49          6.655209   1.000000
     50          6.655816   1.000000
     51          6.716064   1.000000
     52          7.147016   1.000000
     53          7.174748   1.000000
     54          7.359113   1.000000
     55          7.493108   1.000000
     56          7.531390   1.000000
     57          7.668513   1.000000
     58          7.866348   1.000000
     59          7.960204   1.000072
     60          8.052630   1.005277
     61          8.091909   1.017275
     62          8.110406   1.025624
     63          8.149209   1.034675
     64          8.390024  -0.035352
     65          8.989048  -0.000000
     66          9.704785  -0.000000
     67          9.717945  -0.000000
     68         10.011265  -0.000000
     69         10.056712  -0.000000
     70         10.095934  -0.000000
     71         10.128197  -0.000000
     72         10.149331  -0.000000
     73         10.160078  -0.000000
     74         10.188312  -0.000000
     75         10.439330   0.000000
     76         10.484004   0.000000
     77         10.514187   0.000000
     78         10.595317   0.000000
     79         10.599858   0.000000
     80         10.739331   0.000000
     81         10.827963   0.000000
     82         10.971726   0.000000
     83         11.604311   0.000000
     84         11.620388   0.000000
     85         11.992486   0.000000
     86         12.135246   0.000000
     87         12.172165   0.000000
     88         12.435781   0.000000
     89         12.460926   0.000000
     90         12.524305   0.000000
     91         12.633055   0.000000
     92         12.925728   0.000000
     93         13.348563   0.000000
     94         13.360666   0.000000
     95         13.364229   0.000000
     96         13.485950   0.000000
     97         13.567765   0.000000
     98         13.740924   0.000000
     99         13.743535   0.000000
    100         13.974126   0.000000
    101         14.020179   0.000000
    102         14.365258   0.000000
    103         14.514421   0.000000
    104         14.687640   0.000000
    105         16.055352   0.000000
    106         16.103049   0.000000
    107         16.295664   0.000000
    108         16.454465   0.000000
    109         16.707367   0.000000
    110         16.712797   0.000000
    111         17.698564   0.000000
    112         17.938728   0.000000
    113         18.540515   0.000000
    114         18.706081   0.000000
    115         19.066982   0.000000
    116         19.242965   0.000000
    117         19.366478   0.000000
    118         19.416897   0.000000
    119         19.722543   0.000000
    120         19.950999   0.000000
    121         20.059069   0.000000
    122         20.516015   0.000000
    123         20.585592   0.000000
    124         20.627294   0.000000
    125         20.683335   0.000000
    126         20.742435   0.000000
    127         20.815654   0.000000
    128         21.036995   0.000000
 
  0.0000000E+00  0.1052632E+00  0.0000000E+00  0.5555556E-02
      1        -48.299834   1.000000
      2        -48.299220   1.000000
      3        -48.245447   1.000000
      4        -48.244978   1.000000
      5        -48.242385   1.000000
      6        -48.241923   1.000000
      7        -48.190031   1.000000
      8        -48.189583   1.000000
      9        -24.724668   1.000000
     10        -24.722051   1.000000
     11        -24.714054   1.000000
     12        -24.712679   1.000000
     13        -24.711434   1.000000
     14        -24.695425   1.000000
     15        -24.661323   1.000000
     16        -24.659887   1.000000
     17        -24.654035   1.000000
     18        -24.650864   1.000000
     19        -24.647718   1.000000
     20        -24.646332   1.000000
     21        -24.641322   1.000000
     22        -24.638331   1.000000
     23        -24.599043   1.000000
     24        -24.588347   1.000000
     25        -24.268298   1.000000
     26        -24.267662   1.000000
     27        -24.254028   1.000000
     28        -24.253470   1.000000
     29        -24.225977   1.000000
     30        -24.225340   1.000000
     31        -24.214736   1.000000
     32        -24.214117   1.000000
     33         -0.658127   1.000000
     34          0.804247   1.000000
     35          2.945963   1.000000
     36          3.124965   1.000000
     37          3.219502   1.000000
     38          3.454803   1.000000
     39          3.787284   1.000000
     40          3.847359   1.000000
     41          4.647967   1.000000
     42          5.099088   1.000000
     43          5.412041   1.000000
     44          5.628010   1.000000
     45          5.858655   1.000000
     46          5.918542   1.000000
     47          6.046686   1.000000
     48          6.516030   1.000000
     49          6.564113   1.000000
     50          6.668050   1.000000
     51          6.669149   1.000000
     52          7.126732   1.000000
     53          7.186129   1.000000
     54          7.211261   1.000000
     55          7.502181   1.000000
     56          7.641385   1.000000
     57          7.681506   1.000000
     58          7.879717   1.000000
     59          7.938556   1.000020
     60          8.034474   1.002657
     61          8.067716   1.008754
     62          8.136753   1.035003
     63          8.168982   1.020321
     64          8.549796  -0.000212
     65          8.998205  -0.000000
     66          9.702522  -0.000000
     67          9.726186  -0.000000
     68          9.962673  -0.000000
     69         10.007209  -0.000000
     70         10.110841  -0.000000
     71         10.133579  -0.000000
     72         10.164297  -0.000000
     73         10.183164  -0.000000
     74         10.269946   0.000000
     75         10.428635   0.000000
     76         10.488003   0.000000
     77         10.541246   0.000000
     78         10.585875   0.000000
     79         10.593732   0.000000
     80         10.671456   0.000000
     81         10.823582   0.000000
     82         10.927925   0.000000
     83         11.580561   0.000000
     84         11.598380   0.000000
     85         11.810045   0.000000
     86         12.136073   0.000000
     87         12.201801   0.000000
     88         12.390756   0.000000
     89         12.433616   0.000000
     90         12.448528   0.000000
     91         12.628667   0.000000
     92         13.048233   0.000000
     93         13.276747   0.000000
     94         13.371469   0.000000
     95         13.422952   0.000000
     96         13.587868   0.000000
     97         13.654906   0.000000
     98         13.798762   0.000000
     99         13.803909   0.000000
    100         13.973736   0.000000
    101         14.056725   0.000000
    102         14.401156   0.000000
    103         14.512162   0.000000
    104         14.704266   0.000000
    105         15.760089   0.000000
    106         16.005381   0.000000
    107         16.281889   0.000000
    108         16.558168   0.000000
    109         16.744005   0.000000
    110         16.782524   0.000000
    111         17.693204   0.000000
    112         18.160745   0.000000
    113         18.447652   0.000000
    114         18.734005   0.000000
    115         19.076428   0.000000
    116         19.345540   0.000000
    117         19.372242   0.000000
    118         19.383709   0.000000
    119         19.437934   0.000000
    120         19.701985   0.000000
    121         20.144014   0.000000
    122         20.324836   0.000000
    123         20.474611   0.000000
    124         20.486676   0.000000
    125         20.544239   0.000000
    126         20.611331   0.000000
    127         20.705621   0.000000
    128         20.815238   0.000000
 
  0.0000000E+00  0.1315789E+00  0.0000000E+00  0.5555556E-02
      1        -48.298976   1.000000
      2        -48.298367   1.000000
      3        -48.246316   1.000000
      4        -48.245845   1.000000
      5        -48.241559   1.000000
      6        -48.241098   1.000000
      7        -48.190867   1.000000
      8        -48.190418   1.000000
      9        -24.723668   1.000000
     10        -24.721072   1.000000
     11        -24.711754   1.000000
     12        -24.707155   1.000000
     13        -24.704559   1.000000
     14        -24.694573   1.000000
     15        -24.662338   1.000000
     16        -24.660880   1.000000
     17        -24.654967   1.000000
     18        -24.650051   1.000000
     19        -24.642184   1.000000
     20        -24.641177   1.000000
     21        -24.639798   1.000000
     22        -24.637541   1.000000
     23        -24.599861   1.000000
     24        -24.589148   1.000000
     25        -24.275565   1.000000
     26        -24.274901   1.000000
     27        -24.253407   1.000000
     28        -24.252853   1.000000
     29        -24.232841   1.000000
     30        -24.232207   1.000000
     31        -24.215360   1.000000
     32        -24.214736   1.000000
     33         -0.627483   1.000000
     34          0.826765   1.000000
     35          2.748199   1.000000
     36          3.128208   1.000000
     37          3.159078   1.000000
     38          3.479914   1.000000
     39          3.804700   1.000000
     40          3.877501   1.000000
     41          4.869552   1.000000
     42          5.074396   1.000000
     43          5.423026   1.000000
     44          5.744565   1.000000
     45          5.844966   1.000000
     46          5.875536   1.000000
     47          6.038807   1.000000
     48          6.409814   1.000000
     49          6.540830   1.000000
     50          6.684473   1.000000
     51          6.686229   1.000000
     52          7.014470   1.000000
     53          7.101179   1.000000
     54          7.258059   1.000000
     55          7.513437   1.000000
     56          7.697962   1.000000
     57          7.741718   1.000000
     58          7.897242   1.000001
     59          7.911410   1.000003
     60          8.011437   1.000992
     61          8.037304   1.002973
     62          8.170386   1.018420
     63          8.194353   0.961678
     64          8.702502  -0.000000
     65          9.009946  -0.000000
     66          9.699192  -0.000000
     67          9.736712  -0.000000
     68          9.902843  -0.000000
     69          9.944389  -0.000000
     70         10.129920  -0.000000
     71         10.140445  -0.000000
     72         10.183439  -0.000000
     73         10.212461  -0.000000
     74         10.370128   0.000000
     75         10.414891   0.000000
     76         10.493104   0.000000
     77         10.574102   0.000000
     78         10.575501   0.000000
     79         10.585943   0.000000
     80         10.590023   0.000000
     81         10.818009   0.000000
     82         10.877403   0.000000
     83         11.550626   0.000000
     84         11.570547   0.000000
     85         11.622417   0.000000
     86         12.136963   0.000000
     87         12.239855   0.000000
     88         12.335182   0.000000
     89         12.362860   0.000000
     90         12.400962   0.000000
     91         12.622920   0.000000
     92         13.160516   0.000000
     93         13.190841   0.000000
     94         13.386336   0.000000
     95         13.497670   0.000000
     96         13.713037   0.000000
     97         13.761169   0.000000
     98         13.859370   0.000000
     99         13.882260   0.000000
    100         13.973171   0.000000
    101         14.105027   0.000000
    102         14.446311   0.000000
    103         14.507956   0.000000
    104         14.727260   0.000000
    105         15.458577   0.000000
    106         15.886263   0.000000
    107         16.264074   0.000000
    108         16.685052   0.000000
    109         16.783704   0.000000
    110         16.876832   0.000000
    111         17.695709   0.000000
    112         18.335290   0.000000
    113         18.369899   0.000000
    114         18.768197   0.000000
    115         19.044512   0.000000
    116         19.088584   0.000000
    117         19.312785   0.000000
    118         19.453282   0.000000
    119         19.463995   0.000000
    120         19.523265   0.000000
    121         20.015639   0.000000
    122         20.251854   0.000000
    123         20.294182   0.000000
    124         20.311001   0.000000
    125         20.424782   0.000000
    126         20.575250   0.000000
    127         20.578439   0.000000
    128         20.644704   0.000000
 
  0.0000000E+00  0.1578947E+00  0.0000000E+00  0.5555556E-02
      1        -48.297939   1.000000
      2        -48.297334   1.000000
      3        -48.247367   1.000000
      4        -48.246891   1.000000
      5        -48.240560   1.000000
      6        -48.240105   1.000000
      7        -48.191879   1.000000
      8        -48.191428   1.000000
      9        -24.722461   1.000000
     10        -24.719887   1.000000
     11        -24.710637   1.000000
     12        -24.698814   1.000000
     13        -24.696251   1.000000
     14        -24.693538   1.000000
     15        -24.663561   1.000000
     16        -24.662083   1.000000
     17        -24.656097   1.000000
     18        -24.649066   1.000000
     19        -24.643227   1.000000
     20        -24.636587   1.000000
     21        -24.633268   1.000000
     22        -24.631906   1.000000
     23        -24.600860   1.000000
     24        -24.590117   1.000000
     25        -24.284338   1.000000