       N       E                     dE             d eps       ncg     rms          rms(c)
DAV:   1    -0.983546435127E+02   -0.98355E+02   -0.65195E-07 52864   0.152E-03
DAV:   2    -0.983546435244E+02   -0.11711E-07   -0.11036E-07 37184   0.735E-04
   1 F= -.98354644E+02 E0= -.98358574E+02  d E =0.117900E-01
