 vasp.6.5.0 16Dec24 (build Apr 17 2025 17:55:45) complex                        
  
 executed on             LinuxIFC date 2025.06.04  15:38:16
 running   64 mpi-ranks, on    1 nodes
 distrk:  each k-point on   64 cores,    1 groups
 distr:  one band on NCORE=   1 cores,   64 groups


--------------------------------------------------------------------------------------------------------


 INCAR:
   ISTART = 1
   ICHARG = 11
   PREC = N
   LREAL = .FALSE.
   LORBIT = 11
   ENCUT = 520
   ALGO = N
   NELM = 500
   EDIFF = 1E-05
   IBRION = -1
   ISIF = 3
   NSW = 0
   EDIFFG = -0.01
   ISMEAR = 1
   SIGMA = 0.1

 POTCAR:    PAW_PBE Ti_sv 26Sep2005               
 POTCAR:    PAW_PBE Al 04Jan2001                  
 -----------------------------------------------------------------------------
|                                                                             |
|           W    W    AA    RRRRR   N    N  II  N    N   GGGG   !!!           |
|           W    W   A  A   R    R  NN   N  II  NN   N  G    G  !!!           |
|           W    W  A    A  R    R  N N  N  II  N N  N  G       !!!           |
|           W WW W  AAAAAA  RRRRR   N  N N  II  N  N N  G  GGG   !            |
|           WW  WW  A    A  R   R   N   NN  II  N   NN  G    G                |
|           W    W  A    A  R    R  N    N  II  N    N   GGGG   !!!           |
|                                                                             |
|     For optimal performance we recommend to set                             |
|       NCORE = 2 up to number-of-cores-per-socket                            |
|     NCORE specifies how many cores store one orbital (NPAR=cpu/NCORE).      |
|     This setting can greatly improve the performance of VASP for DFT.       |
|     The default, NCORE=1 might be grossly inefficient on modern             |
|     multi-core architectures or massively parallel machines. Do your        |
|     own testing! More info at https://www.vasp.at/wiki/index.php/NCORE      |
|     Unfortunately you need to use the default for GW and RPA                |
|     calculations (for HF NCORE is supported but not extensively tested      |
|     yet).                                                                   |
|                                                                             |
 -----------------------------------------------------------------------------

 POTCAR:    PAW_PBE Ti_sv 26Sep2005               
   SHA256 =  4d747badb5a5ea28d858fbac70885b3f8929d6fd9e5b0dbe1ecb9878dc164da1 Ti_sv/POTCAR          
   COPYR  = (c) Copyright 26Sep2005 Georg Kresse                                                    
   COPYR  = This file is part of the software VASP. Any use, copying, and all other rights are regul
   COPYR  = If you do not have a valid VASP license, you may not use, copy or distribute this file. 
   VRHFIN =Ti: 3p4s3d                                                                               
   LEXCH  = PE                                                                                      
   EATOM  =  1588.0892 eV,  116.7213 Ry                                                             
                                                                                                    
   TITEL  = PAW_PBE Ti_sv 26Sep2005                                                                 
   LULTRA =        F    use ultrasoft PP ?                                                          
   IUNSCR =        1    unscreen: 0-lin 1-nonlin 2-no                                               
   RPACOR =    2.000    partial core radius                                                         
   POMASS =   47.880; ZVAL   =   12.000    mass and valenz                                          
   RCORE  =    2.300    outmost cutoff radius                                                       
   RWIGS  =    2.300; RWIGS  =    1.217    wigner-seitz radius (au A)                               
   ENMAX  =  274.610; ENMIN  =  205.957 eV                                                          
   ICORE  =        3    local potential                                                             
   LCOR   =        T    correct aug charges                                                         
   LPAW   =        T    paw PP                                                                      
   EAUG   =  482.848                                                                                
   RMAX   =    2.348    core radius for proj-oper                                                   
   RAUG   =    1.300    factor for augmentation sphere                                              
   RDEP   =    2.381    radius for radial grids                                                     
   RDEPT  =    1.930    core radius for aug-charge                                                  
                                                                                                    
   Atomic configuration                                                                             
    8 entries                                                                                       
     n  l   j            E        occ.                                                              
     1  0  0.50     -4865.3608   2.0000                                                             
     2  0  0.50      -533.1368   2.0000                                                             
     2  1  1.50      -440.5031   6.0000                                                             
     3  0  0.50       -59.3186   2.0000                                                             
     4  0  0.50        -3.7291   1.0000                                                             
     3  1  1.50       -35.7012   6.0000                                                             
     3  2  2.50        -1.9157   3.0000                                                             
     4  3  2.50        -1.3606   0.0000                                                             
   Description                                                                                      
     l       E           TYP  RCUT    TYP  RCUT                                                     
     0    -59.3185931     23  1.800                                                                 
     0     -3.7290822     23  2.300                                                                 
     1    -35.7012045     23  2.300                                                                 
     1     -1.3605826     23  2.300                                                                 
     2     -1.9156920     23  2.300                                                                 
     2     -0.0236318     23  2.300                                                                 
     3     -1.3605826     23  2.300                                                                 
  local pseudopotential read in
  partial core-charges read in
  partial kinetic energy density read in
  atomic valenz-charges read in
  non local Contribution for L=           0  read in
    real space projection operators read in
  non local Contribution for L=           0  read in
    real space projection operators read in
  non local Contribution for L=           1  read in
    real space projection operators read in
  non local Contribution for L=           1  read in
    real space projection operators read in
  non local Contribution for L=           2  read in
    real space projection operators read in
  non local Contribution for L=           2  read in
    real space projection operators read in
    PAW grid and wavefunctions read in
 
   number of l-projection  operators is LMAX  =           6
   number of lm-projection operators is LMMAX =          18
 
 POTCAR:    PAW_PBE Al 04Jan2001                  
   SHA256 =  17880443556af62b473fe41b62a467bd001ad55d2cabe504a3f22e34d4e9db96 Al/POTCAR             
   COPYR  = (c) Copyright 04Jan2001 Georg Kresse                                                    
   COPYR  = This file is part of the software VASP. Any use, copying, and all other rights are regul
   COPYR  = If you do not have a valid VASP license, you may not use, copy or distribute this file. 
   VRHFIN =Al: s2p1                                                                                 
   LEXCH  = PE                                                                                      
   EATOM  =    53.5387 eV,    3.9350 Ry                                                             
                                                                                                    
   TITEL  = PAW_PBE Al 04Jan2001                                                                    
   LULTRA =        F    use ultrasoft PP ?                                                          
   IUNSCR =        1    unscreen: 0-lin 1-nonlin 2-no                                               
   RPACOR =    1.500    partial core radius                                                         
   POMASS =   26.981; ZVAL   =    3.000    mass and valenz                                          
   RCORE  =    1.900    outmost cutoff radius                                                       
   RWIGS  =    2.650; RWIGS  =    1.402    wigner-seitz radius (au A)                               
   ENMAX  =  240.300; ENMIN  =  180.225 eV                                                          
   ICORE  =        2    local potential                                                             
   LCOR   =        T    correct aug charges                                                         
   LPAW   =        T    paw PP                                                                      
   EAUG   =  291.052                                                                                
   DEXC   =    0.000                                                                                
   RMAX   =    1.939    core radius for proj-oper                                                   
   RAUG   =    1.300    factor for augmentation sphere                                              
   RDEP   =    1.966    radius for radial grids                                                     
   RDEPT  =    1.856    core radius for aug-charge                                                  
                                                                                                    
   Atomic configuration                                                                             
    6 entries                                                                                       
     n  l   j            E        occ.                                                              
     1  0  0.50     -1511.1048   2.0000                                                             
     2  0  0.50      -108.1629   2.0000                                                             
     2  1  1.50       -69.6402   6.0000                                                             
     3  0  0.50        -7.7528   2.0000                                                             
     3  1  1.50        -2.7121   1.0000                                                             
     3  2  2.50        -2.7212   0.0000                                                             
   Description                                                                                      
     l       E           TYP  RCUT    TYP  RCUT                                                     
     0     -7.7528455     23  1.900                                                                 
     0     -3.3096929     23  1.900                                                                 
     1     -2.7120682     23  1.900                                                                 
     1     13.6058260     23  1.900                                                                 
     2     -2.7211652      7  1.900                                                                 
  local pseudopotential read in
  partial core-charges read in
  partial kinetic energy density read in
  atomic valenz-charges read in
  non local Contribution for L=           0  read in
    real space projection operators read in
  non local Contribution for L=           0  read in
    real space projection operators read in
  non local Contribution for L=           1  read in
    real space projection operators read in
  non local Contribution for L=           1  read in
    real space projection operators read in
    PAW grid and wavefunctions read in
 
   number of l-projection  operators is LMAX  =           4
   number of lm-projection operators is LMMAX =           8
 
  PAW_PBE Ti_sv 26Sep2005               :
 energy of atom  1       EATOM=-1588.0892
 kinetic energy error for atom=    0.0042 (will be added to EATOM!!)
  PAW_PBE Al 04Jan2001                  :
 energy of atom  2       EATOM=  -53.5387
 kinetic energy error for atom=    0.0002 (will be added to EATOM!!)
 
 
 POSCAR: Ti1 Al1
  positions in direct lattice
  velocities in cartesian coordinates


 exchange-correlation table for PE
   RHO(1)=    0.500       N(1)  =     2000
   RHO(2)=  100.500       N(2)  =     4000
 


--------------------------------------------------------------------------------------------------------


 ion  position               nearest neighbor table
   1  0.000  0.000  0.000-   3 2.83   5 2.83   3 2.83   5 2.83  11 2.85  12 2.85  13 2.85  14 2.85
                            15 2.85  16 2.85   9 2.85  10 2.85
   2  0.000  0.000  0.500-   4 2.83   6 2.83   4 2.83   6 2.83  11 2.85  12 2.85  13 2.85  14 2.85
                            15 2.85  16 2.85   9 2.85  10 2.85
   3  0.000  0.500  0.000-   1 2.83   7 2.83   1 2.83   7 2.83  11 2.85  12 2.85  13 2.85  14 2.85
                            15 2.85  16 2.85   9 2.85  10 2.85
   4  0.000  0.500  0.500-   2 2.83   8 2.83   2 2.83   8 2.83  11 2.85  12 2.85  13 2.85  14 2.85
                            15 2.85  16 2.85   9 2.85  10 2.85
   5  0.500  0.000  0.000-   1 2.83   7 2.83   7 2.83   1 2.83  11 2.85  12 2.85  13 2.85  14 2.85
                            15 2.85  16 2.85   9 2.85  10 2.85
   6  0.500  0.000  0.500-   2 2.83   8 2.83   8 2.83   2 2.83  11 2.85  12 2.85  13 2.85  14 2.85
                            15 2.85  16 2.85   9 2.85  10 2.85
   7  0.500  0.500  0.000-   3 2.83   5 2.83   5 2.83   3 2.83  11 2.85  12 2.85  13 2.85  14 2.85
                            15 2.85  16 2.85   9 2.85  10 2.85
   8  0.500  0.500  0.500-   4 2.83   6 2.83   6 2.83   4 2.83  11 2.85  12 2.85  13 2.85  14 2.85
                            15 2.85  16 2.85   9 2.85  10 2.85
   9  0.250  0.250  0.250-  11 2.83  13 2.83  11 2.83  13 2.83   5 2.85   6 2.85   7 2.85   8 2.85
                             1 2.85   2 2.85   3 2.85   4 2.85
  10  0.250  0.250  0.750-  12 2.83  14 2.83  12 2.83  14 2.83   5 2.85   6 2.85   7 2.85   8 2.85
                             1 2.85   2 2.85   3 2.85   4 2.85
  11  0.250  0.750  0.250-   9 2.83  15 2.83   9 2.83  15 2.83   5 2.85   6 2.85   7 2.85   8 2.85
                             1 2.85   2 2.85   3 2.85   4 2.85
  12  0.250  0.750  0.750-  10 2.83  16 2.83  10 2.83  16 2.83   5 2.85   6 2.85   7 2.85   8 2.85
                             1 2.85   2 2.85   3 2.85   4 2.85
  13  0.750  0.250  0.250-   9 2.83  15 2.83  15 2.83   9 2.83   5 2.85   6 2.85   7 2.85   8 2.85
                             1 2.85   2 2.85   3 2.85   4 2.85
  14  0.750  0.250  0.750-  10 2.83  16 2.83  16 2.83  10 2.83   5 2.85   6 2.85   7 2.85   8 2.85
                             1 2.85   2 2.85   3 2.85   4 2.85
  15  0.750  0.750  0.250-  11 2.83  13 2.83  13 2.83  11 2.83   5 2.85   6 2.85   7 2.85   8 2.85
                             1 2.85   2 2.85   3 2.85   4 2.85
  16  0.750  0.750  0.750-  12 2.83  14 2.83  14 2.83  12 2.83   5 2.85   6 2.85   7 2.85   8 2.85
                             1 2.85   2 2.85   3 2.85   4 2.85
 
  LATTYP: Found a simple tetragonal cell.
 ALAT       =     5.6506817720
 C/A-ratio  =     1.4378139695
  
  Lattice vectors:
  
 A1 = (   5.6506817720,   0.0000000000,   0.0000000000)
 A2 = (   0.0000000000,   5.6506817720,   0.0000000000)
 A3 = (   0.0000000000,   0.0000000000,   8.1246291889)


Analysis of symmetry for initial positions (statically):
=====================================================================
 Subroutine PRICEL returns following result:
 
  LATTYP: Found a simple tetragonal cell.
 ALAT       =     2.8253408860
 C/A-ratio  =     1.4378139695
  
  Lattice vectors:
  
 A1 = (   2.8253408860,   0.0000000000,   0.0000000000)
 A2 = (   0.0000000000,   2.8253408860,   0.0000000000)
 A3 = (   0.0000000000,   0.0000000000,   4.0623145945)
 
   8 primitive cells build up your supercell.
 

 Routine SETGRP: Setting up the symmetry group for a 
 simple tetragonal supercell.


 Subroutine GETGRP returns: Found 16 space group operations
 (whereof 16 operations were pure point group operations)
 out of a pool of 16 trial point group operations.


The static configuration has the point symmetry D_4h.


Analysis of symmetry for dynamics (positions and initial velocities):
=====================================================================
 Subroutine PRICEL returns following result:
 
  LATTYP: Found a simple tetragonal cell.
 ALAT       =     2.8253408860
 C/A-ratio  =     1.4378139695
  
  Lattice vectors:
  
 A1 = (   2.8253408860,   0.0000000000,   0.0000000000)
 A2 = (   0.0000000000,   2.8253408860,   0.0000000000)
 A3 = (   0.0000000000,   0.0000000000,   4.0623145945)
 
   8 primitive cells build up your supercell.
 

 Routine SETGRP: Setting up the symmetry group for a 
 simple tetragonal supercell.


 Subroutine GETGRP returns: Found 16 space group operations
 (whereof 16 operations were pure point group operations)
 out of a pool of 16 trial point group operations.


The dynamic configuration has the point symmetry D_4h.


 Subroutine INISYM returns: Found 16 space group operations
 (whereof 16 operations are pure point group operations),
 and found     8 'primitive' translations


----------------------------------------------------------------------------------------

                                     Primitive cell                                     

  volume of cell :      32.4276

  direct lattice vectors                    reciprocal lattice vectors
     2.825340886  0.000000000  0.000000000     0.353939592  0.000000000  0.000000000
     0.000000000  2.825340886  0.000000000     0.000000000  0.353939592  0.000000000
     0.000000000  0.000000000  4.062314594     0.000000000  0.000000000  0.246165081

  length of vectors
     2.825340886  2.825340886  4.062314594     0.353939592  0.353939592  0.246165081

  position of ions in fractional coordinates (direct lattice)
     0.000000000  0.000000000  0.000000000
     0.500000000  0.500000000  0.500000000

  ion indices of the primitive-cell ions
   primitive index   ion index
                 1           1
                 2           9

----------------------------------------------------------------------------------------

 
 
 KPOINTS: K-Path Generated by VASPKIT.            

Interpolating k-points between supplied coordinates.

 Line segments in fractional coordinates (reciprocal lattice):
    0.000000  0.000000  0.000000  ...  0.000000  0.500000  0.000000
    0.000000  0.500000  0.000000  ...  0.500000  0.500000  0.000000
    0.500000  0.500000  0.000000  ...  0.000000  0.000000  0.000000
    0.000000  0.000000  0.000000  ...  0.000000  0.000000  0.500000
    0.000000  0.000000  0.500000  ...  0.000000  0.500000  0.500000
    0.000000  0.500000  0.500000  ...  0.500000  0.500000  0.500000
    0.500000  0.500000  0.500000  ...  0.000000  0.000000  0.500000
    0.000000  0.500000  0.000000  ...  0.000000  0.500000  0.500000
    0.500000  0.500000  0.000000  ...  0.500000  0.500000  0.500000

 Generated    20 points on each line segment, for a total of    180 k-points:

 Following reciprocal coordinates:
            Coordinates               Weight
  0.000000  0.000000  0.000000      0.005556
  0.000000  0.026316  0.000000      0.005556
  0.000000  0.052632  0.000000      0.005556
  0.000000  0.078947  0.000000      0.005556
  0.000000  0.105263  0.000000      0.005556
  0.000000  0.131579  0.000000      0.005556
  0.000000  0.157895  0.000000      0.005556
  0.000000  0.184211  0.000000      0.005556
  0.000000  0.210526  0.000000      0.005556
  0.000000  0.236842  0.000000      0.005556
  0.000000  0.263158  0.000000      0.005556
  0.000000  0.289474  0.000000      0.005556
  0.000000  0.315789  0.000000      0.005556
  0.000000  0.342105  0.000000      0.005556
  0.000000  0.368421  0.000000      0.005556
  0.000000  0.394737  0.000000      0.005556
  0.000000  0.421053  0.000000      0.005556
  0.000000  0.447368  0.000000      0.005556
  0.000000  0.473684  0.000000      0.005556
  0.000000  0.500000  0.000000      0.005556
  0.000000  0.500000  0.000000      0.005556
  0.026316  0.500000  0.000000      0.005556
  0.052632  0.500000  0.000000      0.005556
  0.078947  0.500000  0.000000      0.005556
  0.105263  0.500000  0.000000      0.005556
  0.131579  0.500000  0.000000      0.005556
  0.157895  0.500000  0.000000      0.005556
  0.184211  0.500000  0.000000      0.005556
  0.210526  0.500000  0.000000      0.005556
  0.236842  0.500000  0.000000      0.005556
  0.263158  0.500000  0.000000      0.005556
  0.289474  0.500000  0.000000      0.005556
  0.315789  0.500000  0.000000      0.005556
  0.342105  0.500000  0.000000      0.005556
  0.368421  0.500000  0.000000      0.005556
  0.394737  0.500000  0.000000      0.005556
  0.421053  0.500000  0.000000      0.005556
  0.447368  0.500000  0.000000      0.005556
  0.473684  0.500000  0.000000      0.005556
  0.500000  0.500000  0.000000      0.005556
  0.500000  0.500000  0.000000      0.005556
  0.473684  0.473684  0.000000      0.005556
  0.447368  0.447368  0.000000      0.005556
  0.421053  0.421053  0.000000      0.005556
  0.394737  0.394737  0.000000      0.005556
  0.368421  0.368421  0.000000      0.005556
  0.342105  0.342105  0.000000      0.005556
  0.315789  0.315789  0.000000      0.005556
  0.289474  0.289474  0.000000      0.005556
  0.263158  0.263158  0.000000      0.005556
  0.236842  0.236842  0.000000      0.005556
  0.210526  0.210526  0.000000      0.005556
  0.184211  0.184211  0.000000      0.005556
  0.157895  0.157895  0.000000      0.005556
  0.131579  0.131579  0.000000      0.005556
  0.105263  0.105263  0.000000      0.005556
  0.078947  0.078947  0.000000      0.005556
  0.052632  0.052632  0.000000      0.005556
  0.026316  0.026316  0.000000      0.005556
  0.000000  0.000000  0.000000      0.005556
  0.000000  0.000000  0.000000      0.005556
  0.000000  0.000000  0.026316      0.005556
  0.000000  0.000000  0.052632      0.005556
  0.000000  0.000000  0.078947      0.005556
  0.000000  0.000000  0.105263      0.005556
  0.000000  0.000000  0.131579      0.005556
  0.000000  0.000000  0.157895      0.005556
  0.000000  0.000000  0.184211      0.005556
  0.000000  0.000000  0.210526      0.005556
  0.000000  0.000000  0.236842      0.005556
  0.000000  0.000000  0.263158      0.005556
  0.000000  0.000000  0.289474      0.005556
  0.000000  0.000000  0.315789      0.005556
  0.000000  0.000000  0.342105      0.005556
  0.000000  0.000000  0.368421      0.005556
  0.000000  0.000000  0.394737      0.005556
  0.000000  0.000000  0.421053      0.005556
  0.000000  0.000000  0.447368      0.005556
  0.000000  0.000000  0.473684      0.005556
  0.000000  0.000000  0.500000      0.005556
  0.000000  0.000000  0.500000      0.005556
  0.000000  0.026316  0.500000      0.005556
  0.000000  0.052632  0.500000      0.005556
  0.000000  0.078947  0.500000      0.005556
  0.000000  0.105263  0.500000      0.005556
  0.000000  0.131579  0.500000      0.005556
  0.000000  0.157895  0.500000      0.005556
  0.000000  0.184211  0.500000      0.005556
  0.000000  0.210526  0.500000      0.005556
  0.000000  0.236842  0.500000      0.005556
  0.000000  0.263158  0.500000      0.005556
  0.000000  0.289474  0.500000      0.005556
  0.000000  0.315789  0.500000      0.005556
  0.000000  0.342105  0.500000      0.005556
  0.000000  0.368421  0.500000      0.005556
  0.000000  0.394737  0.500000      0.005556
  0.000000  0.421053  0.500000      0.005556
  0.000000  0.447368  0.500000      0.005556
  0.000000  0.473684  0.500000      0.005556
  0.000000  0.500000  0.500000      0.005556
  0.000000  0.500000  0.500000      0.005556
  0.026316  0.500000  0.500000      0.005556
  0.052632  0.500000  0.500000      0.005556
  0.078947  0.500000  0.500000      0.005556
  0.105263  0.500000  0.500000      0.005556
  0.131579  0.500000  0.500000      0.005556
  0.157895  0.500000  0.500000      0.005556
  0.184211  0.500000  0.500000      0.005556
  0.210526  0.500000  0.500000      0.005556
  0.236842  0.500000  0.500000      0.005556
  0.263158  0.500000  0.500000      0.005556
  0.289474  0.500000  0.500000      0.005556
  0.315789  0.500000  0.500000      0.005556
  0.342105  0.500000  0.500000      0.005556
  0.368421  0.500000  0.500000      0.005556
  0.394737  0.500000  0.500000      0.005556
  0.421053  0.500000  0.500000      0.005556
  0.447368  0.500000  0.500000      0.005556
  0.473684  0.500000  0.500000      0.005556
  0.500000  0.500000  0.500000      0.005556
  0.500000  0.500000  0.500000      0.005556
  0.473684  0.473684  0.500000      0.005556
  0.447368  0.447368  0.500000      0.005556
  0.421053  0.421053  0.500000      0.005556
  0.394737  0.394737  0.500000      0.005556
  0.368421  0.368421  0.500000      0.005556
  0.342105  0.342105  0.500000      0.005556
  0.315789  0.315789  0.500000      0.005556
  0.289474  0.289474  0.500000      0.005556
  0.263158  0.263158  0.500000      0.005556
  0.236842  0.236842  0.500000      0.005556
  0.210526  0.210526  0.500000      0.005556
  0.184211  0.184211  0.500000      0.005556
  0.157895  0.157895  0.500000      0.005556
  0.131579  0.131579  0.500000      0.005556
  0.105263  0.105263  0.500000      0.005556
  0.078947  0.078947  0.500000      0.005556
  0.052632  0.052632  0.500000      0.005556
  0.026316  0.026316  0.500000      0.005556
  0.000000  0.000000  0.500000      0.005556
  0.000000  0.500000  0.000000      0.005556
  0.000000  0.500000  0.026316      0.005556
  0.000000  0.500000  0.052632      0.005556
  0.000000  0.500000  0.078947      0.005556
  0.000000  0.500000  0.105263      0.005556
  0.000000  0.500000  0.131579      0.005556
  0.000000  0.500000  0.157895      0.005556
  0.000000  0.500000  0.184211      0.005556
  0.000000  0.500000  0.210526      0.005556
  0.000000  0.500000  0.236842      0.005556
  0.000000  0.500000  0.263158      0.005556
  0.000000  0.500000  0.289474      0.005556
  0.000000  0.500000  0.315789      0.005556
  0.000000  0.500000  0.342105      0.005556
  0.000000  0.500000  0.368421      0.005556
  0.000000  0.500000  0.394737      0.005556
  0.000000  0.500000  0.421053      0.005556
  0.000000  0.500000  0.447368      0.005556
  0.000000  0.500000  0.473684      0.005556
  0.000000  0.500000  0.500000      0.005556
  0.500000  0.500000  0.000000      0.005556
  0.500000  0.500000  0.026316      0.005556
  0.500000  0.500000  0.052632      0.005556
  0.500000  0.500000  0.078947      0.005556
  0.500000  0.500000  0.105263      0.005556
  0.500000  0.500000  0.131579      0.005556
  0.500000  0.500000  0.157895      0.005556
  0.500000  0.500000  0.184211      0.005556
  0.500000  0.500000  0.210526      0.005556
  0.500000  0.500000  0.236842      0.005556
  0.500000  0.500000  0.263158      0.005556
  0.500000  0.500000  0.289474      0.005556
  0.500000  0.500000  0.315789      0.005556
  0.500000  0.500000  0.342105      0.005556
  0.500000  0.500000  0.368421      0.005556
  0.500000  0.500000  0.394737      0.005556
  0.500000  0.500000  0.421053      0.005556
  0.500000  0.500000  0.447368      0.005556
  0.500000  0.500000  0.473684      0.005556
  0.500000  0.500000  0.500000      0.005556

 Following cartesian coordinates:
            Coordinates               Weight
  0.000000  0.000000  0.000000      0.005556
  0.000000  0.004657  0.000000      0.005556
  0.000000  0.009314  0.000000      0.005556
  0.000000  0.013971  0.000000      0.005556
  0.000000  0.018628  0.000000      0.005556
  0.000000  0.023285  0.000000      0.005556
  0.000000  0.027943  0.000000      0.005556
  0.000000  0.032600  0.000000      0.005556
  0.000000  0.037257  0.000000      0.005556
  0.000000  0.041914  0.000000      0.005556
  0.000000  0.046571  0.000000      0.005556
  0.000000  0.051228  0.000000      0.005556
  0.000000  0.055885  0.000000      0.005556
  0.000000  0.060542  0.000000      0.005556
  0.000000  0.065199  0.000000      0.005556
  0.000000  0.069856  0.000000      0.005556
  0.000000  0.074514  0.000000      0.005556
  0.000000  0.079171  0.000000      0.005556
  0.000000  0.083828  0.000000      0.005556
  0.000000  0.088485  0.000000      0.005556
  0.000000  0.088485  0.000000      0.005556
  0.004657  0.088485  0.000000      0.005556
  0.009314  0.088485  0.000000      0.005556
  0.013971  0.088485  0.000000      0.005556
  0.018628  0.088485  0.000000      0.005556
  0.023285  0.088485  0.000000      0.005556
  0.027943  0.088485  0.000000      0.005556
  0.032600  0.088485  0.000000      0.005556
  0.037257  0.088485  0.000000      0.005556
  0.041914  0.088485  0.000000      0.005556
  0.046571  0.088485  0.000000      0.005556
  0.051228  0.088485  0.000000      0.005556
  0.055885  0.088485  0.000000      0.005556
  0.060542  0.088485  0.000000      0.005556
  0.065199  0.088485  0.000000      0.005556
  0.069856  0.088485  0.000000      0.005556
  0.074514  0.088485  0.000000      0.005556
  0.079171  0.088485  0.000000      0.005556
  0.083828  0.088485  0.000000      0.005556
  0.088485  0.088485  0.000000      0.005556
  0.088485  0.088485  0.000000      0.005556
  0.083828  0.083828  0.000000      0.005556
  0.079171  0.079171  0.000000      0.005556
  0.074514  0.074514  0.000000      0.005556
  0.069856  0.069856  0.000000      0.005556
  0.065199  0.065199  0.000000      0.005556
  0.060542  0.060542  0.000000      0.005556
  0.055885  0.055885  0.000000      0.005556
  0.051228  0.051228  0.000000      0.005556
  0.046571  0.046571  0.000000      0.005556
  0.041914  0.041914  0.000000      0.005556
  0.037257  0.037257  0.000000      0.005556
  0.032600  0.032600  0.000000      0.005556
  0.027943  0.027943  0.000000      0.005556
  0.023285  0.023285  0.000000      0.005556
  0.018628  0.018628  0.000000      0.005556
  0.013971  0.013971  0.000000      0.005556
  0.009314  0.009314  0.000000      0.005556
  0.004657  0.004657  0.000000      0.005556
  0.000000  0.000000  0.000000      0.005556
  0.000000  0.000000  0.000000      0.005556
  0.000000  0.000000  0.003239      0.005556
  0.000000  0.000000  0.006478      0.005556
  0.000000  0.000000  0.009717      0.005556
  0.000000  0.000000  0.012956      0.005556
  0.000000  0.000000  0.016195      0.005556
  0.000000  0.000000  0.019434      0.005556
  0.000000  0.000000  0.022673      0.005556
  0.000000  0.000000  0.025912      0.005556
  0.000000  0.000000  0.029151      0.005556
  0.000000  0.000000  0.032390      0.005556
  0.000000  0.000000  0.035629      0.005556
  0.000000  0.000000  0.038868      0.005556
  0.000000  0.000000  0.042107      0.005556
  0.000000  0.000000  0.045346      0.005556
  0.000000  0.000000  0.048585      0.005556
  0.000000  0.000000  0.051824      0.005556
  0.000000  0.000000  0.055063      0.005556
  0.000000  0.000000  0.058302      0.005556
  0.000000  0.000000  0.061541      0.005556
  0.000000  0.000000  0.061541      0.005556
  0.000000  0.004657  0.061541      0.005556
  0.000000  0.009314  0.061541      0.005556
  0.000000  0.013971  0.061541      0.005556
  0.000000  0.018628  0.061541      0.005556
  0.000000  0.023285  0.061541      0.005556
  0.000000  0.027943  0.061541      0.005556
  0.000000  0.032600  0.061541      0.005556
  0.000000  0.037257  0.061541      0.005556
  0.000000  0.041914  0.061541      0.005556
  0.000000  0.046571  0.061541      0.005556
  0.000000  0.051228  0.061541      0.005556
  0.000000  0.055885  0.061541      0.005556
  0.000000  0.060542  0.061541      0.005556
  0.000000  0.065199  0.061541      0.005556
  0.000000  0.069856  0.061541      0.005556
  0.000000  0.074514  0.061541      0.005556
  0.000000  0.079171  0.061541      0.005556
  0.000000  0.083828  0.061541      0.005556
  0.000000  0.088485  0.061541      0.005556
  0.000000  0.088485  0.061541      0.005556
  0.004657  0.088485  0.061541      0.005556
  0.009314  0.088485  0.061541      0.005556
  0.013971  0.088485  0.061541      0.005556
  0.018628  0.088485  0.061541      0.005556
  0.023285  0.088485  0.061541      0.005556
  0.027943  0.088485  0.061541      0.005556
  0.032600  0.088485  0.061541      0.005556
  0.037257  0.088485  0.061541      0.005556
  0.041914  0.088485  0.061541      0.005556
  0.046571  0.088485  0.061541      0.005556
  0.051228  0.088485  0.061541      0.005556
  0.055885  0.088485  0.061541      0.005556
  0.060542  0.088485  0.061541      0.005556
  0.065199  0.088485  0.061541      0.005556
  0.069856  0.088485  0.061541      0.005556
  0.074514  0.088485  0.061541      0.005556
  0.079171  0.088485  0.061541      0.005556
  0.083828  0.088485  0.061541      0.005556
  0.088485  0.088485  0.061541      0.005556
  0.088485  0.088485  0.061541      0.005556
  0.083828  0.083828  0.061541      0.005556
  0.079171  0.079171  0.061541      0.005556
  0.074514  0.074514  0.061541      0.005556
  0.069856  0.069856  0.061541      0.005556
  0.065199  0.065199  0.061541      0.005556
  0.060542  0.060542  0.061541      0.005556
  0.055885  0.055885  0.061541      0.005556
  0.051228  0.051228  0.061541      0.005556
  0.046571  0.046571  0.061541      0.005556
  0.041914  0.041914  0.061541      0.005556
  0.037257  0.037257  0.061541      0.005556
  0.032600  0.032600  0.061541      0.005556
  0.027943  0.027943  0.061541      0.005556
  0.023285  0.023285  0.061541      0.005556
  0.018628  0.018628  0.061541      0.005556
  0.013971  0.013971  0.061541      0.005556
  0.009314  0.009314  0.061541      0.005556
  0.004657  0.004657  0.061541      0.005556
  0.000000  0.000000  0.061541      0.005556
  0.000000  0.088485  0.000000      0.005556
  0.000000  0.088485  0.003239      0.005556
  0.000000  0.088485  0.006478      0.005556
  0.000000  0.088485  0.009717      0.005556
  0.000000  0.088485  0.012956      0.005556
  0.000000  0.088485  0.016195      0.005556
  0.000000  0.088485  0.019434      0.005556
  0.000000  0.088485  0.022673      0.005556
  0.000000  0.088485  0.025912      0.005556
  0.000000  0.088485  0.029151      0.005556
  0.000000  0.088485  0.032390      0.005556
  0.000000  0.088485  0.035629      0.005556
  0.000000  0.088485  0.038868      0.005556
  0.000000  0.088485  0.042107      0.005556
  0.000000  0.088485  0.045346      0.005556
  0.000000  0.088485  0.048585      0.005556
  0.000000  0.088485  0.051824      0.005556
  0.000000  0.088485  0.055063      0.005556
  0.000000  0.088485  0.058302      0.005556
  0.000000  0.088485  0.061541      0.005556
  0.088485  0.088485  0.000000      0.005556
  0.088485  0.088485  0.003239      0.005556
  0.088485  0.088485  0.006478      0.005556
  0.088485  0.088485  0.009717      0.005556
  0.088485  0.088485  0.012956      0.005556
  0.088485  0.088485  0.016195      0.005556
  0.088485  0.088485  0.019434      0.005556
  0.088485  0.088485  0.022673      0.005556
  0.088485  0.088485  0.025912      0.005556
  0.088485  0.088485  0.029151      0.005556
  0.088485  0.088485  0.032390      0.005556
  0.088485  0.088485  0.035629      0.005556
  0.088485  0.088485  0.038868      0.005556
  0.088485  0.088485  0.042107      0.005556
  0.088485  0.088485  0.045346      0.005556
  0.088485  0.088485  0.048585      0.005556
  0.088485  0.088485  0.051824      0.005556
  0.088485  0.088485  0.055063      0.005556
  0.088485  0.088485  0.058302      0.005556
  0.088485  0.088485  0.061541      0.005556
 


--------------------------------------------------------------------------------------------------------




 Dimension of arrays:
   k-points           NKPTS =    180   k-points in BZ     NKDIM =    180   number of bands    NBANDS=    128
   number of dos      NEDOS =    301   number of ions     NIONS =     16
   non local maximal  LDIM  =      6   non local SUM 2l+1 LMDIM =     18
   total plane-waves  NPLWV =  49152
   max r-space proj   IRMAX =      1   max aug-charges    IRDMAX=   7573
   dimension x,y,z NGX =    32 NGY =   32 NGZ =   48
   dimension x,y,z NGXF=    64 NGYF=   64 NGZF=   96
   support grid    NGXF=    64 NGYF=   64 NGZF=   96
   ions per type =               8   8
   NGX,Y,Z   is equivalent  to a cutoff of   9.41,  9.41,  9.82 a.u.
   NGXF,Y,Z  is equivalent  to a cutoff of  18.83, 18.83, 19.64 a.u.

 SYSTEM =  unknown system                          
 POSCAR =  Ti1 Al1                                 

 Startparameter for this run:
   NWRITE =      2    write-flag & timer
   PREC   = n         normal or accurate (medium, high low for compatibility)
   ISTART =      1    job   : 0-new  1-cont  2-samecut
   ICHARG =     11    charge: 1-file 2-atom 10-const
   ISPIN  =      1    spin polarized calculation?
   LNONCOLLINEAR =      F non collinear calculations
   LSORBIT =      F    spin-orbit coupling
   INIWAV =      1    electr: 0-lowe 1-rand  2-diag
   LASPH  =      F    aspherical Exc in radial PAW
 Electronic Relaxation 1
   ENCUT  =  520.0 eV  38.22 Ry    6.18 a.u.  10.51 10.51 15.11*2*pi/ulx,y,z
   ENINI  =  520.0     initial cutoff
   ENAUG  =  482.8 eV  augmentation charge cutoff
   NELM   =    500;   NELMIN=  2; NELMDL=  0     # of ELM steps 
   EDIFF  = 0.1E-04   stopping-criterion for ELM
   LREAL  =      F    real-space projection
   NLSPLINE    = F    spline interpolate recip. space projectors
   LCOMPAT=      F    compatible to vasp.4.4
   GGA_COMPAT  = T    GGA compatible to vasp.4.4-vasp.4.6
   LMAXPAW     = -100 max onsite density
   LMAXMIX     =    2 max onsite mixed and CHGCAR
   VOSKOWN=      0    Vosko Wilk Nusair interpolation
   ROPT   =    0.00000   0.00000
 Ionic relaxation
   EDIFFG = -.1E-01   stopping-criterion for IOM
   NSW    =      0    number of steps for IOM
   NBLOCK =      1;   KBLOCK =      1    inner block; outer block 
   IBRION =     -1    ionic relax: 0-MD 1-quasi-New 2-CG
   NFREE  =      0    steps in history (QN), initial steepest desc. (CG)
   ISIF   =      3    stress and relaxation
   IWAVPR =     10    prediction:  0-non 1-charg 2-wave 3-comb
   ISYM   =      2    0-nonsym 1-usesym 2-fastsym
   LCORR  =      T    Harris-Foulkes like correction to forces

   POTIM  = 0.5000    time-step for ionic-motion
   TEIN   =    0.0    initial temperature
   TEBEG  =    0.0;   TEEND  =   0.0 temperature during run
   SMASS  =  -3.00    Nose mass-parameter (am)
   estimated Nose-frequenzy (Omega)   =  0.10E-29 period in steps = 0.13E+47 mass=  -0.730E-27a.u.
   SCALEE = 1.0000    scale energy and forces
   NPACO  =    256;   APACO  = 10.0  distance and # of slots for P.C.
   PSTRESS=    0.0 pullay stress

  Mass of Ions in am
   POMASS =  47.88 26.98
  Ionic Valenz
   ZVAL   =  12.00  3.00
  Atomic Wigner-Seitz radii
   RWIGS  =  -1.00 -1.00
  virtual crystal weights 
   VCA    =   1.00  1.00
   NELECT =     120.0000    total number of electrons
   NUPDOWN=      -1.0000    fix difference up-down

 DOS related values:
   EMIN   =  10.00;   EMAX   =-10.00  energy-range for DOS
   EFERMI =   0.00;   METHOD = LEGACY      
   ISMEAR =     1;   SIGMA  =   0.10  broadening in eV -4-tet -1-fermi 0-gaus
   EFERMI_NEDOS =   21; number of points for ismear=-14 and -15

 Electronic relaxation 2 (details)
   IALGO  =     38    algorithm
   LDIAG  =      T    sub-space diagonalisation (order eigenvalues)
   LSUBROT=      F    optimize rotation matrix (better conditioning)
   TURBO    =      0    0=normal 1=particle mesh
   IRESTART =      0    0=no restart 2=restart with 2 vectors
   NREBOOT  =      0    no. of reboots
   NMIN     =      0    reboot dimension
   EREF     =   0.00    reference energy to select bands
   IMIX   =      4    mixing-type and parameters
     AMIX     =   0.40;   BMIX     =  1.00
     AMIX_MAG =   1.60;   BMIX_MAG =  1.00
     AMIN     =   0.10
     WC   =   100.;   INIMIX=   1;  MIXPRE=   1;  MAXMIX= -45

 Intra band minimization:
   WEIMIN = 0.0000     energy-eigenvalue tresh-hold
   EBREAK =  0.20E-07  absolut break condition
   DEPER  =   0.30     relativ break condition  

   TIME   =   0.40     timestep for ELM

  volume/ion in A,a.u.               =      16.21       109.42
  Fermi-wavevector in a.u.,A,eV,Ry     =   1.266097  2.392576 21.810146  1.603001
  Thomas-Fermi vector in A             =   2.399315
 
 Write flags
   LWAVE        =      T    write WAVECAR
   LDOWNSAMPLE  =      F    k-point downsampling of WAVECAR
   LCHARG       =      T    write CHGCAR
   LVTOT        =      F    write LOCPOT, total local potential
   LVHAR        =      F    write LOCPOT, Hartree potential only
   WRT_POTENTIAL= false  ! write potential to hdf5 file
   LELF         =      F    write electronic localiz. function (ELF)
   LORBIT       =     11    0 simple, 1 ext, 2 COOP (PROOUT), +10 PAW based schemes


 Python interface
   PLUGINS active      =      F    recompile with -DPLUGINS to activate
 
 Dipole corrections
   LMONO      =      F    monopole corrections only (constant potential shift)
   LDIPOL     =      F    correct potential (dipole corrections)
   IDIPOL     =      0    1-x, 2-y, 3-z, 4-all directions 
   EPSILON    =  1.0000000 bulk dielectric constant
   LVACPOTAV  =      F  vacuum potentials using an averaging scheme for the charge density
   VACPOTFLAT =  0.1000000 required flatness to determine vacuum potential
 
Coulomb truncation method
  LTRUNCATE          =      F  Coulomb kernel truncation to be used
  IDIMENSIONALITY    =      3  Dimensionality of cutoff (0 molecules / 2 surfaces)
  ISURFACE           =     -1  Direction of surface normal
  LCOARSEN           =      F  Coarsen the charge grid before padding, preferred

 
 Exchange correlation treatment:
   GGA     = PE    functional components
   XC_C    = 1    coefficients multiplying the functional components
   LIBXC   =     F    Libxc                    
   VOSKOWN =     0    Vosko Wilk Nusair interpolation
   LHFCALC =     F    Hartree Fock is set to
   LHFONE  =     F    Hartree Fock one center treatment
   AEXX    =    0.0000 exact exchange contribution

 Parameters of functionals:
   PE:
     No parameter
 
 Van der Waals corrections
   IVDW    =     0    specifies the selected vdW correction

 Linear response parameters
   LEPSILON=     F    determine dielectric tensor
   LRPA    =     F    only Hartree local field effects (RPA)
   LNABLA  =     F    use nabla operator in PAW spheres
   LVEL    =     F    velocity operator in full k-point grid
   CSHIFT  =0.1000    complex shift for real part using Kramers Kronig
   OMEGAMAX=  -1.0    maximum frequency
   DEG_THRESHOLD= 0.2000000E-02 threshold for treating states as degnerate
   RTIME   =   -0.100 relaxation time in fs
  (WPLASMAI=    0.000 imaginary part of plasma frequency in eV, 0.658/RTIME)
   DFIELD  = 0.0000000 0.0000000 0.0000000 field for delta impulse in time
 
  Optional k-point grid parameters
   LKPOINTS_OPT  =     F    use optional k-point grid
   KPOINTS_OPT_MODE=     1    mode for optional k-point grid
 
 Orbital magnetization related:
   ORBITALMAG=     F  switch on orbital magnetization
   LCHIMAG   =     F  perturbation theory with respect to B field
   DQ        =  0.001000  dq finite difference perturbation B field
   LLRAUG    =     F  two centre corrections for induced B field
   LBONE     =     F  B-component reconstruction in AE one-centre
   LVGVCALC  =     T  calculate vGv susceptibility
   LVGVAPPL  =     F  apply vGv susceptibility instead of pGv for G=0

 Random number generation:
   RANDOM_GENERATOR = DEFAULT
   PCG_SEED         = not used


--------------------------------------------------------------------------------------------------------


 Static calculation
 charge density and potential remain constant during run
 non-spin polarized calculation
 Variant of blocked Davidson
 Davidson routine will perform the subspace rotation
 perform sub-space diagonalisation
    after iterative eigenvector-optimisation
 no mixing
 using additional bands           68
 reciprocal scheme for non local part
 use partial core corrections
 calculate Harris-corrections to forces 
   (improved forces if not selfconsistent)
 use gradient corrections 
 WARNING: stress and forces are not correct
  (second derivative of E(xc) not defined)
 use of overlap-Matrix (Vanderbilt PP)
 Methfessel and Paxton  Order N= 1 SIGMA  =   0.10


--------------------------------------------------------------------------------------------------------


  energy-cutoff  :      520.00
  volume of cell :      259.42
      direct lattice vectors                 reciprocal lattice vectors
     5.650681772  0.000000000  0.000000000     0.176969796  0.000000000  0.000000000
     0.000000000  5.650681772  0.000000000     0.000000000  0.176969796  0.000000000
     0.000000000  0.000000000  8.124629189     0.000000000  0.000000000  0.123082540

  length of vectors
     5.650681772  5.650681772  8.124629189     0.176969796  0.176969796  0.123082540


 
 old parameters found on file WAVECAR:
  energy-cutoff  :      520.00
  volume of cell :      259.42
      direct lattice vectors                 reciprocal lattice vectors
     5.650681772  0.000000000  0.000000000     0.176969796  0.000000000  0.000000000
     0.000000000  5.650681772  0.000000000     0.000000000  0.176969796  0.000000000
     0.000000000  0.000000000  8.124629189     0.000000000  0.000000000  0.123082540

  length of vectors

 
 k-points in units of 2pi/SCALE and weight: K-Path Generated by VASPKIT.            
   0.00000000  0.00000000  0.00000000       0.006
   0.00000000  0.00465710  0.00000000       0.006
   0.00000000  0.00931420  0.00000000       0.006
   0.00000000  0.01397130  0.00000000       0.006
   0.00000000  0.01862840  0.00000000       0.006
   0.00000000  0.02328550  0.00000000       0.006
   0.00000000  0.02794260  0.00000000       0.006
   0.00000000  0.03259970  0.00000000       0.006
   0.00000000  0.03725680  0.00000000       0.006
   0.00000000  0.04191390  0.00000000       0.006
   0.00000000  0.04657100  0.00000000       0.006
   0.00000000  0.05122810  0.00000000       0.006
   0.00000000  0.05588520  0.00000000       0.006
   0.00000000  0.06054230  0.00000000       0.006
   0.00000000  0.06519940  0.00000000       0.006
   0.00000000  0.06985650  0.00000000       0.006
   0.00000000  0.07451360  0.00000000       0.006
   0.00000000  0.07917070  0.00000000       0.006
   0.00000000  0.08382780  0.00000000       0.006
   0.00000000  0.08848490  0.00000000       0.006
   0.00000000  0.08848490  0.00000000       0.006
   0.00465710  0.08848490  0.00000000       0.006
   0.00931420  0.08848490  0.00000000       0.006
   0.01397130  0.08848490  0.00000000       0.006
   0.01862840  0.08848490  0.00000000       0.006
   0.02328550  0.08848490  0.00000000       0.006
   0.02794260  0.08848490  0.00000000       0.006
   0.03259970  0.08848490  0.00000000       0.006
   0.03725680  0.08848490  0.00000000       0.006
   0.04191390  0.08848490  0.00000000       0.006
   0.04657100  0.08848490  0.00000000       0.006
   0.05122810  0.08848490  0.00000000       0.006
   0.05588520  0.08848490  0.00000000       0.006
   0.06054230  0.08848490  0.00000000       0.006
   0.06519940  0.08848490  0.00000000       0.006
   0.06985650  0.08848490  0.00000000       0.006
   0.07451360  0.08848490  0.00000000       0.006
   0.07917070  0.08848490  0.00000000       0.006
   0.08382780  0.08848490  0.00000000       0.006
   0.08848490  0.08848490  0.00000000       0.006
   0.08848490  0.08848490  0.00000000       0.006
   0.08382780  0.08382780  0.00000000       0.006
   0.07917070  0.07917070  0.00000000       0.006
   0.07451360  0.07451360  0.00000000       0.006
   0.06985650  0.06985650  0.00000000       0.006
   0.06519940  0.06519940  0.00000000       0.006
   0.06054230  0.06054230  0.00000000       0.006
   0.05588520  0.05588520  0.00000000       0.006
   0.05122810  0.05122810  0.00000000       0.006
   0.04657100  0.04657100  0.00000000       0.006
   0.04191390  0.04191390  0.00000000       0.006
   0.03725680  0.03725680  0.00000000       0.006
   0.03259970  0.03259970  0.00000000       0.006
   0.02794260  0.02794260  0.00000000       0.006
   0.02328550  0.02328550  0.00000000       0.006
   0.01862840  0.01862840  0.00000000       0.006
   0.01397130  0.01397130  0.00000000       0.006
   0.00931420  0.00931420  0.00000000       0.006
   0.00465710  0.00465710  0.00000000       0.006
   0.00000000  0.00000000  0.00000000       0.006
   0.00000000  0.00000000  0.00000000       0.006
   0.00000000  0.00000000  0.00323901       0.006
   0.00000000  0.00000000  0.00647803       0.006
   0.00000000  0.00000000  0.00971704       0.006
   0.00000000  0.00000000  0.01295606       0.006
   0.00000000  0.00000000  0.01619507       0.006
   0.00000000  0.00000000  0.01943409       0.006
   0.00000000  0.00000000  0.02267310       0.006
   0.00000000  0.00000000  0.02591211       0.006
   0.00000000  0.00000000  0.02915113       0.006
   0.00000000  0.00000000  0.03239014       0.006
   0.00000000  0.00000000  0.03562916       0.006
   0.00000000  0.00000000  0.03886817       0.006
   0.00000000  0.00000000  0.04210718       0.006
   0.00000000  0.00000000  0.04534620       0.006
   0.00000000  0.00000000  0.04858521       0.006
   0.00000000  0.00000000  0.05182423       0.006
   0.00000000  0.00000000  0.05506324       0.006
   0.00000000  0.00000000  0.05830226       0.006
   0.00000000  0.00000000  0.06154127       0.006
   0.00000000  0.00000000  0.06154127       0.006
   0.00000000  0.00465710  0.06154127       0.006
   0.00000000  0.00931420  0.06154127       0.006
   0.00000000  0.01397130  0.06154127       0.006
   0.00000000  0.01862840  0.06154127       0.006
   0.00000000  0.02328550  0.06154127       0.006
   0.00000000  0.02794260  0.06154127       0.006
   0.00000000  0.03259970  0.06154127       0.006
   0.00000000  0.03725680  0.06154127       0.006
   0.00000000  0.04191390  0.06154127       0.006
   0.00000000  0.04657100  0.06154127       0.006
   0.00000000  0.05122810  0.06154127       0.006
   0.00000000  0.05588520  0.06154127       0.006
   0.00000000  0.06054230  0.06154127       0.006
   0.00000000  0.06519940  0.06154127       0.006
   0.00000000  0.06985650  0.06154127       0.006
   0.00000000  0.07451360  0.06154127       0.006
   0.00000000  0.07917070  0.06154127       0.006
   0.00000000  0.08382780  0.06154127       0.006
   0.00000000  0.08848490  0.06154127       0.006
   0.00000000  0.08848490  0.06154127       0.006
   0.00465710  0.08848490  0.06154127       0.006
   0.00931420  0.08848490  0.06154127       0.006
   0.01397130  0.08848490  0.06154127       0.006
   0.01862840  0.08848490  0.06154127       0.006
   0.02328550  0.08848490  0.06154127       0.006
   0.02794260  0.08848490  0.06154127       0.006
   0.03259970  0.08848490  0.06154127       0.006
   0.03725680  0.08848490  0.06154127       0.006
   0.04191390  0.08848490  0.06154127       0.006
   0.04657100  0.08848490  0.06154127       0.006
   0.05122810  0.08848490  0.06154127       0.006
   0.05588520  0.08848490  0.06154127       0.006
   0.06054230  0.08848490  0.06154127       0.006
   0.06519940  0.08848490  0.06154127       0.006
   0.06985650  0.08848490  0.06154127       0.006
   0.07451360  0.08848490  0.06154127       0.006
   0.07917070  0.08848490  0.06154127       0.006
   0.08382780  0.08848490  0.06154127       0.006
   0.08848490  0.08848490  0.06154127       0.006
   0.08848490  0.08848490  0.06154127       0.006
   0.08382780  0.08382780  0.06154127       0.006
   0.07917070  0.07917070  0.06154127       0.006
   0.07451360  0.07451360  0.06154127       0.006
   0.06985650  0.06985650  0.06154127       0.006
   0.06519940  0.06519940  0.06154127       0.006
   0.06054230  0.06054230  0.06154127       0.006
   0.05588520  0.05588520  0.06154127       0.006
   0.05122810  0.05122810  0.06154127       0.006
   0.04657100  0.04657100  0.06154127       0.006
   0.04191390  0.04191390  0.06154127       0.006
   0.03725680  0.03725680  0.06154127       0.006
   0.03259970  0.03259970  0.06154127       0.006
   0.02794260  0.02794260  0.06154127       0.006
   0.02328550  0.02328550  0.06154127       0.006
   0.01862840  0.01862840  0.06154127       0.006
   0.01397130  0.01397130  0.06154127       0.006
   0.00931420  0.00931420  0.06154127       0.006
   0.00465710  0.00465710  0.06154127       0.006
   0.00000000  0.00000000  0.06154127       0.006
   0.00000000  0.08848490  0.00000000       0.006
   0.00000000  0.08848490  0.00323901       0.006
   0.00000000  0.08848490  0.00647803       0.006
   0.00000000  0.08848490  0.00971704       0.006
   0.00000000  0.08848490  0.01295606       0.006
   0.00000000  0.08848490  0.01619507       0.006
   0.00000000  0.08848490  0.01943409       0.006
   0.00000000  0.08848490  0.02267310       0.006
   0.00000000  0.08848490  0.02591211       0.006
   0.00000000  0.08848490  0.02915113       0.006
   0.00000000  0.08848490  0.03239014       0.006
   0.00000000  0.08848490  0.03562916       0.006
   0.00000000  0.08848490  0.03886817       0.006
   0.00000000  0.08848490  0.04210718       0.006
   0.00000000  0.08848490  0.04534620       0.006
   0.00000000  0.08848490  0.04858521       0.006
   0.00000000  0.08848490  0.05182423       0.006
   0.00000000  0.08848490  0.05506324       0.006
   0.00000000  0.08848490  0.05830226       0.006
   0.00000000  0.08848490  0.06154127       0.006
   0.08848490  0.08848490  0.00000000       0.006
   0.08848490  0.08848490  0.00323901       0.006
   0.08848490  0.08848490  0.00647803       0.006
   0.08848490  0.08848490  0.00971704       0.006
   0.08848490  0.08848490  0.01295606       0.006
   0.08848490  0.08848490  0.01619507       0.006
   0.08848490  0.08848490  0.01943409       0.006
   0.08848490  0.08848490  0.02267310       0.006
   0.08848490  0.08848490  0.02591211       0.006
   0.08848490  0.08848490  0.02915113       0.006
   0.08848490  0.08848490  0.03239014       0.006
   0.08848490  0.08848490  0.03562916       0.006
   0.08848490  0.08848490  0.03886817       0.006
   0.08848490  0.08848490  0.04210718       0.006
   0.08848490  0.08848490  0.04534620       0.006
   0.08848490  0.08848490  0.04858521       0.006
   0.08848490  0.08848490  0.05182423       0.006
   0.08848490  0.08848490  0.05506324       0.006
   0.08848490  0.08848490  0.05830226       0.006
   0.08848490  0.08848490  0.06154127       0.006
 
 k-points in reciprocal lattice and weights: K-Path Generated by VASPKIT.            
   0.00000000  0.00000000  0.00000000       0.006
   0.00000000  0.02631579  0.00000000       0.006
   0.00000000  0.05263158  0.00000000       0.006
   0.00000000  0.07894737  0.00000000       0.006
   0.00000000  0.10526316  0.00000000       0.006
   0.00000000  0.13157895  0.00000000       0.006
   0.00000000  0.15789474  0.00000000       0.006
   0.00000000  0.18421053  0.00000000       0.006
   0.00000000  0.21052632  0.00000000       0.006
   0.00000000  0.23684211  0.00000000       0.006
   0.00000000  0.26315789  0.00000000       0.006
   0.00000000  0.28947368  0.00000000       0.006
   0.00000000  0.31578947  0.00000000       0.006
   0.00000000  0.34210526  0.00000000       0.006
   0.00000000  0.36842105  0.00000000       0.006
   0.00000000  0.39473684  0.00000000       0.006
   0.00000000  0.42105263  0.00000000       0.006
   0.00000000  0.44736842  0.00000000       0.006
   0.00000000  0.47368421  0.00000000       0.006
   0.00000000  0.50000000  0.00000000       0.006
   0.00000000  0.50000000  0.00000000       0.006
   0.02631579  0.50000000  0.00000000       0.006
   0.05263158  0.50000000  0.00000000       0.006
   0.07894737  0.50000000  0.00000000       0.006
   0.10526316  0.50000000  0.00000000       0.006
   0.13157895  0.50000000  0.00000000       0.006
   0.15789474  0.50000000  0.00000000       0.006
   0.18421053  0.50000000  0.00000000       0.006
   0.21052632  0.50000000  0.00000000       0.006
   0.23684211  0.50000000  0.00000000       0.006
   0.26315789  0.50000000  0.00000000       0.006
   0.28947368  0.50000000  0.00000000       0.006
   0.31578947  0.50000000  0.00000000       0.006
   0.34210526  0.50000000  0.00000000       0.006
   0.36842105  0.50000000  0.00000000       0.006
   0.39473684  0.50000000  0.00000000       0.006
   0.42105263  0.50000000  0.00000000       0.006
   0.44736842  0.50000000  0.00000000       0.006
   0.47368421  0.50000000  0.00000000       0.006
   0.50000000  0.50000000  0.00000000       0.006
   0.50000000  0.50000000  0.00000000       0.006
   0.47368421  0.47368421  0.00000000       0.006
   0.44736842  0.44736842  0.00000000       0.006
   0.42105263  0.42105263  0.00000000       0.006
   0.39473684  0.39473684  0.00000000       0.006
   0.36842105  0.36842105  0.00000000       0.006
   0.34210526  0.34210526  0.00000000       0.006
   0.31578947  0.31578947  0.00000000       0.006
   0.28947368  0.28947368  0.00000000       0.006
   0.26315789  0.26315789  0.00000000       0.006
   0.23684211  0.23684211  0.00000000       0.006
   0.21052632  0.21052632  0.00000000       0.006
   0.18421053  0.18421053  0.00000000       0.006
   0.15789474  0.15789474  0.00000000       0.006
   0.13157895  0.13157895  0.00000000       0.006
   0.10526316  0.10526316  0.00000000       0.006
   0.07894737  0.07894737  0.00000000       0.006
   0.05263158  0.05263158  0.00000000       0.006
   0.02631579  0.02631579  0.00000000       0.006
   0.00000000  0.00000000  0.00000000       0.006
   0.00000000  0.00000000  0.00000000       0.006
   0.00000000  0.00000000  0.02631579       0.006
   0.00000000  0.00000000  0.05263158       0.006
   0.00000000  0.00000000  0.07894737       0.006
   0.00000000  0.00000000  0.10526316       0.006
   0.00000000  0.00000000  0.13157895       0.006
   0.00000000  0.00000000  0.15789474       0.006
   0.00000000  0.00000000  0.18421053       0.006
   0.00000000  0.00000000  0.21052632       0.006
   0.00000000  0.00000000  0.23684211       0.006
   0.00000000  0.00000000  0.26315789       0.006
   0.00000000  0.00000000  0.28947368       0.006
   0.00000000  0.00000000  0.31578947       0.006
   0.00000000  0.00000000  0.34210526       0.006
   0.00000000  0.00000000  0.36842105       0.006
   0.00000000  0.00000000  0.39473684       0.006
   0.00000000  0.00000000  0.42105263       0.006
   0.00000000  0.00000000  0.44736842       0.006
   0.00000000  0.00000000  0.47368421       0.006
   0.00000000  0.00000000  0.50000000       0.006
   0.00000000  0.00000000  0.50000000       0.006
   0.00000000  0.02631579  0.50000000       0.006
   0.00000000  0.05263158  0.50000000       0.006
   0.00000000  0.07894737  0.50000000       0.006
   0.00000000  0.10526316  0.50000000       0.006
   0.00000000  0.13157895  0.50000000       0.006
   0.00000000  0.15789474  0.50000000       0.006
   0.00000000  0.18421053  0.50000000       0.006
   0.00000000  0.21052632  0.50000000       0.006
   0.00000000  0.23684211  0.50000000       0.006
   0.00000000  0.26315789  0.50000000       0.006
   0.00000000  0.28947368  0.50000000       0.006
   0.00000000  0.31578947  0.50000000       0.006
   0.00000000  0.34210526  0.50000000       0.006
   0.00000000  0.36842105  0.50000000       0.006
   0.00000000  0.39473684  0.50000000       0.006
   0.00000000  0.42105263  0.50000000       0.006
   0.00000000  0.44736842  0.50000000       0.006
   0.00000000  0.47368421  0.50000000       0.006
   0.00000000  0.50000000  0.50000000       0.006
   0.00000000  0.50000000  0.50000000       0.006
   0.02631579  0.50000000  0.50000000       0.006
   0.05263158  0.50000000  0.50000000       0.006
   0.07894737  0.50000000  0.50000000       0.006
   0.10526316  0.50000000  0.50000000       0.006
   0.13157895  0.50000000  0.50000000       0.006
   0.15789474  0.50000000  0.50000000       0.006
   0.18421053  0.50000000  0.50000000       0.006
   0.21052632  0.50000000  0.50000000       0.006
   0.23684211  0.50000000  0.50000000       0.006
   0.26315789  0.50000000  0.50000000       0.006
   0.28947368  0.50000000  0.50000000       0.006
   0.31578947  0.50000000  0.50000000       0.006
   0.34210526  0.50000000  0.50000000       0.006
   0.36842105  0.50000000  0.50000000       0.006
   0.39473684  0.50000000  0.50000000       0.006
   0.42105263  0.50000000  0.50000000       0.006
   0.44736842  0.50000000  0.50000000       0.006
   0.47368421  0.50000000  0.50000000       0.006
   0.50000000  0.50000000  0.50000000       0.006
   0.50000000  0.50000000  0.50000000       0.006
   0.47368421  0.47368421  0.50000000       0.006
   0.44736842  0.44736842  0.50000000       0.006
   0.42105263  0.42105263  0.50000000       0.006
   0.39473684  0.39473684  0.50000000       0.006
   0.36842105  0.36842105  0.50000000       0.006
   0.34210526  0.34210526  0.50000000       0.006
   0.31578947  0.31578947  0.50000000       0.006
   0.28947368  0.28947368  0.50000000       0.006
   0.26315789  0.26315789  0.50000000       0.006
   0.23684211  0.23684211  0.50000000       0.006
   0.21052632  0.21052632  0.50000000       0.006
   0.18421053  0.18421053  0.50000000       0.006
   0.15789474  0.15789474  0.50000000       0.006
   0.13157895  0.13157895  0.50000000       0.006
   0.10526316  0.10526316  0.50000000       0.006
   0.07894737  0.07894737  0.50000000       0.006
   0.05263158  0.05263158  0.50000000       0.006
   0.02631579  0.02631579  0.50000000       0.006
   0.00000000  0.00000000  0.50000000       0.006
   0.00000000  0.50000000  0.00000000       0.006
   0.00000000  0.50000000  0.02631579       0.006
   0.00000000  0.50000000  0.05263158       0.006
   0.00000000  0.50000000  0.07894737       0.006
   0.00000000  0.50000000  0.10526316       0.006
   0.00000000  0.50000000  0.13157895       0.006
   0.00000000  0.50000000  0.15789474       0.006
   0.00000000  0.50000000  0.18421053       0.006
   0.00000000  0.50000000  0.21052632       0.006
   0.00000000  0.50000000  0.23684211       0.006
   0.00000000  0.50000000  0.26315789       0.006
   0.00000000  0.50000000  0.28947368       0.006
   0.00000000  0.50000000  0.31578947       0.006
   0.00000000  0.50000000  0.34210526       0.006
   0.00000000  0.50000000  0.36842105       0.006
   0.00000000  0.50000000  0.39473684       0.006
   0.00000000  0.50000000  0.42105263       0.006
   0.00000000  0.50000000  0.44736842       0.006
   0.00000000  0.50000000  0.47368421       0.006
   0.00000000  0.50000000  0.50000000       0.006
   0.50000000  0.50000000  0.00000000       0.006
   0.50000000  0.50000000  0.02631579       0.006
   0.50000000  0.50000000  0.05263158       0.006
   0.50000000  0.50000000  0.07894737       0.006
   0.50000000  0.50000000  0.10526316       0.006
   0.50000000  0.50000000  0.13157895       0.006
   0.50000000  0.50000000  0.15789474       0.006
   0.50000000  0.50000000  0.18421053       0.006
   0.50000000  0.50000000  0.21052632       0.006
   0.50000000  0.50000000  0.23684211       0.006
   0.50000000  0.50000000  0.26315789       0.006
   0.50000000  0.50000000  0.28947368       0.006
   0.50000000  0.50000000  0.31578947       0.006
   0.50000000  0.50000000  0.34210526       0.006
   0.50000000  0.50000000  0.36842105       0.006
   0.50000000  0.50000000  0.39473684       0.006
   0.50000000  0.50000000  0.42105263       0.006
   0.50000000  0.50000000  0.44736842       0.006
   0.50000000  0.50000000  0.47368421       0.006
   0.50000000  0.50000000  0.50000000       0.006
 
 position of ions in fractional coordinates (direct lattice) 
   0.00000000  0.00000000  0.00000000
   0.00000000  0.00000000  0.50000000
   0.00000000  0.50000000  0.00000000
   0.00000000  0.50000000  0.50000000
   0.50000000  0.00000000  0.00000000
   0.50000000  0.00000000  0.50000000
   0.50000000  0.50000000  0.00000000
   0.50000000  0.50000000  0.50000000
   0.25000000  0.25000000  0.25000000
   0.25000000  0.25000000  0.75000000
   0.25000000  0.75000000  0.25000000
   0.25000000  0.75000000  0.75000000
   0.75000000  0.25000000  0.25000000
   0.75000000  0.25000000  0.75000000
   0.75000000  0.75000000  0.25000000
   0.75000000  0.75000000  0.75000000
 
 position of ions in cartesian coordinates  (Angst):
   0.00000000  0.00000000  0.00000000
   0.00000000  0.00000000  4.06231459
   0.00000000  2.82534089  0.00000000
   0.00000000  2.82534089  4.06231459
   2.82534089  0.00000000  0.00000000
   2.82534089  0.00000000  4.06231459
   2.82534089  2.82534089  0.00000000
   2.82534089  2.82534089  4.06231459
   1.41267044  1.41267044  2.03115730
   1.41267044  1.41267044  6.09347189
   1.41267044  4.23801133  2.03115730
   1.41267044  4.23801133  6.09347189
   4.23801133  1.41267044  2.03115730
   4.23801133  1.41267044  6.09347189
   4.23801133  4.23801133  2.03115730
   4.23801133  4.23801133  6.09347189
 


--------------------------------------------------------------------------------------------------------


 k-point     1 :   0.0000 0.0000 0.0000  plane waves:    6979
 k-point     2 :   0.0000 0.0263 0.0000  plane waves:    6975
 k-point     3 :   0.0000 0.0526 0.0000  plane waves:    6991
 k-point     4 :   0.0000 0.0789 0.0000  plane waves:    6995
 k-point     5 :   0.0000 0.1053 0.0000  plane waves:    6991
 k-point     6 :   0.0000 0.1316 0.0000  plane waves:    6991
 k-point     7 :   0.0000 0.1579 0.0000  plane waves:    6999
 k-point     8 :   0.0000 0.1842 0.0000  plane waves:    6985
 k-point     9 :   0.0000 0.2105 0.0000  plane waves:    7001
 k-point    10 :   0.0000 0.2368 0.0000  plane waves:    6999
 k-point    11 :   0.0000 0.2632 0.0000  plane waves:    6983
 k-point    12 :   0.0000 0.2895 0.0000  plane waves:    6985
 k-point    13 :   0.0000 0.3158 0.0000  plane waves:    6991
 k-point    14 :   0.0000 0.3421 0.0000  plane waves:    6995
 k-point    15 :   0.0000 0.3684 0.0000  plane waves:    6999
 k-point    16 :   0.0000 0.3947 0.0000  plane waves:    6991
 k-point    17 :   0.0000 0.4211 0.0000  plane waves:    6991
 k-point    18 :   0.0000 0.4474 0.0000  plane waves:    6985
 k-point    19 :   0.0000 0.4737 0.0000  plane waves:    6983
 k-point    20 :   0.0000 0.5000 0.0000  plane waves:    6982
 k-point    21 :   0.0000 0.5000 0.0000  plane waves:    6982
 k-point    22 :   0.0263 0.5000 0.0000  plane waves:    6982
 k-point    23 :   0.0526 0.5000 0.0000  plane waves:    6984
 k-point    24 :   0.0789 0.5000 0.0000  plane waves:    6964
 k-point    25 :   0.1053 0.5000 0.0000  plane waves:    6974
 k-point    26 :   0.1316 0.5000 0.0000  plane waves:    6970
 k-point    27 :   0.1579 0.5000 0.0000  plane waves:    6958
 k-point    28 :   0.1842 0.5000 0.0000  plane waves:    6964
 k-point    29 :   0.2105 0.5000 0.0000  plane waves:    6970
 k-point    30 :   0.2368 0.5000 0.0000  plane waves:    6970
 k-point    31 :   0.2632 0.5000 0.0000  plane waves:    6960
 k-point    32 :   0.2895 0.5000 0.0000  plane waves:    6956
 k-point    33 :   0.3158 0.5000 0.0000  plane waves:    6944
 k-point    34 :   0.3421 0.5000 0.0000  plane waves:    6948
 k-point    35 :   0.3684 0.5000 0.0000  plane waves:    6958
 k-point    36 :   0.3947 0.5000 0.0000  plane waves:    6956
 k-point    37 :   0.4211 0.5000 0.0000  plane waves:    6946
 k-point    38 :   0.4474 0.5000 0.0000  plane waves:    6938
 k-point    39 :   0.4737 0.5000 0.0000  plane waves:    6930
 k-point    40 :   0.5000 0.5000 0.0000  plane waves:    6948
 k-point    41 :   0.5000 0.5000 0.0000  plane waves:    6948
 k-point    42 :   0.4737 0.4737 0.0000  plane waves:    6942
 k-point    43 :   0.4474 0.4474 0.0000  plane waves:    6942
 k-point    44 :   0.4211 0.4211 0.0000  plane waves:    6941
 k-point    45 :   0.3947 0.3947 0.0000  plane waves:    6955
 k-point    46 :   0.3684 0.3684 0.0000  plane waves:    6949
 k-point    47 :   0.3421 0.3421 0.0000  plane waves:    6961
 k-point    48 :   0.3158 0.3158 0.0000  plane waves:    6977
 k-point    49 :   0.2895 0.2895 0.0000  plane waves:    6987
 k-point    50 :   0.2632 0.2632 0.0000  plane waves:    7009
 k-point    51 :   0.2368 0.2368 0.0000  plane waves:    7007
 k-point    52 :   0.2105 0.2105 0.0000  plane waves:    7011
 k-point    53 :   0.1842 0.1842 0.0000  plane waves:    7011
 k-point    54 :   0.1579 0.1579 0.0000  plane waves:    7003
 k-point    55 :   0.1316 0.1316 0.0000  plane waves:    6997
 k-point    56 :   0.1053 0.1053 0.0000  plane waves:    6991
 k-point    57 :   0.0789 0.0789 0.0000  plane waves:    6989
 k-point    58 :   0.0526 0.0526 0.0000  plane waves:    6983
 k-point    59 :   0.0263 0.0263 0.0000  plane waves:    6989
 k-point    60 :   0.0000 0.0000 0.0000  plane waves:    6979
 k-point    61 :   0.0000 0.0000 0.0000  plane waves:    6979
 k-point    62 :   0.0000 0.0000 0.0263  plane waves:    6987
 k-point    63 :   0.0000 0.0000 0.0526  plane waves:    6999
 k-point    64 :   0.0000 0.0000 0.0789  plane waves:    6995
 k-point    65 :   0.0000 0.0000 0.1053  plane waves:    6991
 k-point    66 :   0.0000 0.0000 0.1316  plane waves:    7006
 k-point    67 :   0.0000 0.0000 0.1579  plane waves:    7006
 k-point    68 :   0.0000 0.0000 0.1842  plane waves:    7002
 k-point    69 :   0.0000 0.0000 0.2105  plane waves:    7002
 k-point    70 :   0.0000 0.0000 0.2368  plane waves:    7002
 k-point    71 :   0.0000 0.0000 0.2632  plane waves:    6986
 k-point    72 :   0.0000 0.0000 0.2895  plane waves:    6974
 k-point    73 :   0.0000 0.0000 0.3158  plane waves:    6998
 k-point    74 :   0.0000 0.0000 0.3421  plane waves:    7014
 k-point    75 :   0.0000 0.0000 0.3684  plane waves:    7034
 k-point    76 :   0.0000 0.0000 0.3947  plane waves:    7042
 k-point    77 :   0.0000 0.0000 0.4211  plane waves:    7014
 k-point    78 :   0.0000 0.0000 0.4474  plane waves:    7022
 k-point    79 :   0.0000 0.0000 0.4737  plane waves:    7026
 k-point    80 :   0.0000 0.0000 0.5000  plane waves:    7014
 k-point    81 :   0.0000 0.0000 0.5000  plane waves:    7014
 k-point    82 :   0.0000 0.0263 0.5000  plane waves:    7018
 k-point    83 :   0.0000 0.0526 0.5000  plane waves:    7004
 k-point    84 :   0.0000 0.0789 0.5000  plane waves:    6998
 k-point    85 :   0.0000 0.1053 0.5000  plane waves:    7004
 k-point    86 :   0.0000 0.1316 0.5000  plane waves:    6986
 k-point    87 :   0.0000 0.1579 0.5000  plane waves:    6982
 k-point    88 :   0.0000 0.1842 0.5000  plane waves:    6980
 k-point    89 :   0.0000 0.2105 0.5000  plane waves:    6978
 k-point    90 :   0.0000 0.2368 0.5000  plane waves:    6982
 k-point    91 :   0.0000 0.2632 0.5000  plane waves:    6982
 k-point    92 :   0.0000 0.2895 0.5000  plane waves:    6980
 k-point    93 :   0.0000 0.3158 0.5000  plane waves:    6982
 k-point    94 :   0.0000 0.3421 0.5000  plane waves:    6982
 k-point    95 :   0.0000 0.3684 0.5000  plane waves:    6988
 k-point    96 :   0.0000 0.3947 0.5000  plane waves:    7004
 k-point    97 :   0.0000 0.4211 0.5000  plane waves:    6996
 k-point    98 :   0.0000 0.4474 0.5000  plane waves:    7002
 k-point    99 :   0.0000 0.4737 0.5000  plane waves:    6992
 k-point   100 :   0.0000 0.5000 0.5000  plane waves:    6988
 k-point   101 :   0.0000 0.5000 0.5000  plane waves:    6988
 k-point   102 :   0.0263 0.5000 0.5000  plane waves:    6988
 k-point   103 :   0.0526 0.5000 0.5000  plane waves:    6988
 k-point   104 :   0.0789 0.5000 0.5000  plane waves:    6992
 k-point   105 :   0.1053 0.5000 0.5000  plane waves:    7008
 k-point   106 :   0.1316 0.5000 0.5000  plane waves:    7000
 k-point   107 :   0.1579 0.5000 0.5000  plane waves:    6988
 k-point   108 :   0.1842 0.5000 0.5000  plane waves:    6976
 k-point   109 :   0.2105 0.5000 0.5000  plane waves:    6972
 k-point   110 :   0.2368 0.5000 0.5000  plane waves:    6992
 k-point   111 :   0.2632 0.5000 0.5000  plane waves:    6992
 k-point   112 :   0.2895 0.5000 0.5000  plane waves:    6992
 k-point   113 :   0.3158 0.5000 0.5000  plane waves:    7000
 k-point   114 :   0.3421 0.5000 0.5000  plane waves:    7000
 k-point   115 :   0.3684 0.5000 0.5000  plane waves:    6976
 k-point   116 :   0.3947 0.5000 0.5000  plane waves:    6964
 k-point   117 :   0.4211 0.5000 0.5000  plane waves:    6952
 k-point   118 :   0.4474 0.5000 0.5000  plane waves:    6944
 k-point   119 :   0.4737 0.5000 0.5000  plane waves:    6940
 k-point   120 :   0.5000 0.5000 0.5000  plane waves:    6928
 k-point   121 :   0.5000 0.5000 0.5000  plane waves:    6928
 k-point   122 :   0.4737 0.4737 0.5000  plane waves:    6944
 k-point   123 :   0.4474 0.4474 0.5000  plane waves:    6958
 k-point   124 :   0.4211 0.4211 0.5000  plane waves:    6968
 k-point   125 :   0.3947 0.3947 0.5000  plane waves:    6984
 k-point   126 :   0.3684 0.3684 0.5000  plane waves:    6998
 k-point   127 :   0.3421 0.3421 0.5000  plane waves:    7010
 k-point   128 :   0.3158 0.3158 0.5000  plane waves:    7008
 k-point   129 :   0.2895 0.2895 0.5000  plane waves:    6982
 k-point   130 :   0.2632 0.2632 0.5000  plane waves:    6986
 k-point   131 :   0.2368 0.2368 0.5000  plane waves:    6994
 k-point   132 :   0.2105 0.2105 0.5000  plane waves:    6998
 k-point   133 :   0.1842 0.1842 0.5000  plane waves:    6986
 k-point   134 :   0.1579 0.1579 0.5000  plane waves:    6982
 k-point   135 :   0.1316 0.1316 0.5000  plane waves:    7000
 k-point   136 :   0.1053 0.1053 0.5000  plane waves:    7000
 k-point   137 :   0.0789 0.0789 0.5000  plane waves:    6998
 k-point   138 :   0.0526 0.0526 0.5000  plane waves:    6998
 k-point   139 :   0.0263 0.0263 0.5000  plane waves:    7014
 k-point   140 :   0.0000 0.0000 0.5000  plane waves:    7014
 k-point   141 :   0.0000 0.5000 0.0000  plane waves:    6982
 k-point   142 :   0.0000 0.5000 0.0263  plane waves:    6970
 k-point   143 :   0.0000 0.5000 0.0526  plane waves:    6984
 k-point   144 :   0.0000 0.5000 0.0789  plane waves:    6984
 k-point   145 :   0.0000 0.5000 0.1053  plane waves:    6978
 k-point   146 :   0.0000 0.5000 0.1316  plane waves:    6980
 k-point   147 :   0.0000 0.5000 0.1579  plane waves:    6976
 k-point   148 :   0.0000 0.5000 0.1842  plane waves:    6968
 k-point   149 :   0.0000 0.5000 0.2105  plane waves:    6988
 k-point   150 :   0.0000 0.5000 0.2368  plane waves:    6996
 k-point   151 :   0.0000 0.5000 0.2632  plane waves:    7002
 k-point   152 :   0.0000 0.5000 0.2895  plane waves:    6998
 k-point   153 :   0.0000 0.5000 0.3158  plane waves:    6986
 k-point   154 :   0.0000 0.5000 0.3421  plane waves:    6996
 k-point   155 :   0.0000 0.5000 0.3684  plane waves:    6986
 k-point   156 :   0.0000 0.5000 0.3947  plane waves:    6970
 k-point   157 :   0.0000 0.5000 0.4211  plane waves:    6976
 k-point   158 :   0.0000 0.5000 0.4474  plane waves:    6984
 k-point   159 :   0.0000 0.5000 0.4737  plane waves:    6992
 k-point   160 :   0.0000 0.5000 0.5000  plane waves:    6988
 k-point   161 :   0.5000 0.5000 0.0000  plane waves:    6948
 k-point   162 :   0.5000 0.5000 0.0263  plane waves:    6944
 k-point   163 :   0.5000 0.5000 0.0526  plane waves:    6944
 k-point   164 :   0.5000 0.5000 0.0789  plane waves:    6948
 k-point   165 :   0.5000 0.5000 0.1053  plane waves:    6924
 k-point   166 :   0.5000 0.5000 0.1316  plane waves:    6908
 k-point   167 :   0.5000 0.5000 0.1579  plane waves:    6944
 k-point   168 :   0.5000 0.5000 0.1842  plane waves:    6936
 k-point   169 :   0.5000 0.5000 0.2105  plane waves:    6940
 k-point   170 :   0.5000 0.5000 0.2368  plane waves:    6936
 k-point   171 :   0.5000 0.5000 0.2632  plane waves:    6944
 k-point   172 :   0.5000 0.5000 0.2895  plane waves:    6944
 k-point   173 :   0.5000 0.5000 0.3158  plane waves:    6932
 k-point   174 :   0.5000 0.5000 0.3421  plane waves:    6936
 k-point   175 :   0.5000 0.5000 0.3684  plane waves:    6928
 k-point   176 :   0.5000 0.5000 0.3947  plane waves:    6928
 k-point   177 :   0.5000 0.5000 0.4211  plane waves:    6920
 k-point   178 :   0.5000 0.5000 0.4474  plane waves:    6928
 k-point   179 :   0.5000 0.5000 0.4737  plane waves:    6928
 k-point   180 :   0.5000 0.5000 0.5000  plane waves:    6928

 maximum and minimum number of plane-waves per node :      7042     6908

 maximum number of plane-waves:      7042
 maximum index in each direction: 
   IXMAX=   10   IYMAX=   10   IZMAX=   15
   IXMIN=  -10   IYMIN=  -11   IZMIN=  -15


 serial   3D FFT for wavefunctions
 parallel 3D FFT for charge:
    minimum data exchange during FFTs selected (reduces bandwidth)


 total amount of memory used by VASP MPI-rank0   445495. kBytes
=======================================================================

   base                                    :      30000. kBytes
   nonl-proj                               :     370089. kBytes
   fftplans                                :        434. kBytes
   grid                                    :       2331. kBytes
   one-center                              :        248. kBytes
   wavefun                                 :      42393. kBytes
 
     INWAV:  cpu time      5.5471: real time      5.5472
 initial charge density was supplied:
 number of electron     119.9999793 magnetization 
 keeping initial charge density in first step


--------------------------------------------------------------------------------------------------------


 Maximum index for augmentation-charges          455 (set IRDMAX)


--------------------------------------------------------------------------------------------------------


 First call to EWALD:  gamma=   0.278
 Maximum number of real-space cells   3x   3x   2
 Maximum number of reciprocal cells   2x   2x   3

    FEWALD:  cpu time      0.0010: real time      0.0010


--------------------------------------- Ionic step        1  -------------------------------------------




--------------------------------------- Iteration      1(   1)  ---------------------------------------


    POTLOK:  cpu time      0.0080: real time      0.0080
    SETDIJ:  cpu time      0.0020: real time      0.0020
     EDDAV:  cpu time     37.9202: real time     37.9240
       DOS:  cpu time      0.0019: real time      0.0019
    --------------------------------------------
      LOOP:  cpu time     37.9322: real time     37.9359

 eigenvalue-minimisations  : 52864
 total energy-change (2. order) :-0.9835464E+02  (-0.6519503E-07)
 number of electron     119.9999793 magnetization 
 augmentation part      119.9999793 magnetization 

 Free energy of the ion-electron system (eV)
  ---------------------------------------------------
  alpha Z        PSCENC =       302.45033193
  Ewald energy   TEWEN  =     -8685.12768637
  -Hartree energ DENC   =     -3930.14505695
  -exchange      EXHF   =         0.00000000
  -V(xc)+E(xc)   XCENC  =       279.29652063
  PAW double counting   =     13277.44161293   -12838.39576300
  entropy T*S    EENTRO =         0.01179001
  eigenvalues    EBANDS =     -1636.87394782
[...]
     90      12.8046      0.00000
     91      12.8046      0.00000
     92      12.8046      0.00000
     93      12.9651      0.00000
     94      12.9651      0.00000
     95      12.9651      0.00000
     96      12.9651      0.00000
     97      14.1110      0.00000
     98      14.1110      0.00000
     99      14.1110      0.00000
    100      14.1110      0.00000
    101      14.1173      0.00000
    102      14.1173      0.00000
    103      14.1173      0.00000
    104      14.1173      0.00000
    105      17.3389      0.00000
    106      17.3389      0.00000
    107      17.3389      0.00000
    108      17.3389      0.00000
    109      17.6544      0.00000
    110      17.6544      0.00000
    111      17.6544      0.00000
    112      17.6544      0.00000
    113      18.6563      0.00000
    114      18.6563      0.00000
    115      18.6563      0.00000
    116      18.6563      0.00000
    117      18.6884      0.00000
    118      18.6884      0.00000
    119      18.6884      0.00000
    120      18.6884      0.00000
    121      18.7336      0.00000
    122      18.7336      0.00000
    123      18.7336      0.00000
    124      18.7336      0.00000
    125      18.9386      0.00000
    126      18.9386      0.00000
    127      18.9386      0.00000
    128      18.9386      0.00000

 k-point   180 :       0.5000    0.5000    0.5000
  band No.  band energies     occupation 
      1     -48.2444      2.00000
      2     -48.2444      2.00000
      3     -48.2444      2.00000
      4     -48.2444      2.00000
      5     -48.2444      2.00000
      6     -48.2444      2.00000
      7     -48.2444      2.00000
      8     -48.2444      2.00000
      9     -24.6477      2.00000
     10     -24.6477      2.00000
     11     -24.6477      2.00000
     12     -24.6477      2.00000
     13     -24.6477      2.00000
     14     -24.6477      2.00000
     15     -24.6477      2.00000
     16     -24.6477      2.00000
     17     -24.4732      2.00000
     18     -24.4732      2.00000
     19     -24.4732      2.00000
     20     -24.4732      2.00000
     21     -24.4732      2.00000
     22     -24.4732      2.00000
     23     -24.4732      2.00000
     24     -24.4732      2.00000
     25     -24.4592      2.00000
     26     -24.4592      2.00000
     27     -24.4592      2.00000
     28     -24.4592      2.00000
     29     -24.4592      2.00000
     30     -24.4592      2.00000
     31     -24.4592      2.00000
     32     -24.4592      2.00000
     33       2.0031      2.00000
     34       2.0031      2.00000
     35       2.0031      2.00000
     36       2.0031      2.00000
     37       2.0031      2.00000
     38       2.0031      2.00000
     39       2.0031      2.00000
     40       2.0031      2.00000
     41       6.2495      2.00000
     42       6.2495      2.00000
     43       6.2495      2.00000
     44       6.2495      2.00000
     45       6.2495      2.00000
     46       6.2495      2.00000
     47       6.2495      2.00000
     48       6.2495      2.00000
     49       7.9187      2.00001
     50       7.9187      2.00001
     51       7.9187      2.00001
     52       7.9187      2.00001
     53       7.9187      2.00001
     54       7.9187      2.00001
     55       7.9187      2.00001
     56       7.9187      2.00001
     57       8.3072      0.34970
     58       8.3072      0.34970
     59       8.3072      0.34970
     60       8.3072      0.34970
     61       8.3072      0.34970
     62       8.3072      0.34970
     63       8.3072      0.34970
     64       8.3072      0.34970
     65       9.0529     -0.00000
     66       9.0529     -0.00000
     67       9.0529     -0.00000
     68       9.0529     -0.00000
     69       9.0529     -0.00000
     70       9.0529     -0.00000
     71       9.0529     -0.00000
     72       9.0529     -0.00000
     73      10.0068     -0.00000
     74      10.0068     -0.00000
     75      10.0068     -0.00000
     76      10.0068     -0.00000
     77      10.0068     -0.00000
     78      10.0068     -0.00000
     79      10.0068     -0.00000
     80      10.0068     -0.00000
     81      11.7003      0.00000
     82      11.7003      0.00000
     83      11.7003      0.00000
     84      11.7003      0.00000
     85      11.7003      0.00000
     86      11.7003      0.00000
     87      11.7003      0.00000
     88      11.7003      0.00000
     89      12.8842      0.00000
     90      12.8842      0.00000
     91      12.8842      0.00000
     92      12.8842      0.00000
     93      12.8842      0.00000
     94      12.8842      0.00000
     95      12.8842      0.00000
     96      12.8842      0.00000
     97      14.1145      0.00000
     98      14.1145      0.00000
     99      14.1145      0.00000
    100      14.1145      0.00000
    101      14.1145      0.00000
    102      14.1145      0.00000
    103      14.1145      0.00000
    104      14.1145      0.00000
    105      17.5001      0.00000
    106      17.5001      0.00000
    107      17.5001      0.00000
    108      17.5001      0.00000
    109      17.5001      0.00000
    110      17.5001      0.00000
    111      17.5001      0.00000
    112      17.5001      0.00000
    113      18.7058      0.00000
    114      18.7058      0.00000
    115      18.7058      0.00000
    116      18.7058      0.00000
    117      18.7058      0.00000
    118      18.7058      0.00000
    119      18.7058      0.00000
    120      18.7058      0.00000
    121      18.7961      0.00000
    122      18.7961      0.00000
    123      18.7961      0.00000
    124      18.7961      0.00000
    125      18.7961      0.00000
    126      18.7961      0.00000
    127      18.7961      0.00000
    128      18.7961      0.00000


--------------------------------------------------------------------------------------------------------


 soft charge-density along one line, spin component           1
         0         1         2         3         4         5         6         7         8         9
 total charge-density along one line
 
 pseudopotential strength for first ion, spin component:           1
 -3.787 -19.447   0.000   0.000  -0.000  -0.000  -0.000   0.000
-19.447   7.496   0.000   0.000  -0.000   0.000   0.000  -0.000
  0.000   0.000 -22.368   0.000  -0.000   7.034  -0.000   0.000
  0.000   0.000   0.000 -22.478  -0.000  -0.000   7.109   0.000
 -0.000  -0.000  -0.000  -0.000 -22.368   0.000   0.000   7.034
 -0.000   0.000   7.034  -0.000   0.000   6.632   0.000  -0.000
 -0.000   0.000  -0.000   7.109   0.000   0.000   6.603  -0.000
  0.000  -0.000   0.000   0.000   7.034  -0.000  -0.000   6.632
 -0.000  -0.000  -0.000  -0.000   0.000   0.000   0.000  -0.000
  0.000   0.000   0.000   0.000  -0.000  -0.000  -0.000   0.000
 -0.044  -0.013  -0.000   0.000   0.000   0.000  -0.000  -0.000
 -0.000  -0.000  -0.000  -0.000   0.000   0.000   0.000  -0.000
  0.000   0.000  -0.000  -0.000  -0.000   0.000   0.000   0.000
 -0.000  -0.000  -0.000  -0.000   0.000   0.000   0.000  -0.000
  0.000   0.000   0.000   0.000  -0.000  -0.000  -0.000   0.000
 -0.055  -0.015  -0.000   0.000   0.000   0.000  -0.000  -0.000
 -0.000  -0.000  -0.000  -0.000   0.000   0.000   0.000  -0.000
  0.000   0.000  -0.000  -0.000  -0.000   0.000   0.000   0.000
 total augmentation occupancy for first ion, spin component:           1
  2.000   0.000   0.000   0.000   0.000   0.000   0.000   0.000   0.000   0.000   0.000   0.000   0.000   0.000   0.000   0.000
  0.000   1.000   0.000   0.000   0.000   0.000   0.000   0.000   0.000   0.000   0.000   0.000   0.000   0.000   0.000   0.000
  0.000   0.000   2.000   0.000   0.000   0.000   0.000   0.000   0.000   0.000   0.000   0.000   0.000   0.000   0.000   0.000
  0.000   0.000   0.000   2.000   0.000   0.000   0.000   0.000   0.000   0.000   0.000   0.000   0.000   0.000   0.000   0.000
  0.000   0.000   0.000   0.000   2.000   0.000   0.000   0.000   0.000   0.000   0.000   0.000   0.000   0.000   0.000   0.000
  0.000   0.000   0.000   0.000   0.000   0.000   0.000   0.000   0.000   0.000   0.000   0.000   0.000   0.000   0.000   0.000
  0.000   0.000   0.000   0.000   0.000   0.000   0.000   0.000   0.000   0.000   0.000   0.000   0.000   0.000   0.000   0.000
  0.000   0.000   0.000   0.000   0.000   0.000   0.000   0.000   0.000   0.000   0.000   0.000   0.000   0.000   0.000   0.000
  0.000   0.000   0.000   0.000   0.000   0.000   0.000   0.000   0.600   0.000   0.000   0.000   0.000   0.000   0.000   0.000
  0.000   0.000   0.000   0.000   0.000   0.000   0.000   0.000   0.000   0.600   0.000   0.000   0.000   0.000   0.000   0.000
  0.000   0.000   0.000   0.000   0.000   0.000   0.000   0.000   0.000   0.000   0.600   0.000   0.000   0.000   0.000   0.000
  0.000   0.000   0.000   0.000   0.000   0.000   0.000   0.000   0.000   0.000   0.000   0.600   0.000   0.000   0.000   0.000
  0.000   0.000   0.000   0.000   0.000   0.000   0.000   0.000   0.000   0.000   0.000   0.000   0.600   0.000   0.000   0.000
  0.000   0.000   0.000   0.000   0.000   0.000   0.000   0.000   0.000   0.000   0.000   0.000   0.000   0.000   0.000   0.000
  0.000   0.000   0.000   0.000   0.000   0.000   0.000   0.000   0.000   0.000   0.000   0.000   0.000   0.000   0.000   0.000
  0.000   0.000   0.000   0.000   0.000   0.000   0.000   0.000   0.000   0.000   0.000   0.000   0.000   0.000   0.000   0.000
  0.000   0.000   0.000   0.000   0.000   0.000   0.000   0.000   0.000   0.000   0.000   0.000   0.000   0.000   0.000   0.000
  0.000   0.000   0.000   0.000   0.000   0.000   0.000   0.000   0.000   0.000   0.000   0.000   0.000   0.000   0.000   0.000


------------------------ aborting loop because EDIFF is reached ----------------------------------------





 total charge

# of ion       s       p       d       tot
------------------------------------------
    1        2.199   6.119   1.948  10.266
    2        2.199   6.119   1.948  10.266
    3        2.199   6.119   1.948  10.266
    4        2.199   6.119   1.948  10.266
    5        2.199   6.119   1.948  10.266
    6        2.199   6.119   1.948  10.266
    7        2.199   6.119   1.948  10.266
    8        2.199   6.119   1.948  10.266
    9        0.407   0.424   0.000   0.831
   10        0.407   0.424   0.000   0.831
   11        0.407   0.424   0.000   0.831
   12        0.407   0.424   0.000   0.831
   13        0.407   0.424   0.000   0.831
   14        0.407   0.424   0.000   0.831
   15        0.407   0.424   0.000   0.831
   16        0.407   0.424   0.000   0.831
--------------------------------------------------
tot         20.847  52.345  15.586  88.778
 
    CHARGE:  cpu time      0.1811: real time      0.1811
    FORLOC:  cpu time      0.0006: real time      0.0006
    FORNL :  cpu time      3.4964: real time      3.4965
    STRESS:  cpu time      9.7331: real time      9.7332
    FORCOR:  cpu time      0.0077: real time      0.0077
    FORHAR:  cpu time      0.0015: real time      0.0015
    OFIELD:  cpu time      0.0000: real time      0.0000

  FORCE on cell =-STRESS in cart. coord.  units (eV):
  Direction    XX          YY          ZZ          XY          YZ          ZX
  --------------------------------------------------------------------------------------
  Alpha Z   302.45033   302.45033   302.45033
  Ewald   -2316.54182 -2316.54182 -4052.05886    -0.00000    -0.00000    -0.00000
  Hartree  1807.14722  1807.14722   305.54664    -0.00000    -0.00000    -0.00000
  E(xc)    -576.62278  -576.62278  -578.20656    -0.00000     0.00000     0.00000
  Local   -1129.73791 -1129.73791  2134.78595    -0.00000     0.00000     0.00000
  n-local  -141.02238  -111.13898   -73.12015    -1.63515    -0.00000     0.00000
  augment   493.62072   493.62072   473.48743     0.00000    -0.00000     0.00000
  Kinetic  1563.41400  1535.65470  1480.40911     0.61651    -0.00000     0.00000
  Fock        0.00000     0.00000     0.00000     0.00000     0.00000     0.00000
  -------------------------------------------------------------------------------------
  Total       3.76944     3.76944    -6.70612     0.00000     0.00000     0.00000
  in kB      23.27993    23.27993   -41.41681     0.00000     0.00000     0.00000
  external pressure =        1.71 kB  Pullay stress =        0.00 kB


 VOLUME and BASIS-vectors are now :
 -----------------------------------------------------------------------------
  energy-cutoff  :      520.00
  volume of cell :      259.42
      direct lattice vectors                 reciprocal lattice vectors
     5.650681772  0.000000000  0.000000000     0.176969796  0.000000000  0.000000000
     0.000000000  5.650681772  0.000000000     0.000000000  0.176969796  0.000000000
     0.000000000  0.000000000  8.124629189     0.000000000  0.000000000  0.123082540

  length of vectors
     5.650681772  5.650681772  8.124629189     0.176969796  0.176969796  0.123082540


 FORCES acting on ions
    electron-ion (+dipol)            ewald-force                    non-local-force                 convergence-correction
 -----------------------------------------------------------------------------------------------
   0.226E-14 -.124E-15 -.481E-13   0.103E-13 -.178E-14 -.178E-13   0.331E-23 -.165E-22 -.672E-24   0.372E-13 -.101E-12 -.280E-12
   0.226E-14 -.124E-15 0.106E-11   0.102E-13 -.178E-14 0.178E-13   0.000E+00 0.199E-22 0.662E-23   0.185E-13 0.586E-14 -.231E-12
   0.226E-14 0.394E-12 -.446E-13   0.103E-13 -.613E-14 -.178E-13   0.132E-22 0.108E-22 0.132E-22   0.716E-13 -.142E-12 -.314E-12
   0.226E-14 0.394E-12 0.106E-11   0.952E-14 -.613E-14 0.178E-13   -.703E-23 0.232E-22 -.331E-23   0.206E-13 -.502E-14 -.223E-12
   0.397E-12 -.903E-15 -.678E-11   -.380E-13 0.613E-14 -.178E-13   0.662E-23 -.993E-23 -.662E-23   -.938E-13 0.114E-12 -.210E-12
   0.397E-12 -.903E-15 0.430E-11   -.378E-13 0.613E-14 0.178E-13   0.248E-23 0.165E-22 0.122E-22   -.783E-13 0.993E-13 -.338E-12
   0.397E-12 0.393E-12 -.199E-11   -.380E-13 0.178E-14 -.178E-13   -.199E-22 -.145E-22 0.000E+00   -.210E-12 -.219E-13 -.296E-12
   0.397E-12 0.393E-12 0.249E-11   -.372E-13 0.178E-14 0.178E-13   0.385E-22 0.165E-23 0.149E-22   -.894E-13 0.807E-13 -.313E-12
   0.203E-14 -.565E-14 -.296E-12   0.214E-13 0.899E-16 -.131E-14   -.165E-23 0.000E+00 -.485E-23   0.413E-14 -.154E-14 0.708E-13
   0.197E-14 -.554E-14 -.284E-12   0.208E-13 0.849E-16 0.139E-14   -.827E-24 0.227E-23 0.103E-23   -.641E-14 -.117E-14 -.971E-14
   0.234E-14 -.173E-13 -.266E-12   0.211E-13 -.389E-15 -.132E-14   -.165E-23 -.290E-23 0.165E-23   0.187E-14 0.625E-14 0.732E-13
   0.232E-14 -.157E-13 -.255E-12   0.206E-13 -.394E-15 0.138E-14   -.124E-23 -.290E-23 0.165E-23   -.678E-14 0.124E-14 -.109E-13
   -.125E-13 0.633E-12 0.453E-12   0.634E-14 0.504E-15 -.138E-14   0.414E-24 0.207E-24 -.165E-23   -.116E-14 -.775E-14 0.526E-13
   -.118E-13 -.165E-13 0.780E-12   0.687E-14 0.499E-15 0.132E-14   0.248E-23 0.165E-23 0.000E+00   0.894E-14 -.368E-14 -.324E-13
   -.118E-13 0.447E-12 0.691E-13   0.655E-14 0.251E-16 -.139E-14   0.827E-24 -.290E-23 -.827E-23   0.230E-14 0.106E-13 0.613E-13
   -.126E-13 0.458E-12 0.445E-12   0.709E-14 0.201E-16 0.131E-14   0.248E-23 -.372E-23 0.000E+00   0.945E-14 0.381E-15 -.353E-13
 -----------------------------------------------------------------------------------------------
   0.156E-11 0.305E-11 0.696E-12   0.114E-15 0.440E-15 -.394E-30   0.381E-22 0.227E-22 0.259E-22   -.311E-12 0.352E-13 -.204E-11
 
 
 POSITION                                       TOTAL-FORCE (eV/Angst)
 -----------------------------------------------------------------------------------
      0.00000      0.00000      0.00000         0.000000     -0.000000      0.000000
      0.00000      0.00000      4.06231        -0.000000      0.000000     -0.000000
      0.00000      2.82534      0.00000         0.000000     -0.000000     -0.000000
      0.00000      2.82534      4.06231         0.000000     -0.000000     -0.000000
      2.82534      0.00000      0.00000         0.000000     -0.000000     -0.000000
      2.82534      0.00000      4.06231        -0.000000     -0.000000     -0.000000
      2.82534      2.82534      0.00000        -0.000000     -0.000000      0.000000
      2.82534      2.82534      4.06231         0.000000      0.000000     -0.000000
      1.41267      1.41267      2.03116        -0.000000      0.000000      0.000000
      1.41267      1.41267      6.09347        -0.000000      0.000000      0.000000
      1.41267      4.23801      2.03116        -0.000000     -0.000000      0.000000
      1.41267      4.23801      6.09347         0.000000     -0.000000     -0.000000
      4.23801      1.41267      2.03116         0.000000      0.000000      0.000000
      4.23801      1.41267      6.09347        -0.000000      0.000000      0.000000
      4.23801      4.23801      2.03116        -0.000000     -0.000000      0.000000
      4.23801      4.23801      6.09347         0.000000     -0.000000      0.000000
 -----------------------------------------------------------------------------------
    total drift:                                0.000000      0.000000     -0.000000


--------------------------------------------------------------------------------------------------------



  FREE ENERGIE OF THE ION-ELECTRON SYSTEM (eV)
  ---------------------------------------------------
  free  energy   TOTEN  =       -98.35464352 eV

  energy  without entropy=      -98.36643354  energy(sigma->0) =      -98.35857353
 


--------------------------------------------------------------------------------------------------------


    POTLOK:  cpu time      0.0081: real time      0.0081


--------------------------------------------------------------------------------------------------------


 writing wavefunctions
     LOOP+:  cpu time     81.6075: real time     81.8052
    4ORBIT:  cpu time      0.0000: real time      0.0000



 total charge

# of ion       s       p       d       tot
------------------------------------------
    1        2.199   6.119   1.948  10.266
    2        2.199   6.119   1.948  10.266
    3        2.199   6.119   1.948  10.266
    4        2.199   6.119   1.948  10.266
    5        2.199   6.119   1.948  10.266
    6        2.199   6.119   1.948  10.266
    7        2.199   6.119   1.948  10.266
    8        2.199   6.119   1.948  10.266
    9        0.407   0.424   0.000   0.831
   10        0.407   0.424   0.000   0.831
   11        0.407   0.424   0.000   0.831
   12        0.407   0.424   0.000   0.831
   13        0.407   0.424   0.000   0.831
   14        0.407   0.424   0.000   0.831
   15        0.407   0.424   0.000   0.831
   16        0.407   0.424   0.000   0.831
--------------------------------------------------
tot         20.847  52.345  15.586  88.778
 

 total amount of memory used by VASP MPI-rank0   445495. kBytes
=======================================================================

   base                                    :      30000. kBytes
   nonl-proj                               :     370089. kBytes
   fftplans                                :        434. kBytes
   grid                                    :       2331. kBytes
   one-center                              :        248. kBytes
   wavefun                                 :      42393. kBytes
 
  
  
 General timing and accounting informations for this job:
 ========================================================
  
                  Total CPU time used (sec):       94.889
                            User time (sec):       87.048
                          System time (sec):        7.840
                         Elapsed time (sec):       95.347
  
                   Maximum memory used (kb):      584184.
                   Average memory used (kb):          N/A
  
                          Minor page faults:       120189
                          Major page faults:           13
                 Voluntary context switches:        20290
