   32   32    1    1
  0.4527679E+02  0.5645286E-09  0.9881350E-09  0.2619871E-08  0.5000000E-15
  1.000000000000000E-004
  CAR 
 unknown system                          
    260      8    192
 
  0.1276756E-14  0.1276756E-14  0.1276756E-14  0.5555556E-01
      1        -56.789880   1.000000
      2        -56.735264   1.000000
      3        -56.421476   1.000000
      4        -56.410440   1.000000
      5        -56.365767   1.000000
      6        -56.354348   1.000000
      7        -56.337215   1.000000
      8        -56.280984   1.000000
      9        -56.257555   1.000000
     10        -56.234167   1.000000
     11        -56.203231   1.000000
     12        -56.200201   1.000000
     13        -56.178522   1.000000
     14        -56.176577   1.000000
     15        -56.145907   1.000000
     16        -56.121346   1.000000
     17        -33.206203   1.000000
     18        -33.168315   1.000000
     19        -33.157818   1.000000
     20        -33.116271   1.000000
     21        -32.971275   1.000000
     22        -32.848739   1.000000
     23        -32.812847   1.000000
     24        -32.795588   1.000000
     25        -32.759495   1.000000
     26        -32.757317   1.000000
     27        -32.724460   1.000000
     28        -32.706560   1.000000
     29        -32.693352   1.000000
     30        -32.691064   1.000000
     31        -32.669757   1.000000
     32        -32.652021   1.000000
     33        -32.650227   1.000000
     34        -32.644434   1.000000
     35        -32.639054   1.000000
     36        -32.638072   1.000000
     37        -32.613526   1.000000
     38        -32.609254   1.000000
     39        -32.603406   1.000000
     40        -32.592259   1.000000
     41        -32.591713   1.000000
     42        -32.579654   1.000000
     43        -32.572836   1.000000
     44        -32.570642   1.000000
     45        -32.551471   1.000000
     46        -32.542984   1.000000
     47        -32.534458   1.000000
     48        -32.524369   1.000000
     49        -32.523042   1.000000
     50        -32.517351   1.000000
     51        -32.514526   1.000000
     52        -32.485626   1.000000
     53        -32.478293   1.000000
     54        -32.460573   1.000000
     55        -32.457309   1.000000
     56        -32.422804   1.000000
     57        -32.405127   1.000000
     58        -32.301729   1.000000
     59        -32.270369   1.000000
     60        -32.233974   1.000000
     61        -32.174960   1.000000
     62        -32.170549   1.000000
     63        -32.136736   1.000000
     64        -32.105125   1.000000
     65        -14.053497   1.000000
     66        -14.047747   1.000000
     67        -14.041484   1.000000
     68        -14.038061   1.000000
     69        -14.000064   1.000000
     70        -13.910626   1.000000
     71        -13.907653   1.000000
     72        -13.902542   1.000000
     73        -13.899423   1.000000
     74        -13.854883   1.000000
     75         -8.314284   1.000000
     76         -7.510539   1.000000
     77         -6.773487   1.000000
     78         -6.615632   1.000000
     79         -6.360161   1.000000
     80         -5.748742   1.000000
     81         -5.447255   1.000000
     82         -5.005519   1.000000
     83         -4.124626   1.000000
     84         -3.911790   1.000000
     85         -3.812048   1.000000
     86         -3.759376   1.000000
     87         -3.698199   1.000000
     88         -3.480991   1.000000
     89         -3.358076   1.000000
     90         -3.099616   1.000000
     91         -2.835240   1.000000
     92         -2.699862   1.000000
     93         -2.618461   1.000000
     94         -2.590203   1.000000
     95         -2.405800   1.000000
     96         -2.220470   1.000000
     97         -2.186173   1.000000
     98         -2.131487   1.000000
     99         -2.026619   1.000000
    100         -1.937915   1.000000
    101         -1.854921   1.000000
    102         -1.760663   1.000000
    103         -1.610637   1.000000
    104         -1.556016   1.000000
    105         -1.524949   1.000000
    106         -1.429429   1.000000
    107         -1.337750   1.000000
    108         -1.170224   1.000000
    109         -1.098858   1.000000
    110         -0.954111   1.000000
    111         -0.913079   1.000000
    112         -0.713893   1.000000
    113         -0.693293   1.000000
    114         -0.585973   1.000000
    115         -0.516465   1.000000
    116         -0.448334   1.000000
    117         -0.408243   1.000000
    118         -0.308542   1.000000
    119         -0.218489   1.000000
    120         -0.182446   1.000000
    121         -0.169157   1.000000
    122         -0.017919   1.000000
    123          0.032501   1.000000
    124          0.050701   1.000000
    125          0.059843   1.000000
    126          0.128913   1.000001
    127          0.196916   1.000045
    128          0.232487   1.000317
    129          0.296223   1.005071
    130          0.358297   1.027076
    131          0.360349   1.027993
    132          0.581794   0.032635
    133          0.584173   0.025108
    134          0.742151  -0.002434
    135          0.780384  -0.000435
    136          0.884061  -0.000001
    137          0.889362  -0.000001
    138          0.959695  -0.000000
    139          0.961493  -0.000000
    140          1.027101  -0.000000
    141          1.032550  -0.000000
    142          1.129147  -0.000000
    143          1.170573  -0.000000
    144          1.305579  -0.000000
    145          1.308405  -0.000000
    146          1.461797  -0.000000
    147          1.462788  -0.000000
    148          1.575877  -0.000000
    149          1.635175  -0.000000
    150          1.649913  -0.000000
    151          1.678843  -0.000000
    152          1.685258  -0.000000
    153          1.743678  -0.000000
    154          1.829422  -0.000000
    155          1.926835  -0.000000
    156          2.144900  -0.000000
    157          2.236091  -0.000000
    158          2.244539  -0.000000
    159          2.258929  -0.000000
    160          2.314490  -0.000000
    161          2.319454  -0.000000
    162          2.390316  -0.000000
    163          2.396262  -0.000000
    164          2.426543  -0.000000
    165          2.470650  -0.000000
    166          2.514991   0.000000
    167          2.543924   0.000000
    168          2.551334   0.000000
    169          2.567968   0.000000
    170          2.580990   0.000000
    171          2.641891   0.000000
    172          2.694720   0.000000
    173          2.715478   0.000000
    174          2.762534   0.000000
    175          2.770319   0.000000
    176          2.789817   0.000000
    177          2.830192   0.000000
    178          2.862310   0.000000
    179          2.898486   0.000000
    180          2.904283   0.000000
    181          3.019039   0.000000
    182          3.087211   0.000000
    183          3.129253   0.000000
    184          3.139839   0.000000
    185          3.193690   0.000000
    186          3.286292   0.000000
    187          3.453529   0.000000
    188          3.521802   0.000000
    189          3.702142   0.000000
    190          3.912629   0.000000
    191          3.929130   0.000000
    192          4.166761   0.000000
 
  0.1666667E+00  0.1276756E-14  0.1276756E-14  0.1111111E+00
      1        -56.786247   1.000000
      2        -56.738946   1.000000
      3        -56.417771   1.000000
      4        -56.406709   1.000000
      5        -56.369523   1.000000
      6        -56.358130   1.000000
      7        -56.333475   1.000000
      8        -56.284775   1.000000
      9        -56.253741   1.000000
     10        -56.230337   1.000000
     11        -56.204069   1.000000
     12        -56.199418   1.000000
     13        -56.180460   1.000000
     14        -56.174719   1.000000
     15        -56.149773   1.000000
     16        -56.125202   1.000000
     17        -33.202975   1.000000
     18        -33.164837   1.000000
     19        -33.161070   1.000000
     20        -33.119773   1.000000
     21        -32.941989   1.000000
     22        -32.845190   1.000000
     23        -32.809254   1.000000
     24        -32.799179   1.000000
     25        -32.763126   1.000000
     26        -32.727561   1.000000
     27        -32.702861   1.000000
     28        -32.695105   1.000000
     29        -32.689341   1.000000
     30        -32.665993   1.000000
     31        -32.661820   1.000000
     32        -32.655323   1.000000
     33        -32.646100   1.000000
     34        -32.641799   1.000000
     35        -32.617404   1.000000
     36        -32.613959   1.000000
     37        -32.609520   1.000000
     38        -32.604409   1.000000
     39        -32.595646   1.000000
     40        -32.588221   1.000000
     41        -32.576270   1.000000
     42        -32.573193   1.000000
     43        -32.568565   1.000000
     44        -32.555356   1.000000
     45        -32.553822   1.000000
     46        -32.540420   1.000000
     47        -32.539149   1.000000
     48        -32.538294   1.000000
     49        -32.528057   1.000000
     50        -32.521095   1.000000
     51        -32.510903   1.000000
     52        -32.489490   1.000000
     53        -32.474613   1.000000
     54        -32.464200   1.000000
     55        -32.453841   1.000000
     56        -32.426558   1.000000
     57        -32.408651   1.000000
     58        -32.333020   1.000000
     59        -32.301551   1.000000
     60        -32.265352   1.000000
     61        -32.207216   1.000000
     62        -32.202753   1.000000
     63        -32.168829   1.000000
     64        -32.137141   1.000000
     65        -14.053613   1.000000
     66        -14.047652   1.000000
     67        -14.040538   1.000000
     68        -14.038172   1.000000
     69        -13.999974   1.000000
     70        -13.910738   1.000000
     71        -13.907295   1.000000
     72        -13.902650   1.000000
     73        -13.898682   1.000000
     74        -13.854845   1.000000
     75         -8.182203   1.000000
     76         -7.395249   1.000000
     77         -6.663163   1.000000
     78         -6.494430   1.000000
     79         -6.260413   1.000000
     80         -5.635634   1.000000
     81         -5.378407   1.000000
     82         -5.089836   1.000000
     83         -4.856467   1.000000
     84         -4.555194   1.000000
     85         -4.309497   1.000000
     86         -3.865620   1.000000
     87         -3.796919   1.000000
     88         -3.723761   1.000000
     89         -3.365585   1.000000
     90         -3.252506   1.000000
     91         -3.113581   1.000000
     92         -2.516133   1.000000
     93         -2.490359   1.000000
     94         -2.443256   1.000000
     95         -2.062650   1.000000
     96         -2.030655   1.000000
     97         -1.963701   1.000000
     98         -1.954693   1.000000
     99         -1.758924   1.000000
    100         -1.727343   1.000000
    101         -1.663502   1.000000
    102         -1.591255   1.000000
    103         -1.491159   1.000000
    104         -1.463572   1.000000
    105         -1.361881   1.000000
    106         -1.260160   1.000000
    107         -1.218837   1.000000
    108         -1.199255   1.000000
    109         -1.040902   1.000000
    110         -0.870142   1.000000
    111         -0.749103   1.000000
    112         -0.681451   1.000000
    113         -0.646406   1.000000
    114         -0.495239   1.000000
    115         -0.456537   1.000000
    116         -0.413196   1.000000
    117         -0.292766   1.000000
    118         -0.228234   1.000000
    119         -0.213232   1.000000
    120         -0.107575   1.000000
    121         -0.094947   1.000000
    122         -0.075399   1.000000
    123         -0.062019   1.000000
    124          0.135029   1.000001
    125          0.144802   1.000002
    126          0.193345   1.000037
    127          0.215456   1.000129
    128          0.325014   1.012739
    129          0.417356   1.015062
    130          0.420068   1.010544
    131          0.451370   0.911821
    132          0.526529   0.358831
    133          0.646547  -0.032822
    134          0.754531  -0.001447
    135          0.768764  -0.000761
    136          0.819934  -0.000052
    137          0.887091  -0.000001
    138          0.910580  -0.000000
    139          0.969014  -0.000000
    140          0.992955  -0.000000
    141          1.116619  -0.000000
    142          1.166006  -0.000000
    143          1.204634  -0.000000
    144          1.240092  -0.000000
    145          1.292720  -0.000000
    146          1.333354  -0.000000
    147          1.429183  -0.000000
    148          1.461800  -0.000000
    149          1.503120  -0.000000
    150          1.586593  -0.000000
    151          1.616844  -0.000000
    152          1.726088  -0.000000
    153          1.776529  -0.000000
    154          1.798190  -0.000000
    155          1.854247  -0.000000
    156          2.028675  -0.000000
    157          2.061563  -0.000000
    158          2.085229  -0.000000
    159          2.147362  -0.000000
    160          2.201022  -0.000000
    161          2.207852  -0.000000
    162          2.259894  -0.000000
    163          2.273263  -0.000000
    164          2.320156  -0.000000
    165          2.342129  -0.000000
    166          2.358224  -0.000000
    167          2.437905  -0.000000
    168          2.439965  -0.000000
    169          2.480522  -0.000000
    170          2.507140  -0.000000
    171          2.509155  -0.000000
    172          2.552926   0.000000
    173          2.592146   0.000000
    174          2.614806   0.000000
    175          2.666792   0.000000
    176          2.770229   0.000000
    177          2.795665   0.000000
    178          2.837992   0.000000
    179          2.862103   0.000000
    180          2.925699   0.000000
    181          3.038848   0.000000
    182          3.043059   0.000000
    183          3.126863   0.000000
    184          3.241074   0.000000
    185          3.391677   0.000000
    186          3.445369   0.000000
    187          3.463412   0.000000
    188          3.573202   0.000000
    189          3.644351   0.000000
    190          3.690200   0.000000
    191          4.032015   0.000000
    192          4.055539   0.000000
 
  0.3333333E+00  0.1276756E-14  0.1276756E-14  0.1111111E+00
      1        -56.776300   1.000000
      2        -56.748988   1.000000
      3        -56.407625   1.000000
      4        -56.396495   1.000000
      5        -56.379767   1.000000
      6        -56.368445   1.000000
      7        -56.323235   1.000000
      8        -56.295115   1.000000
      9        -56.243298   1.000000
     10        -56.219851   1.000000
     11        -56.214617   1.000000
     12        -56.191052   1.000000
     13        -56.188981   1.000000
     14        -56.164309   1.000000
     15        -56.160316   1.000000
     16        -56.135717   1.000000
     17        -33.194145   1.000000
     18        -33.169951   1.000000
     19        -33.155334   1.000000
     20        -33.129321   1.000000
     21        -32.861461   1.000000
     22        -32.835494   1.000000
     23        -32.808940   1.000000
     24        -32.799507   1.000000
     25        -32.772893   1.000000
     26        -32.692918   1.000000
     27        -32.679669   1.000000
     28        -32.665753   1.000000
     29        -32.656128   1.000000
     30        -32.651974   1.000000
     31        -32.645367   1.000000
     32        -32.637772   1.000000
     33        -32.635390   1.000000
     34        -32.627626   1.000000
     35        -32.613108   1.000000
     36        -32.606476   1.000000
     37        -32.595070   1.000000
     38        -32.579015   1.000000
     39        -32.578143   1.000000
     40        -32.565995   1.000000
     41        -32.565844   1.000000
     42        -32.559209   1.000000
     43        -32.549038   1.000000
     44        -32.538583   1.000000
     45        -32.531856   1.000000
     46        -32.531016   1.000000
     47        -32.526514   1.000000
     48        -32.523825   1.000000
     49        -32.501092   1.000000
     50        -32.500182   1.000000
     51        -32.488924   1.000000
     52        -32.474106   1.000000
     53        -32.464701   1.000000
     54        -32.456485   1.000000
     55        -32.444337   1.000000
     56        -32.436774   1.000000
     57        -32.418253   1.000000
     58        -32.417882   1.000000
     59        -32.386121   1.000000
     60        -32.350467   1.000000
     61        -32.294680   1.000000
     62        -32.290076   1.000000
     63        -32.255850   1.000000
     64        -32.223961   1.000000
     65        -14.053845   1.000000
     66        -14.047464   1.000000
     67        -14.038658   1.000000
     68        -14.038397   1.000000
     69        -13.999785   1.000000
     70        -13.910962   1.000000
     71        -13.906688   1.000000
     72        -13.902867   1.000000
     73        -13.897096   1.000000
     74        -13.854765   1.000000
     75         -7.796627   1.000000
     76         -7.071332   1.000000
     77         -6.409465   1.000000
     78         -6.222399   1.000000
     79         -6.124632   1.000000
     80         -5.855412   1.000000
     81         -5.478790   1.000000
     82         -5.276430   1.000000
     83         -5.100605   1.000000
     84         -4.967718   1.000000
     85         -4.753138   1.000000
     86         -4.608170   1.000000
     87         -4.484301   1.000000
     88         -4.034382   1.000000
     89         -3.811148   1.000000
     90         -3.334718   1.000000
     91         -3.268787   1.000000
     92         -2.982445   1.000000
     93         -2.141896   1.000000
     94         -2.034263   1.000000
     95         -1.942106   1.000000
     96         -1.907102   1.000000
     97         -1.746915   1.000000
     98         -1.652211   1.000000
     99         -1.450711   1.000000
    100         -1.424567   1.000000
    101         -1.390957   1.000000
    102         -1.287297   1.000000
    103         -1.250465   1.000000
    104         -1.195911   1.000000
    105         -1.052062   1.000000
    106         -0.984024   1.000000
    107         -0.895363   1.000000
    108         -0.838884   1.000000
    109         -0.720395   1.000000
    110         -0.634078   1.000000
    111         -0.542561   1.000000
    112         -0.490811   1.000000
    113         -0.471941   1.000000
    114         -0.367386   1.000000
    115         -0.286143   1.000000
    116         -0.248372   1.000000
    117         -0.224262   1.000000
    118         -0.020493   1.000000
    119          0.018748   1.000000
    120          0.051809   1.000000
    121          0.076058   1.000000
    122          0.121198   1.000000
    123          0.179961   1.000016
    124          0.343359   1.020222
    125          0.374537   1.033418
    126          0.385353   1.035412
    127          0.401003   1.031891
    128          0.431114   0.986018
    129          0.445438   0.937737
    130          0.526302   0.360660
    131          0.576890   0.049871
    132          0.599309  -0.010925
    133          0.680754  -0.018039
    134          0.692546  -0.013318
    135          0.766862  -0.000831
    136          0.782271  -0.000396
    137          0.785743  -0.000333
    138          0.873930  -0.000002
    139          0.884945  -0.000001
    140          0.917488  -0.000000
    141          0.984265  -0.000000
    142          1.066339  -0.000000
    143          1.156022  -0.000000
    144          1.221078  -0.000000
    145          1.245755  -0.000000
    146          1.319245  -0.000000
    147          1.339116  -0.000000
    148          1.359196  -0.000000
    149          1.387631  -0.000000
    150          1.421846  -0.000000
    151          1.454459  -0.000000
    152          1.528605  -0.000000
    153          1.589644  -0.000000
    154          1.606354  -0.000000
    155          1.646180  -0.000000
    156          1.658318  -0.000000
    157          1.708730  -0.000000
    158          1.746366  -0.000000
    159          1.780838  -0.000000
    160          1.814019  -0.000000
    161          1.860625  -0.000000
    162          1.883946  -0.000000
    163          2.026728  -0.000000
    164          2.039590  -0.000000
    165          2.048578  -0.000000
    166          2.091770  -0.000000
    167          2.141927  -0.000000
    168          2.201009  -0.000000
    169          2.240774  -0.000000
    170          2.252724  -0.000000
    171          2.313096  -0.000000
    172          2.383160  -0.000000
    173          2.392645  -0.000000
    174          2.494976  -0.000000
    175          2.567288   0.000000
    176          2.584166   0.000000
    177          2.646410   0.000000
    178          2.702715   0.000000
    179          2.748390   0.000000
    180          2.925819   0.000000
    181          3.052159   0.000000
    182          3.169290   0.000000
    183          3.338438   0.000000
    184          3.346742   0.000000
    185          3.499998   0.000000
    186          3.588502   0.000000
    187          3.691559   0.000000
    188          3.806549   0.000000
    189          3.821472   0.000000
    190          3.924866   0.000000
    191          3.980023   0.000000
    192          4.102222   0.000000
 
  0.5000000E+00  0.1276756E-14  0.1276756E-14  0.5555556E-01
      1        -56.762936   1.000000
      2        -56.762398   1.000000
      3        -56.393972   1.000000
      4        -56.393469   1.000000
      5        -56.382777   1.000000
      6        -56.382212   1.000000
      7        -56.309485   1.000000
      8        -56.308915   1.000000
      9        -56.229247   1.000000
     10        -56.228718   1.000000
     11        -56.205750   1.000000
     12        -56.205204   1.000000
     13        -56.174940   1.000000
     14        -56.174407   1.000000
     15        -56.150299   1.000000
     16        -56.149777   1.000000
     17        -33.182279   1.000000
     18        -33.181840   1.000000
     19        -33.142582   1.000000
     20        -33.142099   1.000000
     21        -32.822488   1.000000
     22        -32.821978   1.000000
     23        -32.786381   1.000000
     24        -32.786046   1.000000
     25        -32.751917   1.000000
     26        -32.748412   1.000000
     27        -32.679533   1.000000
     28        -32.679139   1.000000
     29        -32.666053   1.000000
     30        -32.665601   1.000000
     31        -32.641989   1.000000
     32        -32.641499   1.000000
     33        -32.621303   1.000000
     34        -32.620926   1.000000
     35        -32.580745   1.000000
     36        -32.580289   1.000000
     37        -32.563796   1.000000
     38        -32.563393   1.000000
     39        -32.552554   1.000000
     40        -32.551958   1.000000
     41        -32.545494   1.000000
     42        -32.545132   1.000000
     43        -32.534329   1.000000
     44        -32.530799   1.000000
     45        -32.514647   1.000000
     46        -32.514352   1.000000
     47        -32.501987   1.000000
     48        -32.498817   1.000000
     49        -32.487834   1.000000
     50        -32.487445   1.000000
     51        -32.467251   1.000000
     52        -32.463527   1.000000
     53        -32.450905   1.000000
     54        -32.450557   1.000000
     55        -32.431976   1.000000
     56        -32.431090   1.000000
     57        -32.414136   1.000000
     58        -32.410889   1.000000
     59        -32.409547   1.000000
     60        -32.406147   1.000000
     61        -32.374831   1.000000
     62        -32.371602   1.000000
     63        -32.342706   1.000000
     64        -32.339502   1.000000
     65        -14.053960   1.000000
     66        -14.047371   1.000000
     67        -14.038509   1.000000
     68        -14.037724   1.000000
     69        -13.999684   1.000000
     70        -13.911073   1.000000
     71        -13.906429   1.000000
     72        -13.902975   1.000000
     73        -13.896262   1.000000
     74        -13.854723   1.000000
     75         -7.321702   1.000000
     76         -6.954995   1.000000
     77         -6.755196   1.000000
     78         -6.029835   1.000000
     79         -5.865069   1.000000
     80         -5.742149   1.000000
     81         -5.558848   1.000000
     82         -5.497270   1.000000
     83         -5.472423   1.000000
     84         -5.111783   1.000000
     85         -4.753591   1.000000
     86         -4.737103   1.000000
     87         -4.509244   1.000000
     88         -4.427077   1.000000
     89         -4.012968   1.000000
     90         -3.940533   1.000000
     91         -2.754619   1.000000
     92         -2.712307   1.000000
     93         -2.428766   1.000000
     94         -2.354866   1.000000
     95         -1.940285   1.000000
     96         -1.927481   1.000000
     97         -1.724023   1.000000
     98         -1.646512   1.000000
     99         -1.367618   1.000000
    100         -1.318213   1.000000
    101         -1.216338   1.000000
    102         -1.179721   1.000000
    103         -1.009058   1.000000
    104         -0.996720   1.000000
    105         -0.881535   1.000000
    106         -0.873923   1.000000
    107         -0.714958   1.000000
    108         -0.661723   1.000000
    109         -0.454547   1.000000
    110         -0.389238   1.000000
    111         -0.388416   1.000000
    112         -0.289791   1.000000
    113         -0.267242   1.000000
    114         -0.197594   1.000000
    115         -0.165377   1.000000
    116         -0.093798   1.000000
    117         -0.025672   1.000000
    118         -0.008538   1.000000
    119          0.238816   1.000436
    120          0.249923   1.000744
    121          0.269805   1.001806
    122          0.283364   1.003135
    123          0.352610   1.024468
    124          0.366804   1.030714
    125          0.418465   1.013281
    126          0.422741   1.005536
    127          0.462612   0.852997
    128          0.470513   0.804301
    129          0.561684   0.118570
    130          0.566524   0.094173
    131          0.652915  -0.030492
    132          0.694197  -0.012721
    133          0.720723  -0.005487
    134          0.736580  -0.003040
    135          0.774646  -0.000575
    136          0.791438  -0.000248
    137          0.829921  -0.000029
    138          0.836533  -0.000019
    139          0.844794  -0.000011
    140          0.867975  -0.000002
    141          0.981206  -0.000000
    142          1.003597  -0.000000
    143          1.099456  -0.000000
    144          1.119425  -0.000000
    145          1.139025  -0.000000
    146          1.166397  -0.000000
    147          1.200006  -0.000000
    148          1.236380  -0.000000
    149          1.271986  -0.000000
    150          1.300929  -0.000000
    151          1.304594  -0.000000
    152          1.374659  -0.000000
    153          1.398552  -0.000000
    154          1.408610  -0.000000
    155          1.437283  -0.000000
    156          1.447201  -0.000000
    157          1.466755  -0.000000
    158          1.481756  -0.000000
    159          1.682210  -0.000000
    160          1.689292  -0.000000
    161          1.752293  -0.000000
    162          1.762938  -0.000000
    163          1.846550  -0.000000
    164          1.847056  -0.000000
    165          1.888156  -0.000000
    166          1.888366  -0.000000
    167          1.917564  -0.000000
    168          1.961533  -0.000000
    169          2.085212  -0.000000
    170          2.103374  -0.000000
    171          2.231480  -0.000000
    172          2.232160  -0.000000
    173          2.376300  -0.000000
    174          2.396841  -0.000000
    175          2.477114  -0.000000
    176          2.481019  -0.000000
    177          2.726693   0.000000
    178          2.726963   0.000000
    179          2.815496   0.000000
    180          2.886191   0.000000
    181          3.040274   0.000000
    182          3.094280   0.000000
    183          3.310017   0.000000
    184          3.359472   0.000000
    185          3.608576   0.000000
    186          3.673979   0.000000
    187          3.903403   0.000000
    188          3.956901   0.000000
    189          4.058326   0.000000
    190          4.140509   0.000000
    191          4.193690   0.000000
    192          4.246721   0.000000
 
  0.1276756E-14  0.3333333E+00  0.1332268E-14  0.1111111E+00
      1        -56.789883   1.000000
      2        -56.735262   1.000000
      3        -56.421478   1.000000
      4        -56.410442   1.000000
      5        -56.365766   1.000000
      6        -56.354347   1.000000
      7        -56.337217   1.000000
      8        -56.280983   1.000000
      9        -56.257557   1.000000
     10        -56.234169   1.000000
     11        -56.203232   1.000000
     12        -56.200200   1.000000
     13        -56.178524   1.000000
     14        -56.176576   1.000000
     15        -56.145905   1.000000
     16        -56.121345   1.000000
     17        -33.206207   1.000000
     18        -33.168318   1.000000
     19        -33.157813   1.000000
     20        -33.116270   1.000000
     21        -32.971272   1.000000
     22        -32.848740   1.000000
     23        -32.812843   1.000000
     24        -32.795587   1.000000
     25        -32.759493   1.000000
     26        -32.757312   1.000000
     27        -32.724457   1.000000
     28        -32.706557   1.000000
     29        -32.693365   1.000000