       N       E                     dE             d eps       ncg     rms          rms(c)
DAV:   1     0.244390755918E+04    0.24439E+04   -0.12912E+05  3072   0.127E+03
DAV:   2     0.903439374217E+02   -0.23536E+04   -0.22831E+04  3328   0.385E+02
DAV:   3    -0.174277029750E+03   -0.26462E+03   -0.25724E+03  5760   0.113E+02
DAV:   4    -0.212895491374E+03   -0.38618E+02   -0.38241E+02  4992   0.353E+01
DAV:   5    -0.216054429600E+03   -0.31589E+01   -0.31585E+01  4864   0.860E+00    0.390E+01
DAV:   6    -0.323302781494E+03   -0.10725E+03   -0.71314E+02  5120   0.426E+01    0.819E+01
DAV:   7    -0.238869830865E+03    0.84433E+02   -0.48950E+02  5120   0.505E+01    0.572E+01
DAV:   8    -0.202541990599E+03    0.36328E+02   -0.23908E+02  5120   0.369E+01    0.337E+01
DAV:   9    -0.186154833641E+03    0.16387E+02   -0.76891E+01  4608   0.181E+01    0.174E+01
DAV:  10    -0.181299071347E+03    0.48558E+01   -0.15510E+01  4544   0.850E+00    0.109E+01
DAV:  11    -0.180064972049E+03    0.12341E+01   -0.60583E+00  5120   0.663E+00    0.893E+00
DAV:  12    -0.179115795100E+03    0.94918E+00   -0.47913E+00  4608   0.585E+00    0.701E+00
DAV:  13    -0.178826542494E+03    0.28925E+00   -0.35775E+00  4992   0.511E+00    0.504E+00
DAV:  14    -0.178676767882E+03    0.14977E+00   -0.15856E+00  4544   0.267E+00    0.355E+00
DAV:  15    -0.178604942170E+03    0.71826E-01   -0.97283E-01  4608   0.225E+00    0.246E+00
DAV:  16    -0.178566414952E+03    0.38527E-01   -0.34202E-01  5120   0.173E+00    0.169E+00
DAV:  17    -0.178558957842E+03    0.74571E-02   -0.15636E-01  4608   0.132E+00    0.147E+00
DAV:  18    -0.178543785927E+03    0.15172E-01   -0.11750E-01  4608   0.915E-01    0.925E-01
DAV:  19    -0.178537780277E+03    0.60056E-02   -0.28556E-02  4736   0.373E-01    0.485E-01
DAV:  20    -0.178537627223E+03    0.15305E-03   -0.78005E-03  4736   0.374E-01    0.419E-01
DAV:  21    -0.178536655998E+03    0.97123E-03   -0.44362E-03  4608   0.228E-01    0.143E-01
DAV:  22    -0.178537760449E+03   -0.11045E-02   -0.32872E-03  4864   0.112E-01    0.143E-01
DAV:  23    -0.178538564431E+03   -0.80398E-03   -0.14122E-03  4160   0.656E-02    0.669E-02
DAV:  24    -0.178539511915E+03   -0.94748E-03   -0.48741E-04  3840   0.554E-02    0.287E-02
DAV:  25    -0.178540000799E+03   -0.48888E-03   -0.81018E-05  4096   0.184E-02    0.191E-02
DAV:  26    -0.178540427242E+03   -0.42644E-03   -0.72895E-05  3456   0.145E-02    0.101E-02
DAV:  27    -0.178540588201E+03   -0.16096E-03   -0.26304E-05  3968   0.107E-02    0.469E-03
DAV:  28    -0.178540670091E+03   -0.81889E-04   -0.57592E-06  3648   0.367E-03    0.410E-03
DAV:  29    -0.178540743602E+03   -0.73511E-04   -0.47594E-06  3520   0.303E-03    0.190E-03
DAV:  30    -0.178540788314E+03   -0.44712E-04   -0.33797E-06  3520   0.200E-03    0.190E-03
DAV:  31    -0.178540810340E+03   -0.22026E-04   -0.11239E-06  3072   0.146E-03    0.877E-04
DAV:  32    -0.178540833198E+03   -0.22858E-04   -0.79540E-07  2816   0.991E-04    0.569E-04
DAV:  33    -0.178540843317E+03   -0.10119E-04   -0.37583E-07  2816   0.661E-04    0.502E-04
DAV:  34    -0.178540850031E+03   -0.67142E-05   -0.34583E-07  2752   0.525E-04
   1 F= -.17854085E+03 E0= -.17853568E+03  d E =-.154985E-01
