 vasp.6.5.0 16Dec24 (build Apr 17 2025 17:55:45) complex                        
  
 executed on             LinuxIFC date 2025.06.10  11:27:52
 running   64 mpi-ranks, on    1 nodes
 distrk:  each k-point on   64 cores,    1 groups
 distr:  one band on NCORE=   1 cores,   64 groups


--------------------------------------------------------------------------------------------------------


 INCAR:
   ISTART = 0
   ICHARG = 2
   PREC = N
   LREAL = .FALSE.
   ENCUT = 520
   ALGO = N
   NELM = 500
   EDIFF = 1E-05
   IBRION = -1
   ISIF = 3
   NSW = 0
   EDIFFG = -0.01
   ISMEAR = 1
   SIGMA = 0.1
   LVHAR = .TRUE.
   LVTOT = .TRUE.

 POTCAR:    PAW_PBE Ti_sv 26Sep2005               
 POTCAR:    PAW_PBE Ga_d 06Jul2010                
 POTCAR:    PAW_PBE Al 04Jan2001                  
 -----------------------------------------------------------------------------
|                                                                             |
|           W    W    AA    RRRRR   N    N  II  N    N   GGGG   !!!           |
|           W    W   A  A   R    R  NN   N  II  NN   N  G    G  !!!           |
|           W    W  A    A  R    R  N N  N  II  N N  N  G       !!!           |
|           W WW W  AAAAAA  RRRRR   N  N N  II  N  N N  G  GGG   !            |
|           WW  WW  A    A  R   R   N   NN  II  N   NN  G    G                |
|           W    W  A    A  R    R  N    N  II  N    N   GGGG   !!!           |
|                                                                             |
|     For optimal performance we recommend to set                             |
|       NCORE = 2 up to number-of-cores-per-socket                            |
|     NCORE specifies how many cores store one orbital (NPAR=cpu/NCORE).      |
|     This setting can greatly improve the performance of VASP for DFT.       |
|     The default, NCORE=1 might be grossly inefficient on modern             |
|     multi-core architectures or massively parallel machines. Do your        |
|     own testing! More info at https://www.vasp.at/wiki/index.php/NCORE      |
|     Unfortunately you need to use the default for GW and RPA                |
|     calculations (for HF NCORE is supported but not extensively tested      |
|     yet).                                                                   |
|                                                                             |
 -----------------------------------------------------------------------------

 POTCAR:    PAW_PBE Ti_sv 26Sep2005               
   SHA256 =  4d747badb5a5ea28d858fbac70885b3f8929d6fd9e5b0dbe1ecb9878dc164da1 Ti_sv/POTCAR          
   COPYR  = (c) Copyright 26Sep2005 Georg Kresse                                                    
   COPYR  = This file is part of the software VASP. Any use, copying, and all other rights are regul
   COPYR  = If you do not have a valid VASP license, you may not use, copy or distribute this file. 
   VRHFIN =Ti: 3p4s3d                                                                               
   LEXCH  = PE                                                                                      
   EATOM  =  1588.0892 eV,  116.7213 Ry                                                             
                                                                                                    
   TITEL  = PAW_PBE Ti_sv 26Sep2005                                                                 
   LULTRA =        F    use ultrasoft PP ?                                                          
   IUNSCR =        1    unscreen: 0-lin 1-nonlin 2-no                                               
   RPACOR =    2.000    partial core radius                                                         
   POMASS =   47.880; ZVAL   =   12.000    mass and valenz                                          
   RCORE  =    2.300    outmost cutoff radius                                                       
   RWIGS  =    2.300; RWIGS  =    1.217    wigner-seitz radius (au A)                               
   ENMAX  =  274.610; ENMIN  =  205.957 eV                                                          
   ICORE  =        3    local potential                                                             
   LCOR   =        T    correct aug charges                                                         
   LPAW   =        T    paw PP                                                                      
   EAUG   =  482.848                                                                                
   RMAX   =    2.348    core radius for proj-oper                                                   
   RAUG   =    1.300    factor for augmentation sphere                                              
   RDEP   =    2.381    radius for radial grids                                                     
   RDEPT  =    1.930    core radius for aug-charge                                                  
                                                                                                    
   Atomic configuration                                                                             
    8 entries                                                                                       
     n  l   j            E        occ.                                                              
     1  0  0.50     -4865.3608   2.0000                                                             
     2  0  0.50      -533.1368   2.0000                                                             
     2  1  1.50      -440.5031   6.0000                                                             
     3  0  0.50       -59.3186   2.0000                                                             
     4  0  0.50        -3.7291   1.0000                                                             
     3  1  1.50       -35.7012   6.0000                                                             
     3  2  2.50        -1.9157   3.0000                                                             
     4  3  2.50        -1.3606   0.0000                                                             
   Description                                                                                      
     l       E           TYP  RCUT    TYP  RCUT                                                     
     0    -59.3185931     23  1.800                                                                 
     0     -3.7290822     23  2.300                                                                 
     1    -35.7012045     23  2.300                                                                 
     1     -1.3605826     23  2.300                                                                 
     2     -1.9156920     23  2.300                                                                 
     2     -0.0236318     23  2.300                                                                 
     3     -1.3605826     23  2.300                                                                 
  local pseudopotential read in
  partial core-charges read in
  partial kinetic energy density read in
  atomic valenz-charges read in
  non local Contribution for L=           0  read in
    real space projection operators read in
  non local Contribution for L=           0  read in
    real space projection operators read in
  non local Contribution for L=           1  read in
    real space projection operators read in
  non local Contribution for L=           1  read in
    real space projection operators read in
  non local Contribution for L=           2  read in
    real space projection operators read in
  non local Contribution for L=           2  read in
    real space projection operators read in
    PAW grid and wavefunctions read in
 
   number of l-projection  operators is LMAX  =           6
   number of lm-projection operators is LMMAX =          18
 
 POTCAR:    PAW_PBE Ga_d 06Jul2010                
   SHA256 =  a60ddf36e14f00ea098d9e3914b3745f1b7105e68786148f49ae384e44b4226c Ga_d/POTCAR           
   COPYR  = (c) Copyright 06Jul2010 Georg Kresse                                                    
   COPYR  = This file is part of the software VASP. Any use, copying, and all other rights are regul
   COPYR  = If you do not have a valid VASP license, you may not use, copy or distribute this file. 
   VRHFIN =Ga: s2p1                                                                                 
   LEXCH  = PE                                                                                      
   EATOM  =  2148.8298 eV,  157.9345 Ry                                                             
                                                                                                    
   TITEL  = PAW_PBE Ga_d 06Jul2010                                                                  
   LULTRA =        F    use ultrasoft PP ?                                                          
   IUNSCR =        1    unscreen: 0-lin 1-nonlin 2-no                                               
   RPACOR =    1.700    partial core radius                                                         
   POMASS =   69.723; ZVAL   =   13.000    mass and valenz                                          
   RCORE  =    2.300    outmost cutoff radius                                                       
   RWIGS  =    2.300; RWIGS  =    1.217    wigner-seitz radius (au A)                               
   ENMAX  =  282.691; ENMIN  =  212.018 eV                                                          
   ICORE  =        3    local potential                                                             
   LCOR   =        T    correct aug charges                                                         
   LPAW   =        T    paw PP                                                                      
   EAUG   =  490.690                                                                                
   DEXC   =    0.000                                                                                
   RMAX   =    2.341    core radius for proj-oper                                                   
   RAUG   =    1.300    factor for augmentation sphere                                              
   RDEP   =    2.413    radius for radial grids                                                     
   RDEPT  =    1.856    core radius for aug-charge                                                  
                                                                                                    
   Atomic configuration                                                                             
    9 entries                                                                                       
     n  l   j            E        occ.                                                              
     1  0  0.50    -10228.7831   2.0000                                                             
     2  0  0.50     -1262.1604   2.0000                                                             
     2  1  1.50     -1098.6333   6.0000                                                             
     3  0  0.50      -148.1110   2.0000                                                             
     3  1  1.50       -98.8436   6.0000                                                             
     3  2  2.50       -19.1549  10.0000                                                             
     4  0  0.50        -8.9483   2.0000                                                             
     4  1  0.50        -2.5791   1.0000                                                             
     4  3  2.50        -2.7416   0.0000                                                             
   Description                                                                                      
     l       E           TYP  RCUT    TYP  RCUT                                                     
     2    -19.1549037     23  2.300                                                                 
     2     -5.4423304     23  2.300                                                                 
     0     -8.9483111     23  2.300                                                                 
     0     68.0291300     23  2.300                                                                 
     1     -2.5790802     23  2.100                                                                 
     1     81.6349560     23  2.300                                                                 
     3      6.8029130     23  2.300                                                                 
  local pseudopotential read in
  partial core-charges read in
  partial kinetic energy density read in
  atomic valenz-charges read in
  non local Contribution for L=           2  read in
    real space projection operators read in
  non local Contribution for L=           2  read in
    real space projection operators read in
  non local Contribution for L=           0  read in
    real space projection operators read in
  non local Contribution for L=           0  read in
    real space projection operators read in
  non local Contribution for L=           1  read in
    real space projection operators read in
  non local Contribution for L=           1  read in
    real space projection operators read in
    PAW grid and wavefunctions read in
 
   number of l-projection  operators is LMAX  =           6
   number of lm-projection operators is LMMAX =          18
 
 POTCAR:    PAW_PBE Al 04Jan2001                  
   SHA256 =  17880443556af62b473fe41b62a467bd001ad55d2cabe504a3f22e34d4e9db96 Al/POTCAR             
   COPYR  = (c) Copyright 04Jan2001 Georg Kresse                                                    
   COPYR  = This file is part of the software VASP. Any use, copying, and all other rights are regul
   COPYR  = If you do not have a valid VASP license, you may not use, copy or distribute this file. 
   VRHFIN =Al: s2p1                                                                                 
   LEXCH  = PE                                                                                      
   EATOM  =    53.5387 eV,    3.9350 Ry                                                             
                                                                                                    
   TITEL  = PAW_PBE Al 04Jan2001                                                                    
   LULTRA =        F    use ultrasoft PP ?                                                          
   IUNSCR =        1    unscreen: 0-lin 1-nonlin 2-no                                               
   RPACOR =    1.500    partial core radius                                                         
   POMASS =   26.981; ZVAL   =    3.000    mass and valenz                                          
   RCORE  =    1.900    outmost cutoff radius                                                       
   RWIGS  =    2.650; RWIGS  =    1.402    wigner-seitz radius (au A)                               
   ENMAX  =  240.300; ENMIN  =  180.225 eV                                                          
   ICORE  =        2    local potential                                                             
   LCOR   =        T    correct aug charges                                                         
   LPAW   =        T    paw PP                                                                      
   EAUG   =  291.052                                                                                
   DEXC   =    0.000                                                                                
   RMAX   =    1.939    core radius for proj-oper                                                   
   RAUG   =    1.300    factor for augmentation sphere                                              
   RDEP   =    1.966    radius for radial grids                                                     
   RDEPT  =    1.856    core radius for aug-charge                                                  
                                                                                                    
   Atomic configuration                                                                             
    6 entries                                                                                       
     n  l   j            E        occ.                                                              
     1  0  0.50     -1511.1048   2.0000                                                             
     2  0  0.50      -108.1629   2.0000                                                             
     2  1  1.50       -69.6402   6.0000                                                             
     3  0  0.50        -7.7528   2.0000                                                             
     3  1  1.50        -2.7121   1.0000                                                             
     3  2  2.50        -2.7212   0.0000                                                             
   Description                                                                                      
     l       E           TYP  RCUT    TYP  RCUT                                                     
     0     -7.7528455     23  1.900                                                                 
     0     -3.3096929     23  1.900                                                                 
     1     -2.7120682     23  1.900                                                                 
     1     13.6058260     23  1.900                                                                 
     2     -2.7211652      7  1.900                                                                 
  local pseudopotential read in
  partial core-charges read in
  partial kinetic energy density read in
  atomic valenz-charges read in
  non local Contribution for L=           0  read in
    real space projection operators read in
  non local Contribution for L=           0  read in
    real space projection operators read in
  non local Contribution for L=           1  read in
    real space projection operators read in
  non local Contribution for L=           1  read in
    real space projection operators read in
    PAW grid and wavefunctions read in
 
   number of l-projection  operators is LMAX  =           4
   number of lm-projection operators is LMMAX =           8
 
 -----------------------------------------------------------------------------
|                                                                             |
|               ----> ADVICE to this user running VASP <----                  |
|                                                                             |
|     You have a (more or less) 'large supercell' and for larger cells it     |
|     might be more efficient to use real-space projection operators.         |
|     Therefore, try LREAL= Auto in the INCAR file.                           |
|     Mind: For very accurate calculation, you might also keep the            |
|     reciprocal projection scheme (i.e. LREAL=.FALSE.).                      |
|                                                                             |
 -----------------------------------------------------------------------------

  PAW_PBE Ti_sv 26Sep2005               :
 energy of atom  1       EATOM=-1588.0892
 kinetic energy error for atom=    0.0042 (will be added to EATOM!!)
  PAW_PBE Ga_d 06Jul2010                :
 energy of atom  2       EATOM=-2148.8298
 kinetic energy error for atom=    0.0026 (will be added to EATOM!!)
  PAW_PBE Al 04Jan2001                  :
 energy of atom  3       EATOM=  -53.5387
 kinetic energy error for atom=    0.0002 (will be added to EATOM!!)
 
 
 POSCAR: Generated by VASPKIT code
  positions in direct lattice
  No initial velocities read in


 exchange-correlation table for PE
   RHO(1)=    0.500       N(1)  =     2000
   RHO(2)=  100.500       N(2)  =     4000
 


--------------------------------------------------------------------------------------------------------


 ion  position               nearest neighbor table
   1  0.000  1.000  0.322-  17 2.73  25 2.73   9 2.82   9 2.82  22 2.84  30 2.84  20 2.85  28 2.85

   2  0.000  0.500  0.500-  18 2.73  26 2.73  24 2.73  32 2.73  10 2.82  10 2.82  21 2.84  29 2.84
                            19 2.85  27 2.85
   3  0.000  0.750  0.411-  22 2.73  30 2.73  19 2.73  27 2.73  11 2.82  11 2.82  17 2.84  25 2.84
                            24 2.85  32 2.85
   4  0.000  0.250  0.589-  21 2.73  29 2.73  12 2.82  12 2.82  18 2.84  26 2.84  23 2.85  31 2.85

   5  0.000  0.250  0.411-  21 2.73  29 2.73  20 2.73  28 2.73  13 2.82  13 2.82  17 2.84  25 2.84
                            24 2.85  32 2.85
   6  0.000  0.750  0.589-  19 2.73  27 2.73  14 2.82  14 2.82  18 2.84  26 2.84  23 2.85  31 2.85

   7  0.000  0.000  0.500-  17 2.73  25 2.73  23 2.73  31 2.73  15 2.82  15 2.82  21 2.84  29 2.84
                            19 2.85  27 2.85
   8  0.000  0.500  0.678-  18 2.73  26 2.73  16 2.82  16 2.82
   9  0.500  1.000  0.322-  17 2.73  25 2.73   1 2.82   1 2.82  22 2.84  30 2.84  20 2.85  28 2.85

  10  0.500  0.500  0.500-  18 2.73  26 2.73  24 2.73  32 2.73   2 2.82   2 2.82  21 2.84  29 2.84
                            19 2.85  27 2.85
  11  0.500  0.750  0.411-  22 2.73  30 2.73  19 2.73  27 2.73   3 2.82   3 2.82  17 2.84  25 2.84
                            24 2.85  32 2.85
  12  0.500  0.250  0.589-  21 2.73  29 2.73   4 2.82   4 2.82  18 2.84  26 2.84  23 2.85  31 2.85

  13  0.500  0.250  0.411-  21 2.73  29 2.73  20 2.73  28 2.73   5 2.82   5 2.82  17 2.84  25 2.84
                            24 2.85  32 2.85
  14  0.500  0.750  0.589-  19 2.73  27 2.73   6 2.82   6 2.82  18 2.84  26 2.84  23 2.85  31 2.85

  15  0.500  0.000  0.500-  17 2.73  25 2.73  23 2.73  31 2.73   7 2.82   7 2.82  21 2.84  29 2.84
                            19 2.85  27 2.85
  16  0.500  0.500  0.678-  18 2.73  26 2.73   8 2.82   8 2.82
  17  0.250  0.000  0.411-   1 2.73   7 2.73   9 2.73  15 2.73  25 2.82  25 2.82  11 2.84   5 2.84
                            13 2.84   3 2.84
  18  0.250  0.500  0.589-   8 2.73  16 2.73  10 2.73   2 2.73  26 2.82  26 2.82  12 2.84   4 2.84
                             6 2.84  14 2.84
  19  0.250  0.750  0.500-   3 2.73   6 2.73  11 2.73  14 2.73  27 2.82  27 2.82  10 2.85   2 2.85
                             7 2.85  15 2.85  23 3.17  24 3.17
  20  0.250  0.250  0.322-   5 2.73  13 2.73  28 2.82  28 2.82   9 2.85   1 2.85  24 3.17
  21  0.250  0.250  0.500-   4 2.73  12 2.73   5 2.73  13 2.73  29 2.82  29 2.82   7 2.84  15 2.84
                            10 2.84   2 2.84
  22  0.250  0.750  0.322-   3 2.73  11 2.73  30 2.82  30 2.82   9 2.84   1 2.84
  23  0.250  0.000  0.589-   7 2.73  15 2.73  31 2.82  31 2.82  14 2.85   6 2.85   4 2.85  12 2.85
                            19 3.17
  24  0.250  0.500  0.411-   2 2.73  10 2.73  32 2.82  32 2.82   3 2.85  13 2.85  11 2.85   5 2.85
                            19 3.17  20 3.17
  25  0.750  0.000  0.411-   1 2.73   7 2.73   9 2.73  15 2.73  17 2.82  17 2.82  13 2.84   3 2.84
                             5 2.84  11 2.84  30 3.17  29 3.17
  26  0.750  0.500  0.589-   8 2.73  16 2.73  10 2.73   2 2.73  18 2.82  18 2.82  12 2.84   4 2.84
                            14 2.84   6 2.84  29 3.17
  27  0.750  0.750  0.500-   3 2.73   6 2.73  11 2.73  14 2.73  19 2.82  19 2.82   2 2.85  10 2.85
                             7 2.85  15 2.85  32 3.17  31 3.17
  28  0.750  0.250  0.322-   5 2.73  13 2.73  20 2.82  20 2.82   9 2.85   1 2.85  32 3.17
  29  0.750  0.250  0.500-   4 2.73  12 2.73   5 2.73  13 2.73  21 2.82  21 2.82   7 2.84  15 2.84
                            10 2.84   2 2.84  26 3.17  25 3.17
  30  0.750  0.750  0.322-   3 2.73  11 2.73  22 2.82  22 2.82   9 2.84   1 2.84  25 3.17
  31  0.750  0.000  0.589-   7 2.73  15 2.73  23 2.82  23 2.82  14 2.85   6 2.85   4 2.85  12 2.85
                            27 3.17
  32  0.750  0.500  0.411-   2 2.73  10 2.73  24 2.82  24 2.82  11 2.85  13 2.85   5 2.85   3 2.85
                            28 3.17  27 3.17
 
  LATTYP: Found a simple monoclinic cell.
 ALAT       =     9.8813496165
 B/A-ratio  =     0.5713071878
 C/A-ratio  =     2.6513288651
 COS(beta)  =    -0.1309593083
  
  Lattice vectors:
  
 A1 = (   0.0000000000,   9.8813496165,   0.0000000000)
 A2 = (  -5.6452860611,   0.0000000000,   0.0000000000)
 A3 = (   0.0000000000,  -3.4309646087,  25.9730774963)


Analysis of symmetry for initial positions (statically):
=====================================================================
 Subroutine PRICEL returns:
 Original cell was already a primitive cell.
 

 Routine SETGRP: Setting up the symmetry group for a 
 simple monoclinic supercell.


 Subroutine GETGRP returns: Found  2 space group operations
 (whereof  1 operations were pure point group operations)
 out of a pool of  4 trial point group operations.


The static configuration has the point symmetry C_1 .
 The point group associated with its full space group is C_1h.


Analysis of symmetry for dynamics (positions and initial velocities):
=====================================================================
 Subroutine PRICEL returns:
 Original cell was already a primitive cell.
 

 Routine SETGRP: Setting up the symmetry group for a 
 simple monoclinic supercell.


 Subroutine GETGRP returns: Found  2 space group operations
 (whereof  1 operations were pure point group operations)
 out of a pool of  4 trial point group operations.


The dynamic configuration has the point symmetry C_1 .
 The point group associated with its full space group is C_1h.


 Subroutine INISYM returns: Found  2 space group operations
 (whereof  1 operations are pure point group operations),
 and found     1 'primitive' translations


----------------------------------------------------------------------------------------

                                     Primitive cell                                     

  volume of cell :    1448.8574

  direct lattice vectors                    reciprocal lattice vectors
     5.645286061  0.000000000  0.000000000     0.177138942 -0.000000000 -0.000000000
     0.000000000  9.881349616  0.000000000     0.000000000  0.101200751  0.013368312
     0.000000000 -3.430964609 25.973077496     0.000000000  0.000000000  0.038501406

  length of vectors
     5.645286061  9.881349616 26.198707464     0.177138942  0.102079889  0.038501406

  position of ions in fractional coordinates (direct lattice)
     0.000197156  0.999789982  0.321829677
     0.000197156  0.499789982  0.500217905
     0.000197156  0.750407174  0.410803591
     0.000197156  0.250407174  0.589191820
     0.000197156  0.249592826  0.410953451
     0.000197156  0.749592826  0.589341679
     0.000197156  0.000210018  0.499927365
     0.000197156  0.500210018  0.678315593
     0.499802844  0.999789982  0.321829677
     0.499802844  0.499789982  0.500217905
     0.499802844  0.750407174  0.410803591
     0.499802844  0.250407174  0.589191820
     0.499802844  0.249592826  0.410953451
     0.499802844  0.749592826  0.589341679
     0.499802844  0.000210018  0.499927365
     0.499802844  0.500210018  0.678315593
     0.250000000  1.000000000  0.410878521
     0.250000000  0.500000000  0.589266749
     0.250000000  0.750000000  0.500072635
     0.250000000  0.250000000  0.321684407
     0.250000000  0.250000000  0.500072635
     0.250000000  0.750000000  0.321684407
     0.250000000  1.000000000  0.589266749
     0.250000000  0.500000000  0.410878521
     0.750000000  1.000000000  0.410878521
     0.750000000  0.500000000  0.589266749
     0.750000000  0.750000000  0.500072635
     0.750000000  0.250000000  0.321684407
     0.750000000  0.250000000  0.500072635
     0.750000000  0.750000000  0.321684407
     0.750000000  1.000000000  0.589266749
     0.750000000  0.500000000  0.410878521

  ion indices of the primitive-cell ions
   primitive index   ion index
                 1           1
                 2           2
                 3           3
                 4           4
                 5           5
                 6           6
                 7           7
                 8           8
                 9           9
                10          10
                11          11
                12          12
                13          13
                14          14
                15          15
                16          16
                17          17
                18          18
                19          19
                20          20
                21          21
                22          22
                23          23
                24          24
                25          25
                26          26
                27          27
                28          28
                29          29
                30          30
                31          31
                32          32

----------------------------------------------------------------------------------------

 
 
 KPOINTS: K-Spacing Value to Generate K-Mesh: 0.03

Automatic generation of k-mesh.
 Grid dimensions read from file:
 generate k-points for:    6    3    1

 Generating k-lattice:

  Cartesian coordinates                     Fractional coordinates (reciprocal lattice)
     0.029523157 -0.000000000 -0.000000000     0.166666667  0.000000000  0.000000000
     0.000000000  0.033733584  0.004456104     0.000000000  0.333333333 -0.000000000
     0.000000000  0.000000000  0.038501406     0.000000000  0.000000000  1.000000000

  Length of vectors
     0.029523157  0.034026630  0.038501406

  Shift w.r.t. Gamma in fractional coordinates (k-lattice)
     0.000000000  0.000000000  0.000000000

 
 Subroutine IBZKPT returns following result:
 ===========================================
 
 Found      8 irreducible k-points:
 
 Following reciprocal coordinates:
            Coordinates               Weight
  0.000000  0.000000  0.000000      1.000000
  0.166667  0.000000  0.000000      2.000000
  0.333333  0.000000  0.000000      2.000000
  0.500000  0.000000  0.000000      1.000000
  0.000000  0.333333  0.000000      2.000000
  0.166667  0.333333  0.000000      4.000000
  0.333333  0.333333  0.000000      4.000000
  0.500000  0.333333  0.000000      2.000000
 
 Following cartesian coordinates:
            Coordinates               Weight
  0.000000  0.000000  0.000000      1.000000
  0.029523  0.000000  0.000000      2.000000
  0.059046  0.000000  0.000000      2.000000
  0.088569  0.000000  0.000000      1.000000
  0.000000  0.033734  0.004456      2.000000
  0.029523  0.033734  0.004456      4.000000
  0.059046  0.033734  0.004456      4.000000
  0.088569  0.033734  0.004456      2.000000
 


--------------------------------------------------------------------------------------------------------




 Dimension of arrays:
   k-points           NKPTS =      8   k-points in BZ     NKDIM =      8   number of bands    NBANDS=    192
   number of dos      NEDOS =    301   number of ions     NIONS =     32
   non local maximal  LDIM  =      6   non local SUM 2l+1 LMDIM =     18
   total plane-waves  NPLWV = 268800
   max r-space proj   IRMAX =      1   max aug-charges    IRDMAX=   7419
   dimension x,y,z NGX =    32 NGY =   56 NGZ =  150
   dimension x,y,z NGXF=    64 NGYF=  112 NGZF=  300
   support grid    NGXF=    64 NGYF=  112 NGZF=  300
   ions per type =              16   2  14
   NGX,Y,Z   is equivalent  to a cutoff of   9.42,  9.42,  9.52 a.u.
   NGXF,Y,Z  is equivalent  to a cutoff of  18.85, 18.84, 19.04 a.u.

 SYSTEM =  unknown system                          
 POSCAR =  Generated by VASPKIT code               

 Startparameter for this run:
   NWRITE =      2    write-flag & timer
   PREC   = n         normal or accurate (medium, high low for compatibility)
   ISTART =      0    job   : 0-new  1-cont  2-samecut
   ICHARG =      2    charge: 1-file 2-atom 10-const
   ISPIN  =      1    spin polarized calculation?
   LNONCOLLINEAR =      F non collinear calculations
   LSORBIT =      F    spin-orbit coupling
   INIWAV =      1    electr: 0-lowe 1-rand  2-diag
   LASPH  =      F    aspherical Exc in radial PAW
 Electronic Relaxation 1
   ENCUT  =  520.0 eV  38.22 Ry    6.18 a.u.  10.50 18.37 48.71*2*pi/ulx,y,z
   ENINI  =  520.0     initial cutoff
   ENAUG  =  490.7 eV  augmentation charge cutoff
   NELM   =    500;   NELMIN=  2; NELMDL= -5     # of ELM steps 
   EDIFF  = 0.1E-04   stopping-criterion for ELM
   LREAL  =      F    real-space projection
   NLSPLINE    = F    spline interpolate recip. space projectors
   LCOMPAT=      F    compatible to vasp.4.4
   GGA_COMPAT  = T    GGA compatible to vasp.4.4-vasp.4.6
   LMAXPAW     = -100 max onsite density
   LMAXMIX     =    2 max onsite mixed and CHGCAR
   VOSKOWN=      0    Vosko Wilk Nusair interpolation
   ROPT   =    0.00000   0.00000   0.00000
 Ionic relaxation
   EDIFFG = -.1E-01   stopping-criterion for IOM
   NSW    =      0    number of steps for IOM
   NBLOCK =      1;   KBLOCK =      1    inner block; outer block 
   IBRION =     -1    ionic relax: 0-MD 1-quasi-New 2-CG
   NFREE  =      0    steps in history (QN), initial steepest desc. (CG)
   ISIF   =      3    stress and relaxation
   IWAVPR =     10    prediction:  0-non 1-charg 2-wave 3-comb
   ISYM   =      2    0-nonsym 1-usesym 2-fastsym
   LCORR  =      T    Harris-Foulkes like correction to forces

   POTIM  = 0.5000    time-step for ionic-motion
   TEIN   =    0.0    initial temperature
   TEBEG  =    0.0;   TEEND  =   0.0 temperature during run
   SMASS  =  -3.00    Nose mass-parameter (am)
   estimated Nose-frequenzy (Omega)   =  0.10E-29 period in steps = 0.13E+47 mass=  -0.728E-27a.u.
   SCALEE = 1.0000    scale energy and forces
   NPACO  =    256;   APACO  = 10.0  distance and # of slots for P.C.
   PSTRESS=    0.0 pullay stress

  Mass of Ions in am
   POMASS =  47.88 69.72 26.98
  Ionic Valenz
   ZVAL   =  12.00 13.00  3.00
  Atomic Wigner-Seitz radii
   RWIGS  =  -1.00 -1.00 -1.00
  virtual crystal weights 
   VCA    =   1.00  1.00  1.00
   NELECT =     260.0000    total number of electrons
   NUPDOWN=      -1.0000    fix difference up-down

 DOS related values:
   EMIN   =  10.00;   EMAX   =-10.00  energy-range for DOS
   EFERMI =   0.00;   METHOD = LEGACY      
   ISMEAR =     1;   SIGMA  =   0.10  broadening in eV -4-tet -1-fermi 0-gaus
   EFERMI_NEDOS =   21; number of points for ismear=-14 and -15

 Electronic relaxation 2 (details)
   IALGO  =     38    algorithm
   LDIAG  =      T    sub-space diagonalisation (order eigenvalues)
   LSUBROT=      F    optimize rotation matrix (better conditioning)
   TURBO    =      0    0=normal 1=particle mesh
   IRESTART =      0    0=no restart 2=restart with 2 vectors
   NREBOOT  =      0    no. of reboots
   NMIN     =      0    reboot dimension
   EREF     =   0.00    reference energy to select bands
   IMIX   =      4    mixing-type and parameters
     AMIX     =   0.40;   BMIX     =  1.00
     AMIX_MAG =   1.60;   BMIX_MAG =  1.00
     AMIN     =   0.10
     WC   =   100.;   INIMIX=   1;  MIXPRE=   1;  MAXMIX= -45

 Intra band minimization:
   WEIMIN = 0.0000     energy-eigenvalue tresh-hold
   EBREAK =  0.13E-07  absolut break condition
   DEPER  =   0.30     relativ break condition  

   TIME   =   0.40     timestep for ELM

  volume/ion in A,a.u.               =      45.28       305.54
  Fermi-wavevector in a.u.,A,eV,Ry     =   0.923402  1.744976 11.601293  0.852671
  Thomas-Fermi vector in A             =   2.049034
 
 Write flags
   LWAVE        =      T    write WAVECAR
   LDOWNSAMPLE  =      F    k-point downsampling of WAVECAR
   LCHARG       =      T    write CHGCAR
   LVTOT        =      F    write LOCPOT, total local potential
   LVHAR        =      T    write LOCPOT, Hartree potential only
   WRT_POTENTIAL=  hartree ionic  ! write potential to hdf5 file
   LELF         =      F    write electronic localiz. function (ELF)
   LORBIT       =      0    0 simple, 1 ext, 2 COOP (PROOUT), +10 PAW based schemes


 Python interface
   PLUGINS active      =      F    recompile with -DPLUGINS to activate
 
 Dipole corrections
   LMONO      =      F    monopole corrections only (constant potential shift)
   LDIPOL     =      F    correct potential (dipole corrections)
   IDIPOL     =      0    1-x, 2-y, 3-z, 4-all directions 
   EPSILON    =  1.0000000 bulk dielectric constant
   LVACPOTAV  =      F  vacuum potentials using an averaging scheme for the charge density
   VACPOTFLAT =  0.1000000 required flatness to determine vacuum potential
 
Coulomb truncation method
  LTRUNCATE          =      F  Coulomb kernel truncation to be used
  IDIMENSIONALITY    =      3  Dimensionality of cutoff (0 molecules / 2 surfaces)
  ISURFACE           =     -1  Direction of surface normal
  LCOARSEN           =      F  Coarsen the charge grid before padding, preferred

 
 Exchange correlation treatment:
   GGA     = PE    functional components
   XC_C    = 1    coefficients multiplying the functional components
   LIBXC   =     F    Libxc                    
   VOSKOWN =     0    Vosko Wilk Nusair interpolation
   LHFCALC =     F    Hartree Fock is set to
   LHFONE  =     F    Hartree Fock one center treatment
   AEXX    =    0.0000 exact exchange contribution

 Parameters of functionals:
   PE:
     No parameter
 
 Van der Waals corrections
   IVDW    =     0    specifies the selected vdW correction

 Linear response parameters
   LEPSILON=     F    determine dielectric tensor
   LRPA    =     F    only Hartree local field effects (RPA)
   LNABLA  =     F    use nabla operator in PAW spheres
   LVEL    =     F    velocity operator in full k-point grid
   CSHIFT  =0.1000    complex shift for real part using Kramers Kronig
   OMEGAMAX=  -1.0    maximum frequency
   DEG_THRESHOLD= 0.2000000E-02 threshold for treating states as degnerate
   RTIME   =   -0.100 relaxation time in fs
  (WPLASMAI=    0.000 imaginary part of plasma frequency in eV, 0.658/RTIME)
   DFIELD  = 0.0000000 0.0000000 0.0000000 field for delta impulse in time
 
  Optional k-point grid parameters
   LKPOINTS_OPT  =     F    use optional k-point grid
   KPOINTS_OPT_MODE=     1    mode for optional k-point grid
 
 Orbital magnetization related:
   ORBITALMAG=     F  switch on orbital magnetization
   LCHIMAG   =     F  perturbation theory with respect to B field
   DQ        =  0.001000  dq finite difference perturbation B field
   LLRAUG    =     F  two centre corrections for induced B field
   LBONE     =     F  B-component reconstruction in AE one-centre
   LVGVCALC  =     T  calculate vGv susceptibility
   LVGVAPPL  =     F  apply vGv susceptibility instead of pGv for G=0

 Random number generation:
   RANDOM_GENERATOR = DEFAULT
   PCG_SEED         = not used


--------------------------------------------------------------------------------------------------------


 Static calculation
 charge density and potential will be updated during run
 non-spin polarized calculation
 Variant of blocked Davidson
 Davidson routine will perform the subspace rotation
 perform sub-space diagonalisation
    after iterative eigenvector-optimisation
 modified Broyden-mixing scheme, WC =      100.0
 initial mixing is a Kerker type mixing with AMIX =  0.4000 and BMIX =      1.0000
 Hartree-type preconditioning will be used
 using additional bands           62
 reciprocal scheme for non local part
 use partial core corrections
 calculate Harris-corrections to forces 
   (improved forces if not selfconsistent)
 use gradient corrections 
 use of overlap-Matrix (Vanderbilt PP)
 Methfessel and Paxton  Order N= 1 SIGMA  =   0.10


--------------------------------------------------------------------------------------------------------


  energy-cutoff  :      520.00
  volume of cell :     1448.86
      direct lattice vectors                 reciprocal lattice vectors
     5.645286061  0.000000000  0.000000000     0.177138942 -0.000000000 -0.000000000
     0.000000000  9.881349616  0.000000000     0.000000000  0.101200751  0.013368312
     0.000000000 -3.430964609 25.973077496     0.000000000  0.000000000  0.038501406

  length of vectors
     5.645286061  9.881349616 26.198707464     0.177138942  0.102079889  0.038501406


 
 k-points in units of 2pi/SCALE and weight: K-Spacing Value to Generate K-Mesh: 0.03
   0.00000000  0.00000000  0.00000000       0.056
   0.02952316  0.00000000  0.00000000       0.111
   0.05904631  0.00000000  0.00000000       0.111
   0.08856947  0.00000000  0.00000000       0.056
   0.00000000  0.03373358  0.00445610       0.111
   0.02952316  0.03373358  0.00445610       0.222
   0.05904631  0.03373358  0.00445610       0.222
   0.08856947  0.03373358  0.00445610       0.111
 
 k-points in reciprocal lattice and weights: K-Spacing Value to Generate K-Mesh: 0.03
   0.00000000  0.00000000  0.00000000       0.056
   0.16666667  0.00000000  0.00000000       0.111
   0.33333333  0.00000000  0.00000000       0.111
   0.50000000  0.00000000  0.00000000       0.056
   0.00000000  0.33333333  0.00000000       0.111
   0.16666667  0.33333333  0.00000000       0.222
   0.33333333  0.33333333  0.00000000       0.222
   0.50000000  0.33333333  0.00000000       0.111
 
 position of ions in fractional coordinates (direct lattice) 
   0.00019716  0.99978998  0.32182968
   0.00019716  0.49978998  0.50021791
   0.00019716  0.75040717  0.41080359
   0.00019716  0.25040717  0.58919182
   0.00019716  0.24959283  0.41095345
   0.00019716  0.74959283  0.58934168
   0.00019716  0.00021002  0.49992736
   0.00019716  0.50021002  0.67831559
   0.49980284  0.99978998  0.32182968
   0.49980284  0.49978998  0.50021791
   0.49980284  0.75040717  0.41080359
   0.49980284  0.25040717  0.58919182
   0.49980284  0.24959283  0.41095345
   0.49980284  0.74959283  0.58934168
   0.49980284  0.00021002  0.49992736
   0.49980284  0.50021002  0.67831559
   0.25000000  0.00000000  0.41087852
   0.25000000  0.50000000  0.58926675
   0.25000000  0.75000000  0.50007264
   0.25000000  0.25000000  0.32168441
   0.25000000  0.25000000  0.50007264
   0.25000000  0.75000000  0.32168441
   0.25000000  0.00000000  0.58926675
   0.25000000  0.50000000  0.41087852
   0.75000000  0.00000000  0.41087852
   0.75000000  0.50000000  0.58926675
   0.75000000  0.75000000  0.50007264
   0.75000000  0.25000000  0.32168441
   0.75000000  0.25000000  0.50007264
   0.75000000  0.75000000  0.32168441
   0.75000000  0.00000000  0.58926675
   0.75000000  0.50000000  0.41087852
 
 position of ions in cartesian coordinates  (Angst):
   0.00111300  8.77508812  8.35890714
   0.00111300  3.22236962 12.99219842
   0.00111300  6.00558306 10.66983352
   0.00111300  0.45286455 15.30312479
   0.00111300  1.05634723 10.67372582
   0.00111300  5.38497834 15.30701709
   0.00111300 -1.71315783 12.98465219
   0.00111300  2.61547328 17.61794347
   2.82153003  8.77508812  8.35890714
   2.82153003  3.22236962 12.99219842
   2.82153003  6.00558306 10.66983352
   2.82153003  0.45286455 15.30312479
   2.82153003  1.05634723 10.67372582
   2.82153003  5.38497834 15.30701709
   2.82153003 -1.71315783 12.98465219
   2.82153003  2.61547328 17.61794347
   1.41132152 -1.40970966 10.67177967
   1.41132152  2.91892145 15.30507094
   1.41132152  5.69528070 12.98842530
   1.41132152  1.36664959  8.35513403
   1.41132152  0.75460589 12.98842530
   1.41132152  6.30732440  8.35513403
   1.41132152 -2.02175336 15.30507094
   1.41132152  3.53096514 10.67177967
   4.23396455 -1.40970966 10.67177967
   4.23396455  2.91892145 15.30507094
   4.23396455  5.69528070 12.98842530
   4.23396455  1.36664959  8.35513403
   4.23396455  0.75460589 12.98842530
   4.23396455  6.30732440  8.35513403
   4.23396455 -2.02175336 15.30507094
   4.23396455  3.53096514 10.67177967
 


--------------------------------------------------------------------------------------------------------


 k-point     1 :   0.0000 0.0000 0.0000  plane waves:   39029
 k-point     2 :   0.1667 0.0000 0.0000  plane waves:   39055
 k-point     3 :   0.3333 0.0000 0.0000  plane waves:   39041
 k-point     4 :   0.5000 0.0000 0.0000  plane waves:   38936
 k-point     5 :   0.0000 0.3333 0.0000  plane waves:   39055
 k-point     6 :   0.1667 0.3333 0.0000  plane waves:   39040
 k-point     7 :   0.3333 0.3333 0.0000  plane waves:   38984
 k-point     8 :   0.5000 0.3333 0.0000  plane waves:   38922

 maximum and minimum number of plane-waves per node :     39055    38922

 maximum number of plane-waves:     39055
 maximum index in each direction: 
   IXMAX=   10   IYMAX=   18   IZMAX=   48
   IXMIN=  -10   IYMIN=  -18   IZMIN=  -48


 serial   3D FFT for wavefunctions
 parallel 3D FFT for charge:
    minimum data exchange during FFTs selected (reduces bandwidth)


 total amount of memory used by VASP MPI-rank0   216057. kBytes
=======================================================================

   base                                    :      30000. kBytes
   nonl-proj                               :     155164. kBytes
   fftplans                                :       2263. kBytes
   grid                                    :      12946. kBytes
   one-center                              :        497. kBytes
   wavefun                                 :      15187. kBytes
 
     INWAV:  cpu time      0.0000: real time      0.0000
 Broyden mixing: mesh for mixing (old mesh)
   NGX = 21   NGY = 37   NGZ = 97
  (NGX  = 64   NGY  =112   NGZ  =300)
  gives a total of  75369 points

 initial charge density was supplied:
 charge density of overlapping atoms calculated
 number of electron     260.0000000 magnetization 
 keeping initial charge density in first step


--------------------------------------------------------------------------------------------------------


 Maximum index for augmentation-charges          447 (set IRDMAX)


--------------------------------------------------------------------------------------------------------


 First call to EWALD:  gamma=   0.157
 Maximum number of real-space cells   5x   3x   1
 Maximum number of reciprocal cells   2x   2x   6

    FEWALD:  cpu time      0.0015: real time      0.0015


--------------------------------------- Ionic step        1  -------------------------------------------




--------------------------------------- Iteration      1(   1)  ---------------------------------------


    POTLOK:  cpu time      0.0348: real time      0.0349
    SETDIJ:  cpu time      0.0030: real time      0.0030
     EDDAV:  cpu time      5.0048: real time      5.0056
       DOS:  cpu time      0.0004: real time      0.0004
    --------------------------------------------
      LOOP:  cpu time      5.0431: real time      5.0439

 eigenvalue-minimisations  :  3072
 total energy-change (2. order) : 0.2443908E+04  (-0.1291195E+05)
 number of electron     260.0000000 magnetization 
 augmentation part      260.0000000 magnetization 

 Free energy of the ion-electron system (eV)
  ---------------------------------------------------
  alpha Z        PSCENC =       272.35196750
  Ewald energy   TEWEN  =     76616.56415543
  -Hartree energ DENC   =   -102801.59740573
  -exchange      EXHF   =         0.00000000
  -V(xc)+E(xc)   XCENC  =       705.34026255
  PAW double counting   =     24366.15670160   -24272.54104771
  entropy T*S    EENTRO =        -0.00132693
  eigenvalues    EBANDS =     -2898.91835743
  atomic energy  EATOM  =     30456.55260990
  Solvation  Ediel_sol  =         0.00000000
  ---------------------------------------------------
  free energy    TOTEN  =      2443.90755918 eV

  energy without entropy =     2443.90888611  energy(sigma->0) =     2443.90800149


--------------------------------------------------------------------------------------------------------




--------------------------------------- Iteration      1(   2)  ---------------------------------------


     EDDAV:  cpu time      5.5673: real time      5.5685
       DOS:  cpu time      0.0004: real time      0.0004
    --------------------------------------------
      LOOP:  cpu time      5.5676: real time      5.5689

 eigenvalue-minimisations  :  3328
 total energy-change (2. order) :-0.2353564E+04  (-0.2283060E+04)
 number of electron     260.0000000 magnetization 
 augmentation part      260.0000000 magnetization 

 Free energy of the ion-electron system (eV)
  ---------------------------------------------------
  alpha Z        PSCENC =       272.35196750
  Ewald energy   TEWEN  =     76616.56415543
  -Hartree energ DENC   =   -102801.59740573
  -exchange      EXHF   =         0.00000000
  -V(xc)+E(xc)   XCENC  =       705.34026255
  PAW double counting   =     24366.15670160   -24272.54104771
  entropy T*S    EENTRO =         0.00050002
  eigenvalues    EBANDS =     -5252.48380614
  atomic energy  EATOM  =     30456.55260990
  Solvation  Ediel_sol  =         0.00000000
  ---------------------------------------------------
  free energy    TOTEN  =        90.34393742 eV

  energy without entropy =       90.34343740  energy(sigma->0) =       90.34377075


--------------------------------------------------------------------------------------------------------




--------------------------------------- Iteration      1(   3)  ---------------------------------------


     EDDAV:  cpu time     10.1247: real time     10.1256
       DOS:  cpu time      0.0004: real time      0.0004
    --------------------------------------------
      LOOP:  cpu time     10.1250: real time     10.1259

 eigenvalue-minimisations  :  5760
 total energy-change (2. order) :-0.2646210E+03  (-0.2572387E+03)
 number of electron     260.0000000 magnetization 
 augmentation part      260.0000000 magnetization 

 Free energy of the ion-electron system (eV)
  ---------------------------------------------------
  alpha Z        PSCENC =       272.35196750
  Ewald energy   TEWEN  =     76616.56415543
  -Hartree energ DENC   =   -102801.59740573
  -exchange      EXHF   =         0.00000000
  -V(xc)+E(xc)   XCENC  =       705.34026255
  PAW double counting   =     24366.15670160   -24272.54104771
  entropy T*S    EENTRO =         0.00104312
  eigenvalues    EBANDS =     -5517.10531641
  atomic energy  EATOM  =     30456.55260990
  Solvation  Ediel_sol  =         0.00000000
  ---------------------------------------------------
  free energy    TOTEN  =      -174.27702975 eV

  energy without entropy =     -174.27807287  energy(sigma->0) =     -174.27737746


--------------------------------------------------------------------------------------------------------




--------------------------------------- Iteration      1(   4)  ---------------------------------------


     EDDAV:  cpu time      8.3881: real time      8.3885
       DOS:  cpu time      0.0003: real time      0.0003
    --------------------------------------------
      LOOP:  cpu time      8.3884: real time      8.3888

 eigenvalue-minimisations  :  4992
 total energy-change (2. order) :-0.3861846E+02  (-0.3824109E+02)
 number of electron     260.0000000 magnetization 
 augmentation part      260.0000000 magnetization 

 Free energy of the ion-electron system (eV)
  ---------------------------------------------------
  alpha Z        PSCENC =       272.35196750
  Ewald energy   TEWEN  =     76616.56415543
  -Hartree energ DENC   =   -102801.59740573
  -exchange      EXHF   =         0.00000000
  -V(xc)+E(xc)   XCENC  =       705.34026255
  PAW double counting   =     24366.15670160   -24272.54104771
  entropy T*S    EENTRO =         0.00823567
  eigenvalues    EBANDS =     -5555.73097059
  atomic energy  EATOM  =     30456.55260990
  Solvation  Ediel_sol  =         0.00000000
  ---------------------------------------------------
  free energy    TOTEN  =      -212.89549137 eV

  energy without entropy =     -212.90372705  energy(sigma->0) =     -212.89823660


--------------------------------------------------------------------------------------------------------




--------------------------------------- Iteration      1(   5)  ---------------------------------------


     EDDAV:  cpu time      8.1643: real time      8.1647
       DOS:  cpu time      0.0004: real time      0.0004
    CHARGE:  cpu time      0.0979: real time      0.0979
    MIXING:  cpu time      0.0006: real time      0.0006
    --------------------------------------------
      LOOP:  cpu time      8.2632: real time      8.2636

 eigenvalue-minimisations  :  4864
 total energy-change (2. order) :-0.3158938E+01  (-0.3158506E+01)
 number of electron     259.9999464 magnetization 
 augmentation part       71.5577099 magnetization 

 Broyden mixing:
  rms(total) = 0.39044E+01    rms(broyden)= 0.39043E+01
  rms(prec ) = 0.44711E+01
  weight for this iteration     100.00

 Free energy of the ion-electron system (eV)
  ---------------------------------------------------
  alpha Z        PSCENC =       272.35196750
  Ewald energy   TEWEN  =     76616.56415543
  -Hartree energ DENC   =   -102801.59740573
  -exchange      EXHF   =         0.00000000
  -V(xc)+E(xc)   XCENC  =       705.34026255
  PAW double counting   =     24366.15670160   -24272.54104771
  entropy T*S    EENTRO =         0.00832539
  eigenvalues    EBANDS =     -5558.88999853
  atomic energy  EATOM  =     30456.55260990
  Solvation  Ediel_sol  =         0.00000000
  ---------------------------------------------------
  free energy    TOTEN  =      -216.05442960 eV

  energy without entropy =     -216.06275499  energy(sigma->0) =     -216.05720473


--------------------------------------------------------------------------------------------------------




--------------------------------------- Iteration      1(   6)  ---------------------------------------


    POTLOK:  cpu time      0.0293: real time      0.0294
    SETDIJ:  cpu time      0.0024: real time      0.0024
     EDDAV:  cpu time      8.9525: real time      8.9528
       DOS:  cpu time      0.0004: real time      0.0004
    CHARGE:  cpu time      0.0942: real time      0.0942
    MIXING:  cpu time      0.0008: real time      0.0008
    --------------------------------------------
      LOOP:  cpu time      9.0795: real time      9.0799

 eigenvalue-minimisations  :  5120
 total energy-change (2. order) :-0.1072484E+03  (-0.7131448E+02)
 number of electron     259.9999412 magnetization 
 augmentation part       85.8567480 magnetization 

 Broyden mixing:
  rms(total) = 0.81940E+01    rms(broyden)= 0.81939E+01
  rms(prec ) = 0.11755E+02
  weight for this iteration     100.00

 eigenvalues of (default mixing * dielectric matrix)
  average eigenvalue GAMMA=   0.2793
  0.2793

 Free energy of the ion-electron system (eV)
  ---------------------------------------------------
  alpha Z        PSCENC =       272.35196750
  Ewald energy   TEWEN  =     76616.56415543
  -Hartree energ DENC   =   -102747.53481902
  -exchange      EXHF   =         0.00000000
  -V(xc)+E(xc)   XCENC  =       682.99374435
  PAW double counting   =     26069.24266074   -25985.23432849
  entropy T*S    EENTRO =         0.00772861
  eigenvalues    EBANDS =     -5688.24650052
  atomic energy  EATOM  =     30456.55260990
  Solvation  Ediel_sol  =         0.00000000
  ---------------------------------------------------
  free energy    TOTEN  =      -323.30278149 eV

  energy without entropy =     -323.31051011  energy(sigma->0) =     -323.30535770


--------------------------------------------------------------------------------------------------------




--------------------------------------- Iteration      1(   7)  ---------------------------------------


    POTLOK:  cpu time      0.0309: real time      0.0309
    SETDIJ:  cpu time      0.0023: real time      0.0023
     EDDAV:  cpu time      8.9610: real time      8.9615
       DOS:  cpu time      0.0004: real time      0.0004
    CHARGE:  cpu time      0.0949: real time      0.0948
    MIXING:  cpu time      0.0008: real time      0.0008
    --------------------------------------------
      LOOP:  cpu time      9.0902: real time      9.0908

 eigenvalue-minimisations  :  5120
 total energy-change (2. order) : 0.8443295E+02  (-0.4895049E+02)
 number of electron     259.9999421 magnetization 
 augmentation part       82.0040041 magnetization 

 Broyden mixing:
  rms(total) = 0.57217E+01    rms(broyden)= 0.57215E+01
  rms(prec ) = 0.88791E+01
  weight for this iteration     100.00

 eigenvalues of (default mixing * dielectric matrix)
  average eigenvalue GAMMA=   0.3031
  0.4613  0.1448

 Free energy of the ion-electron system (eV)
  ---------------------------------------------------
  alpha Z        PSCENC =       272.35196750
  Ewald energy   TEWEN  =     76616.56415543
  -Hartree energ DENC   =   -102691.53359905
  -exchange      EXHF   =         0.00000000
  -V(xc)+E(xc)   XCENC  =       688.18822280
  PAW double counting   =     26383.09992357   -26293.42877525
  entropy T*S    EENTRO =         0.00407352
  eigenvalues    EBANDS =     -5670.66840928
  atomic energy  EATOM  =     30456.55260990
  Solvation  Ediel_sol  =         0.00000000
  ---------------------------------------------------
  free energy    TOTEN  =      -238.86983086 eV

  energy without entropy =     -238.87390439  energy(sigma->0) =     -238.87118871


--------------------------------------------------------------------------------------------------------




--------------------------------------- Iteration      1(   8)  ---------------------------------------


    POTLOK:  cpu time      0.0305: real time      0.0305
    SETDIJ:  cpu time      0.0023: real time      0.0023
     EDDAV:  cpu time      9.0276: real time      9.0279
       DOS:  cpu time      0.0004: real time      0.0004
    CHARGE:  cpu time      0.0938: real time      0.0938
    MIXING:  cpu time      0.0009: real time      0.0009
    --------------------------------------------
      LOOP:  cpu time      9.1555: real time      9.1559

 eigenvalue-minimisations  :  5120
 total energy-change (2. order) : 0.3632784E+02  (-0.2390801E+02)
 number of electron     259.9999402 magnetization 
 augmentation part       77.8931743 magnetization 

 Broyden mixing:
  rms(total) = 0.33710E+01    rms(broyden)= 0.33709E+01
  rms(prec ) = 0.44698E+01
  weight for this iteration     100.00

 eigenvalues of (default mixing * dielectric matrix)
  average eigenvalue GAMMA=   0.3593
  0.7334  0.2141  0.1303

 Free energy of the ion-electron system (eV)
  ---------------------------------------------------
  alpha Z        PSCENC =       272.35196750
  Ewald energy   TEWEN  =     76616.56415543
  -Hartree energ DENC   =   -102714.04180249
  -exchange      EXHF   =         0.00000000
  -V(xc)+E(xc)   XCENC  =       692.28769168
  PAW double counting   =     26764.43697122   -26669.20071381
  entropy T*S    EENTRO =        -0.01144973
  eigenvalues    EBANDS =     -5621.48142030
  atomic energy  EATOM  =     30456.55260990
  Solvation  Ediel_sol  =         0.00000000
  ---------------------------------------------------
  free energy    TOTEN  =      -202.54199060 eV

  energy without entropy =     -202.53054087  energy(sigma->0) =     -202.53817402


--------------------------------------------------------------------------------------------------------




--------------------------------------- Iteration      1(   9)  ---------------------------------------


    POTLOK:  cpu time      0.0302: real time      0.0302
    SETDIJ:  cpu time      0.0023: real time      0.0023
     EDDAV:  cpu time      7.8021: real time      7.8022
       DOS:  cpu time      0.0004: real time      0.0003
    CHARGE:  cpu time      0.0985: real time      0.0985
    MIXING:  cpu time      0.0014: real time      0.0014
    --------------------------------------------
      LOOP:  cpu time      7.9348: real time      7.9349

 eigenvalue-minimisations  :  4608
 total energy-change (2. order) : 0.1638716E+02  (-0.7689111E+01)
 number of electron     259.9999439 magnetization 
 augmentation part       74.0409698 magnetization 

 Broyden mixing:
  rms(total) = 0.17383E+01    rms(broyden)= 0.17383E+01
  rms(prec ) = 0.19846E+01
  weight for this iteration     100.00

 eigenvalues of (default mixing * dielectric matrix)
  average eigenvalue GAMMA=   0.4083
  1.0091  0.2778  0.2192  0.1270

 Free energy of the ion-electron system (eV)
  ---------------------------------------------------
  alpha Z        PSCENC =       272.35196750
  Ewald energy   TEWEN  =     76616.56415543
  -Hartree energ DENC   =   -102933.17266166
  -exchange      EXHF   =         0.00000000
  -V(xc)+E(xc)   XCENC  =       694.58187690
  PAW double counting   =     27316.40815346   -27214.88200260
  entropy T*S    EENTRO =        -0.00490065
  eigenvalues    EBANDS =     -5394.55403192
  atomic energy  EATOM  =     30456.55260990
  Solvation  Ediel_sol  =         0.00000000
  ---------------------------------------------------
  free energy    TOTEN  =      -186.15483364 eV

  energy without entropy =     -186.14993299  energy(sigma->0) =     -186.15320009


--------------------------------------------------------------------------------------------------------




--------------------------------------- Iteration      1(  10)  ---------------------------------------


    POTLOK:  cpu time      0.0308: real time      0.0308
    SETDIJ:  cpu time      0.0025: real time      0.0025
     EDDAV:  cpu time      7.7675: real time      7.7680
       DOS:  cpu time      0.0004: real time      0.0004
    CHARGE:  cpu time      0.0980: real time      0.0980
    MIXING:  cpu time      0.0012: real time      0.0012
    --------------------------------------------
      LOOP:  cpu time      7.9005: real time      7.9009

 eigenvalue-minimisations  :  4544
 total energy-change (2. order) : 0.4855762E+01  (-0.1550969E+01)
 number of electron     259.9999430 magnetization 
 augmentation part       74.4125687 magnetization 

 Broyden mixing:
  rms(total) = 0.10938E+01    rms(broyden)= 0.10938E+01
  rms(prec ) = 0.11982E+01
  weight for this iteration     100.00

 eigenvalues of (default mixing * dielectric matrix)
  average eigenvalue GAMMA=   0.4921
  1.4061  0.3693  0.3693  0.1270  0.1888

 Free energy of the ion-electron system (eV)
  ---------------------------------------------------
  alpha Z        PSCENC =       272.35196750
  Ewald energy   TEWEN  =     76616.56415543
  -Hartree energ DENC   =   -102862.81624060
  -exchange      EXHF   =         0.00000000
  -V(xc)+E(xc)   XCENC  =       692.71630233
  PAW double counting   =     27691.48155752   -27585.42014113
  entropy T*S    EENTRO =        -0.00395616
  eigenvalues    EBANDS =     -5462.72532615
  atomic energy  EATOM  =     30456.55260990
  Solvation  Ediel_sol  =         0.00000000
  ---------------------------------------------------
  free energy    TOTEN  =      -181.29907135 eV

  energy without entropy =     -181.29511519  energy(sigma->0) =     -181.29775263


--------------------------------------------------------------------------------------------------------




--------------------------------------- Iteration      1(  11)  ---------------------------------------


    POTLOK:  cpu time      0.0295: real time      0.0295
    SETDIJ:  cpu time      0.0023: real time      0.0023
     EDDAV:  cpu time      8.6921: real time      8.6923
       DOS:  cpu time      0.0004: real time      0.0004
    CHARGE:  cpu time      0.0933: real time      0.0933
    MIXING:  cpu time      0.0009: real time      0.0009
    --------------------------------------------
      LOOP:  cpu time      8.8185: real time      8.8187

 eigenvalue-minimisations  :  5120
 total energy-change (2. order) : 0.1234099E+01  (-0.6058271E+00)
 number of electron     259.9999424 magnetization 
 augmentation part       75.2929958 magnetization 

 Broyden mixing:
  rms(total) = 0.89349E+00    rms(broyden)= 0.89348E+00
  rms(prec ) = 0.10376E+01
  weight for this iteration     100.00

 eigenvalues of (default mixing * dielectric matrix)
  average eigenvalue GAMMA=   0.5531
  1.7111  0.5253  0.5253  0.1269  0.2181  0.2120

 Free energy of the ion-electron system (eV)
  ---------------------------------------------------
  alpha Z        PSCENC =       272.35196750
  Ewald energy   TEWEN  =     76616.56415543
  -Hartree energ DENC   =   -102806.83576656
  -exchange      EXHF   =         0.00000000
  -V(xc)+E(xc)   XCENC  =       690.69897080
  PAW double counting   =     28055.08398436   -27944.00788875
  entropy T*S    EENTRO =        -0.01417468
  eigenvalues    EBANDS =     -5520.45883004
  atomic energy  EATOM  =     30456.55260990
  Solvation  Ediel_sol  =         0.00000000
  ---------------------------------------------------
  free energy    TOTEN  =      -180.06497205 eV

  energy without entropy =     -180.05079737  energy(sigma->0) =     -180.06024716


--------------------------------------------------------------------------------------------------------




--------------------------------------- Iteration      1(  12)  ---------------------------------------


    POTLOK:  cpu time      0.0297: real time      0.0297
    SETDIJ:  cpu time      0.0024: real time      0.0024
     EDDAV:  cpu time      7.8647: real time      7.8655
       DOS:  cpu time      0.0004: real time      0.0004
    CHARGE:  cpu time      0.0936: real time      0.0936
    MIXING:  cpu time      0.0010: real time      0.0010
    --------------------------------------------
      LOOP:  cpu time      7.9918: real time      7.9926

 eigenvalue-minimisations  :  4608
 total energy-change (2. order) : 0.9491769E+00  (-0.4791275E+00)
 number of electron     259.9999417 magnetization 
 augmentation part       76.0590080 magnetization 

 Broyden mixing:
  rms(total) = 0.70135E+00    rms(broyden)= 0.70133E+00
  rms(prec ) = 0.82647E+00
  weight for this iteration     100.00

 eigenvalues of (default mixing * dielectric matrix)
  average eigenvalue GAMMA=   0.5680
  1.7534  0.9389  0.4475  0.3129  0.1270  0.1980  0.1980

 Free energy of the ion-electron system (eV)
  ---------------------------------------------------
  alpha Z        PSCENC =       272.35196750
  Ewald energy   TEWEN  =     76616.56415543
  -Hartree energ DENC   =   -102802.69122665
  -exchange      EXHF   =         0.00000000
  -V(xc)+E(xc)   XCENC  =       689.25589862
  PAW double counting   =     28477.90045423   -28357.74825000
  entropy T*S    EENTRO =        -0.02026367
  eigenvalues    EBANDS =     -5531.28114046
  atomic energy  EATOM  =     30456.55260990
  Solvation  Ediel_sol  =         0.00000000
  ---------------------------------------------------
  free energy    TOTEN  =      -179.11579510 eV

  energy without entropy =     -179.09553143  energy(sigma->0) =     -179.10904054


--------------------------------------------------------------------------------------------------------




--------------------------------------- Iteration      1(  13)  ---------------------------------------


    POTLOK:  cpu time      0.0307: real time      0.0307
    SETDIJ:  cpu time      0.0024: real time      0.0024
     EDDAV:  cpu time      8.4027: real time      8.4029
       DOS:  cpu time      0.0004: real time      0.0004
    CHARGE:  cpu time      0.1072: real time      0.1072
    MIXING:  cpu time      0.0011: real time      0.0011
    --------------------------------------------
      LOOP:  cpu time      8.5447: real time      8.5449

 eigenvalue-minimisations  :  4992
 total energy-change (2. order) : 0.2892526E+00  (-0.3577456E+00)
 number of electron     259.9999422 magnetization 
 augmentation part       76.0604677 magnetization 

 Broyden mixing:
  rms(total) = 0.50437E+00    rms(broyden)= 0.50434E+00
  rms(prec ) = 0.61200E+00
  weight for this iteration     100.00

 eigenvalues of (default mixing * dielectric matrix)
  average eigenvalue GAMMA=   0.6212
  1.6278  1.5391  0.5332  0.5332  0.1270  0.2203  0.2203  0.1689

 Free energy of the ion-electron system (eV)
  ---------------------------------------------------
  alpha Z        PSCENC =       272.35196750
  Ewald energy   TEWEN  =     76616.56415543
  -Hartree energ DENC   =   -102829.07463174
  -exchange      EXHF   =         0.00000000
  -V(xc)+E(xc)   XCENC  =       689.14221081
  PAW double counting   =     28645.04619042   -28519.40529424
  entropy T*S    EENTRO =        -0.00067535
  eigenvalues    EBANDS =     -5510.00307521
  atomic energy  EATOM  =     30456.55260990
  Solvation  Ediel_sol  =         0.00000000
  ---------------------------------------------------
  free energy    TOTEN  =      -178.82654249 eV

  energy without entropy =     -178.82586714  energy(sigma->0) =     -178.82631738


--------------------------------------------------------------------------------------------------------




--------------------------------------- Iteration      1(  14)  ---------------------------------------


    POTLOK:  cpu time      0.0315: real time      0.0315
    SETDIJ:  cpu time      0.0028: real time      0.0028
     EDDAV:  cpu time      7.6613: real time      7.6614
       DOS:  cpu time      0.0004: real time      0.0004
    CHARGE:  cpu time      0.0991: real time      0.0991
    MIXING:  cpu time      0.0011: real time      0.0011
    --------------------------------------------
      LOOP:  cpu time      7.7962: real time      7.7963

 eigenvalue-minimisations  :  4544
 total energy-change (2. order) : 0.1497746E+00  (-0.1585580E+00)
 number of electron     259.9999420 magnetization 
 augmentation part       76.0975296 magnetization 

 Broyden mixing:
  rms(total) = 0.35462E+00    rms(broyden)= 0.35461E+00
  rms(prec ) = 0.44268E+00
  weight for this iteration     100.00

 eigenvalues of (default mixing * dielectric matrix)
  average eigenvalue GAMMA=   0.6251
  1.7270  1.7270  0.5563  0.5563  0.3380  0.1270  0.2146  0.2146  0.1653

 Free energy of the ion-electron system (eV)
  ---------------------------------------------------
  alpha Z        PSCENC =       272.35196750
  Ewald energy   TEWEN  =     76616.56415543
  -Hartree energ DENC   =   -102831.09818889
  -exchange      EXHF   =         0.00000000
  -V(xc)+E(xc)   XCENC  =       689.24507441
  PAW double counting   =     28715.39586576   -28582.83060248
  entropy T*S    EENTRO =        -0.01594871
  eigenvalues    EBANDS =     -5514.84170080
  atomic energy  EATOM  =     30456.55260990
  Solvation  Ediel_sol  =         0.00000000
  ---------------------------------------------------
  free energy    TOTEN  =      -178.67676788 eV

  energy without entropy =     -178.66081917  energy(sigma->0) =     -178.67145164


--------------------------------------------------------------------------------------------------------




--------------------------------------- Iteration      1(  15)  ---------------------------------------


    POTLOK:  cpu time      0.0302: real time      0.0302
    SETDIJ:  cpu time      0.0025: real time      0.0025
     EDDAV:  cpu time      7.8199: real time      7.8201
       DOS:  cpu time      0.0004: real time      0.0004
    CHARGE:  cpu time      0.0934: real time      0.0934
    MIXING:  cpu time      0.0010: real time      0.0010
    --------------------------------------------
      LOOP:  cpu time      7.9474: real time      7.9476

 eigenvalue-minimisations  :  4608
 total energy-change (2. order) : 0.7182571E-01  (-0.9728289E-01)
 number of electron     259.9999420 magnetization 
 augmentation part       76.0437556 magnetization 

 Broyden mixing:
  rms(total) = 0.24578E+00    rms(broyden)= 0.24577E+00
  rms(prec ) = 0.30430E+00
  weight for this iteration     100.00

 eigenvalues of (default mixing * dielectric matrix)
  average eigenvalue GAMMA=   0.7141
  2.1296  2.1296  0.8911  0.5725  0.5018  0.1270  0.2202  0.2202  0.1869  0.1617

 Free energy of the ion-electron system (eV)
  ---------------------------------------------------
  alpha Z        PSCENC =       272.35196750
  Ewald energy   TEWEN  =     76616.56415543
  -Hartree energ DENC   =   -102840.43130835
  -exchange      EXHF   =         0.00000000
  -V(xc)+E(xc)   XCENC  =       689.41013842
  PAW double counting   =     28720.50823190   -28585.53097746
  entropy T*S    EENTRO =        -0.01950684
  eigenvalues    EBANDS =     -5508.01025266
  atomic energy  EATOM  =     30456.55260990
  Solvation  Ediel_sol  =         0.00000000
  ---------------------------------------------------
  free energy    TOTEN  =      -178.60494217 eV

  energy without entropy =     -178.58543533  energy(sigma->0) =     -178.59843989


--------------------------------------------------------------------------------------------------------




--------------------------------------- Iteration      1(  16)  ---------------------------------------


    POTLOK:  cpu time      0.0304: real time      0.0304
    SETDIJ:  cpu time      0.0024: real time      0.0024
     EDDAV:  cpu time      8.7297: real time      8.7303
       DOS:  cpu time      0.0004: real time      0.0004
    CHARGE:  cpu time      0.1009: real time      0.1009
    MIXING:  cpu time      0.0012: real time      0.0012
    --------------------------------------------
      LOOP:  cpu time      8.8650: real time      8.8656

 eigenvalue-minimisations  :  5120
 total energy-change (2. order) : 0.3852722E-01  (-0.3420213E-01)
 number of electron     259.9999421 magnetization 
 augmentation part       75.9743234 magnetization 

 Broyden mixing:
  rms(total) = 0.16940E+00    rms(broyden)= 0.16940E+00
  rms(prec ) = 0.22617E+00
  weight for this iteration     100.00

 eigenvalues of (default mixing * dielectric matrix)
  average eigenvalue GAMMA=   0.7030
  2.1868  2.1868  0.9554  0.6175  0.4390  0.4390  0.1270  0.2183  0.2183  0.1830
  0.1625

 Free energy of the ion-electron system (eV)
  ---------------------------------------------------
  alpha Z        PSCENC =       272.35196750
  Ewald energy   TEWEN  =     76616.56415543
  -Hartree energ DENC   =   -102866.37160964
  -exchange      EXHF   =         0.00000000
  -V(xc)+E(xc)   XCENC  =       689.78796923
  PAW double counting   =     28743.38579596   -28602.37649276
  entropy T*S    EENTRO =        -0.01177155
  eigenvalues    EBANDS =     -5488.44903902
  atomic energy  EATOM  =     30456.55260990
  Solvation  Ediel_sol  =         0.00000000
  ---------------------------------------------------
  free energy    TOTEN  =      -178.56641495 eV

  energy without entropy =     -178.55464340  energy(sigma->0) =     -178.56249110


--------------------------------------------------------------------------------------------------------




--------------------------------------- Iteration      1(  17)  ---------------------------------------


    POTLOK:  cpu time      0.0286: real time      0.0286
    SETDIJ:  cpu time      0.0024: real time      0.0024
     EDDAV:  cpu time      7.8117: real time      7.8120
       DOS:  cpu time      0.0004: real time      0.0004
    CHARGE:  cpu time      0.0952: real time      0.0952
    MIXING:  cpu time      0.0013: real time      0.0013
    --------------------------------------------
      LOOP:  cpu time      7.9396: real time      7.9399

 eigenvalue-minimisations  :  4608
 total energy-change (2. order) : 0.7457110E-02  (-0.1563605E-01)
 number of electron     259.9999422 magnetization 
 augmentation part       75.9399259 magnetization 

 Broyden mixing:
  rms(total) = 0.14737E+00    rms(broyden)= 0.14737E+00
  rms(prec ) = 0.18553E+00
  weight for this iteration     100.00

 eigenvalues of (default mixing * dielectric matrix)
  average eigenvalue GAMMA=   0.7329
  2.2908  2.2908  1.3087  0.7462  0.5340  0.5340  0.1270  0.2195  0.2195  0.1892
  0.1758  0.1598

 Free energy of the ion-electron system (eV)
  ---------------------------------------------------
  alpha Z        PSCENC =       272.35196750
  Ewald energy   TEWEN  =     76616.56415543
  -Hartree energ DENC   =   -102872.95310350
  -exchange      EXHF   =         0.00000000
  -V(xc)+E(xc)   XCENC  =       689.89063361
  PAW double counting   =     28745.02836570   -28602.87506720
  entropy T*S    EENTRO =        -0.01462788
  eigenvalues    EBANDS =     -5483.10389139
  atomic energy  EATOM  =     30456.55260990
  Solvation  Ediel_sol  =         0.00000000
  ---------------------------------------------------
  free energy    TOTEN  =      -178.55895784 eV

  energy without entropy =     -178.54432996  energy(sigma->0) =     -178.55408188


--------------------------------------------------------------------------------------------------------




--------------------------------------- Iteration      1(  18)  ---------------------------------------


    POTLOK:  cpu time      0.0298: real time      0.0298
    SETDIJ:  cpu time      0.0027: real time      0.0027
     EDDAV:  cpu time      7.8512: real time      7.8516
       DOS:  cpu time      0.0004: real time      0.0004
    CHARGE:  cpu time      0.0965: real time      0.0965
    MIXING:  cpu time      0.0012: real time      0.0012
    --------------------------------------------
      LOOP:  cpu time      7.9818: real time      7.9822

 eigenvalue-minimisations  :  4608
 total energy-change (2. order) : 0.1517192E-01  (-0.1174956E-01)
 number of electron     259.9999421 magnetization 
 augmentation part       75.9069720 magnetization 

 Broyden mixing:
  rms(total) = 0.92533E-01    rms(broyden)= 0.92528E-01
  rms(prec ) = 0.13568E+00
  weight for this iteration     100.00

 eigenvalues of (default mixing * dielectric matrix)
  average eigenvalue GAMMA=   0.7317
  2.3533  2.3533  1.3635  0.6973  0.6973  0.4795  0.4795  0.1270  0.2187  0.2187
  0.1887  0.1610  0.1739

 Free energy of the ion-electron system (eV)
  ---------------------------------------------------
  alpha Z        PSCENC =       272.35196750
  Ewald energy   TEWEN  =     76616.56415543
  -Hartree energ DENC   =   -102884.31866339
  -exchange      EXHF   =         0.00000000
  -V(xc)+E(xc)   XCENC  =       690.07231275
  PAW double counting   =     28744.36377519   -28600.36023061
  entropy T*S    EENTRO =        -0.01498113
  eigenvalues    EBANDS =     -5473.75473157
  atomic energy  EATOM  =     30456.55260990
  Solvation  Ediel_sol  =         0.00000000
  ---------------------------------------------------
  free energy    TOTEN  =      -178.54378593 eV

  energy without entropy =     -178.52880480  energy(sigma->0) =     -178.53879222


--------------------------------------------------------------------------------------------------------




--------------------------------------- Iteration      1(  19)  ---------------------------------------


    POTLOK:  cpu time      0.0320: real time      0.0320
    SETDIJ:  cpu time      0.0024: real time      0.0024
     EDDAV:  cpu time      8.0109: real time      8.0110
       DOS:  cpu time      0.0004: real time      0.0004
    CHARGE:  cpu time      0.0943: real time      0.0943
    MIXING:  cpu time      0.0013: real time      0.0013
    --------------------------------------------
      LOOP:  cpu time      8.1413: real time      8.1413

 eigenvalue-minimisations  :  4736
 total energy-change (2. order) : 0.6005650E-02  (-0.2855592E-02)
 number of electron     259.9999422 magnetization 
 augmentation part       75.8628636 magnetization 

 Broyden mixing:
  rms(total) = 0.48495E-01    rms(broyden)= 0.48492E-01
  rms(prec ) = 0.61440E-01
  weight for this iteration     100.00

 eigenvalues of (default mixing * dielectric matrix)
  average eigenvalue GAMMA=   0.7238
  2.4039  2.4039  1.3698  0.7822  0.7822  0.4764  0.4764  0.3510  0.1270  0.2193
  0.2193  0.1890  0.1611  0.1714

 Free energy of the ion-electron system (eV)
  ---------------------------------------------------
  alpha Z        PSCENC =       272.35196750
[...]
     73     -13.8963      2.00000
     74     -13.8547      2.00000
     75      -7.2196      2.00000
     76      -6.8575      2.00000
     77      -6.8040      2.00000
     78      -6.3608      2.00000
     79      -6.0523      2.00000
     80      -5.8049      2.00000
     81      -5.7211      2.00000
     82      -5.4263      2.00000
     83      -5.0739      2.00000
     84      -4.9379      2.00000
     85      -4.6786      2.00000
     86      -4.6565      2.00000
     87      -4.4990      2.00000
     88      -4.3443      2.00000
     89      -4.1141      2.00000
     90      -4.0698      2.00000
     91      -2.6216      2.00000
     92      -2.5644      2.00000
     93      -2.2887      2.00000
     94      -2.2252      2.00000
     95      -2.0967      2.00000
     96      -2.0688      2.00000
     97      -1.8482      2.00000
     98      -1.8220      2.00000
     99      -1.5579      2.00000
    100      -1.4998      2.00000
    101      -1.2927      2.00000
    102      -1.2391      2.00000
    103      -1.0247      2.00000
    104      -1.0133      2.00000
    105      -0.7709      2.00000
    106      -0.7397      2.00000
    107      -0.6702      2.00000
    108      -0.6603      2.00000
    109      -0.4842      2.00000
    110      -0.4483      2.00000
    111      -0.4226      2.00000
    112      -0.3197      2.00000
    113      -0.3170      2.00000
    114      -0.2434      2.00000
    115      -0.2351      2.00000
    116      -0.0998      2.00000
    117      -0.0500      2.00000
    118      -0.0383      2.00000
    119       0.1682      2.00002
    120       0.1824      2.00004
    121       0.2546      2.00184
    122       0.2552      2.00190
    123       0.3559      2.05197
    124       0.3736      2.06624
    125       0.4446      1.88185
    126       0.4460      1.87104
    127       0.5097      0.99750
    128       0.5131      0.94056
    129       0.5700      0.15586
    130       0.5950     -0.00509
    131       0.7028     -0.01978
    132       0.7148     -0.01347
    133       0.8018     -0.00029
    134       0.8065     -0.00022
    135       0.8661     -0.00001
    136       0.8856     -0.00000
    137       0.9178     -0.00000
    138       0.9398     -0.00000
    139       1.0054     -0.00000
    140       1.0173     -0.00000
    141       1.0831     -0.00000
    142       1.0923     -0.00000
    143       1.1116     -0.00000
    144       1.1180     -0.00000
    145       1.1634     -0.00000
    146       1.1724     -0.00000
    147       1.1911     -0.00000
    148       1.2198     -0.00000
    149       1.2930     -0.00000
    150       1.2970     -0.00000
    151       1.4062     -0.00000
    152       1.4220     -0.00000
    153       1.4414     -0.00000
    154       1.4553     -0.00000
    155       1.4738     -0.00000
    156       1.5057     -0.00000
    157       1.5494     -0.00000
    158       1.5740     -0.00000
    159       1.6792     -0.00000
    160       1.6946     -0.00000
    161       1.7400     -0.00000
    162       1.7512     -0.00000
    163       1.8283     -0.00000
    164       1.8336     -0.00000
    165       1.9008     -0.00000
    166       1.9008     -0.00000
    167       1.9300     -0.00000
    168       1.9382     -0.00000
    169       1.9485     -0.00000
    170       1.9765     -0.00000
    171       2.2253     -0.00000
    172       2.2503     -0.00000
    173       2.3348     -0.00000
    174       2.3464     -0.00000
    175       2.3964     -0.00000
    176       2.4065     -0.00000
    177       2.6091      0.00000
    178       2.6427      0.00000
    179       2.7910      0.00000
    180       2.8015      0.00000
    181       3.0066      0.00000
    182       3.0498      0.00000
    183       3.1439      0.00000
    184       3.1560      0.00000
    185       3.4277      0.00000
    186       3.4759      0.00000
    187       3.5830      0.00000
    188       3.6200      0.00000
    189       3.8886      0.00000
    190       3.9314      0.00000
    191       4.0665      0.00000
    192       4.0924      0.00000


--------------------------------------------------------------------------------------------------------


 soft charge-density along one line, spin component           1
         0         1         2         3         4         5         6         7         8         9
 total charge-density along one line
 
 pseudopotential strength for first ion, spin component:           1
 -2.829 -23.933   0.004  -0.015   0.001  -0.003   0.011  -0.000
-23.933  11.190  -0.000   0.005  -0.000   0.001  -0.002   0.000
  0.004  -0.000 -27.361   0.015  -0.001  10.498  -0.010   0.000
 -0.015   0.005   0.015 -27.456  -0.003  -0.010  10.561   0.002
  0.001  -0.000  -0.001  -0.003 -27.260   0.000   0.002  10.426
 -0.003   0.001  10.498  -0.010   0.000   5.053   0.003  -0.000
  0.011  -0.002  -0.010  10.561   0.002   0.003   5.027  -0.001
 -0.000   0.000   0.000   0.002  10.426  -0.000  -0.001   5.078
 -0.000  -0.000   0.000  -0.000   0.005  -0.000   0.000  -0.002
  0.010   0.003  -0.006   0.003  -0.000   0.005  -0.002   0.000
 -0.059  -0.018  -0.001  -0.015   0.001   0.001   0.009  -0.000
 -0.002  -0.001  -0.000   0.001  -0.004   0.000  -0.001   0.005
  0.033   0.013  -0.001   0.001   0.000   0.001  -0.000  -0.000
 -0.001  -0.000   0.000  -0.000   0.006  -0.000   0.000  -0.003
  0.013   0.004  -0.008   0.004  -0.000   0.007  -0.003   0.000
 -0.073  -0.021  -0.002  -0.019   0.001   0.001   0.012  -0.000
 -0.002  -0.001  -0.000   0.002  -0.005   0.000  -0.001   0.006
  0.041   0.016  -0.001   0.001   0.000   0.001  -0.000  -0.000
 total augmentation occupancy for first ion, spin component:           1
  1.995  -0.056   0.000  -0.001   0.000   0.000  -0.003   0.000   0.000   0.001  -0.024  -0.002   0.020   0.000  -0.002   0.025
 -0.056   1.317   0.001  -0.008   0.000   0.000   0.048  -0.004   0.004   0.021  -0.379  -0.025   0.287  -0.002   0.004   0.161
  0.000   0.001   1.983  -0.000   0.000  -0.037  -0.000   0.000   0.000  -0.011  -0.003   0.000  -0.002  -0.000   0.008   0.002
 -0.001  -0.008  -0.000   1.984  -0.000  -0.000  -0.037  -0.000   0.000   0.001  -0.003  -0.002   0.004  -0.000  -0.001   0.001
  0.000   0.000   0.000  -0.000   1.983   0.000  -0.000  -0.035   0.003   0.000  -0.002  -0.004   0.000  -0.003  -0.000   0.001
  0.000   0.000  -0.037  -0.000   0.000   0.089   0.003  -0.000  -0.000   0.061   0.007   0.000  -0.027   0.001  -0.037  -0.001
 -0.003   0.048  -0.000  -0.037  -0.000   0.003   0.070  -0.001   0.001  -0.002   0.194  -0.001  -0.010   0.000   0.005  -0.092
  0.000  -0.004   0.000  -0.000  -0.035  -0.000  -0.001   0.106  -0.039  -0.000   0.002   0.060  -0.004   0.009   0.000  -0.002
  0.000   0.004   0.000   0.000   0.003  -0.000   0.001  -0.039   2.090  -0.013  -0.007  -0.087   0.003  -0.934   0.008   0.005
  0.001   0.021  -0.011   0.001   0.000   0.061  -0.002  -0.000  -0.013   1.265  -0.032  -0.009  -0.063   0.008  -0.457   0.023
 -0.024  -0.379  -0.003  -0.003  -0.002   0.007   0.194   0.002  -0.007  -0.032   1.516   0.018  -0.031   0.005   0.024  -0.659
 -0.002  -0.025   0.000  -0.002  -0.004   0.000  -0.001   0.060  -0.087  -0.009   0.018   1.761  -0.012   0.041   0.006  -0.021
  0.020   0.287  -0.002   0.004   0.000  -0.027  -0.010  -0.004   0.003  -0.063  -0.031  -0.012   2.036  -0.001   0.013  -0.059
  0.000  -0.002  -0.000  -0.000  -0.003   0.001   0.000   0.009  -0.934   0.008   0.005   0.041  -0.001   0.449  -0.004  -0.003
 -0.002   0.004   0.008  -0.001  -0.000  -0.037   0.005   0.000   0.008  -0.457   0.024   0.006   0.013  -0.004   0.188  -0.017
  0.025   0.161   0.002   0.001   0.001  -0.001  -0.092  -0.002   0.005   0.023  -0.659  -0.021  -0.059  -0.003  -0.017   0.326
  0.002   0.010  -0.000   0.002   0.002   0.000  -0.001  -0.064   0.040   0.006  -0.020  -0.742   0.003  -0.019  -0.004   0.016
 -0.018  -0.058   0.002  -0.003  -0.000   0.008  -0.010   0.001  -0.001   0.014  -0.057   0.003  -0.794  -0.000  -0.002   0.062


------------------------ aborting loop because EDIFF is reached ----------------------------------------


    CHARGE:  cpu time      0.0969: real time      0.0969
    FORLOC:  cpu time      0.0034: real time      0.0034
    FORNL :  cpu time      2.7084: real time      2.7086
    STRESS:  cpu time      5.7861: real time      5.7861
    FORCOR:  cpu time      0.0279: real time      0.0279
    FORHAR:  cpu time      0.0072: real time      0.0072
    MIXING:  cpu time      0.0020: real time      0.0020
    OFIELD:  cpu time      0.0000: real time      0.0000

  FORCE on cell =-STRESS in cart. coord.  units (eV):
  Direction    XX          YY          ZZ          XY          YZ          ZX
  --------------------------------------------------------------------------------------
  Alpha Z   272.35197   272.35197   272.35197
  Ewald   90896.76330 84943.95681-99224.20172     0.00000   237.51299     0.00000
  Hartree 97817.59508 92811.85624-87717.45794     0.00000   259.01706    -0.00000
  E(xc)   -1283.99060 -1287.77175 -1288.58564    -0.00000     0.41587    -0.00000
  Local  ************************183883.66037    -0.00000  -504.95331    -0.00000
  n-local  -328.41729  -198.23205  -211.13915     0.73581   -16.18346    -0.15206
  augment  1258.00512  1202.29974  1203.48774    -0.00000     4.18718    -0.00000
  Kinetic  3245.52587  3058.92555  3087.22124    -0.81785     8.78682    -0.47249
  Fock        0.00000     0.00000     0.00000     0.00000     0.00000     0.00000
  -------------------------------------------------------------------------------------
  Total      -8.75525   -27.69273     5.33688    -0.00000   -11.21685    -0.00000
  in kB      -9.68174   -30.62321     5.90163    -0.00000   -12.40383    -0.00000
  external pressure =      -11.47 kB  Pullay stress =        0.00 kB


 VOLUME and BASIS-vectors are now :
 -----------------------------------------------------------------------------
  energy-cutoff  :      520.00
  volume of cell :     1448.86
      direct lattice vectors                 reciprocal lattice vectors
     5.645286061  0.000000000  0.000000000     0.177138942 -0.000000000 -0.000000000
     0.000000000  9.881349616  0.000000000     0.000000000  0.101200751  0.013368312
     0.000000000 -3.430964609 25.973077496     0.000000000  0.000000000  0.038501406

  length of vectors
     5.645286061  9.881349616 26.198707464     0.177138942  0.102079889  0.038501406


 FORCES acting on ions
    electron-ion (+dipol)            ewald-force                    non-local-force                 convergence-correction
 -----------------------------------------------------------------------------------------------
   0.762E+02 -.107E+01 0.267E+04   -.762E+02 0.110E+01 -.267E+04   0.126E+00 0.459E-01 -.148E+01   -.940E-05 -.273E-03 0.478E-03
   0.795E+02 -.799E+02 0.118E+03   -.796E+02 0.798E+02 -.118E+03   0.136E+00 0.107E+00 -.879E-01   -.648E-05 0.427E-03 0.101E-02
   0.658E+02 0.382E+03 0.146E+04   -.659E+02 -.382E+03 -.146E+04   0.121E+00 0.354E+00 0.689E+00   -.997E-05 -.346E-03 0.117E-02
   0.671E+02 0.360E+03 -.173E+04   -.673E+02 -.360E+03 0.173E+04   0.183E+00 0.459E+00 0.315E+00   -.265E-05 0.835E-04 0.614E-03
   0.672E+02 -.350E+03 0.141E+04   -.673E+02 0.350E+03 -.141E+04   0.138E+00 -.489E+00 0.596E+00   -.918E-06 0.374E-03 0.124E-02
   0.657E+02 -.372E+03 -.178E+04   -.659E+02 0.373E+03 0.178E+04   0.190E+00 -.834E+00 0.138E+01   0.329E-05 -.126E-03 0.404E-03
   0.795E+02 0.781E+02 -.416E+03   -.796E+02 -.780E+02 0.416E+03   0.124E+00 0.761E-01 -.795E+00   -.359E-05 -.358E-03 0.977E-03
   0.761E+02 0.103E+00 -.274E+04   -.762E+02 -.758E+00 0.274E+04   0.218E+00 0.508E+00 0.313E+01   -.107E-04 0.199E-03 -.203E-03
   -.762E+02 -.107E+01 0.267E+04   0.762E+02 0.110E+01 -.267E+04   -.126E+00 0.459E-01 -.148E+01   0.940E-05 -.273E-03 0.478E-03
   -.795E+02 -.799E+02 0.118E+03   0.796E+02 0.798E+02 -.118E+03   -.136E+00 0.107E+00 -.879E-01   0.648E-05 0.427E-03 0.101E-02
   -.658E+02 0.382E+03 0.146E+04   0.659E+02 -.382E+03 -.146E+04   -.121E+00 0.354E+00 0.689E+00   0.997E-05 -.346E-03 0.117E-02
   -.671E+02 0.360E+03 -.173E+04   0.673E+02 -.360E+03 0.173E+04   -.183E+00 0.459E+00 0.315E+00   0.265E-05 0.835E-04 0.614E-03
   -.672E+02 -.350E+03 0.141E+04   0.673E+02 0.350E+03 -.141E+04   -.138E+00 -.489E+00 0.596E+00   0.918E-06 0.374E-03 0.124E-02
   -.657E+02 -.372E+03 -.178E+04   0.659E+02 0.373E+03 0.178E+04   -.190E+00 -.834E+00 0.138E+01   -.329E-05 -.126E-03 0.404E-03
   -.795E+02 0.781E+02 -.416E+03   0.796E+02 -.780E+02 0.416E+03   -.124E+00 0.761E-01 -.795E+00   0.359E-05 -.358E-03 0.977E-03
   -.761E+02 0.103E+00 -.274E+04   0.762E+02 -.758E+00 0.274E+04   -.218E+00 0.508E+00 0.313E+01   0.107E-04 0.199E-03 -.203E-03
   0.177E-12 0.473E+02 0.138E+04   -.106E-12 -.477E+02 -.138E+04   0.401E-16 0.381E+00 0.550E+00   0.911E-13 -.474E-03 0.150E-02
   0.180E-12 -.566E+02 -.168E+04   -.170E-12 0.572E+02 0.168E+04   -.119E-15 -.733E+00 -.239E+01   0.206E-12 0.548E-03 0.562E-03
   -.514E-14 0.212E+00 -.376E+02   0.160E-13 -.228E+00 0.378E+02   -.287E-17 -.314E-01 -.114E-01   0.602E-14 -.555E-04 0.290E-03
   0.108E-13 -.145E+03 0.671E+03   0.187E-13 0.141E+03 -.668E+03   0.128E-15 0.406E+01 -.369E+01   0.527E-14 0.165E-03 0.764E-04
   -.667E-14 0.121E+00 -.374E+02   -.210E-13 -.228E+00 0.378E+02   -.919E-18 0.833E-01 -.194E+00   0.569E-14 0.411E-04 0.270E-03
   -.980E-14 0.137E+03 0.680E+03   -.246E-13 -.133E+03 -.676E+03   -.304E-15 -.322E+01 -.347E+01   0.287E-14 -.146E-03 0.140E-03
   0.469E-14 0.174E+02 -.510E+03   0.171E-13 -.176E+02 0.508E+03   0.707E-16 -.249E+00 0.274E+01   0.140E-13 -.109E-03 0.122E-03
   0.135E-14 -.199E+02 0.441E+03   0.202E-13 0.198E+02 -.439E+03   -.103E-15 0.252E+00 -.379E+01   -.262E-14 0.890E-04 0.259E-03
   -.356E-13 0.108E+02 0.318E+03   0.490E-13 -.109E+02 -.318E+03   0.858E-17 0.935E-01 0.901E-01   -.386E-14 -.995E-04 0.338E-03
   -.411E-13 -.130E+02 -.387E+03   0.293E-13 0.131E+02 0.388E+03   -.358E-16 -.274E+00 -.615E+00   -.136E-13 0.115E-03 0.128E-03
   -.986E-14 0.225E+00 -.376E+02   0.325E-13 -.228E+00 0.378E+02   -.344E-17 -.434E-01 -.246E-01   -.606E-14 -.558E-04 0.289E-03
   -.553E-14 -.139E+03 0.666E+03   0.147E-13 0.135E+03 -.662E+03   0.127E-15 0.394E+01 -.356E+01   -.623E-14 0.164E-03 0.761E-04
   -.122E-13 0.111E+00 -.374E+02   -.875E-14 -.228E+00 0.378E+02   -.371E-18 0.924E-01 -.204E+00   -.569E-14 0.411E-04 0.270E-03
   -.337E-13 0.127E+03 0.669E+03   -.740E-14 -.123E+03 -.665E+03   -.297E-15 -.315E+01 -.335E+01   -.388E-14 -.145E-03 0.141E-03
   -.140E-13 0.170E+02 -.508E+03   -.110E-13 -.173E+02 0.506E+03   0.710E-16 -.236E+00 0.274E+01   -.127E-13 -.109E-03 0.122E-03
   -.859E-14 -.196E+02 0.439E+03   -.851E-14 0.195E+02 -.436E+03   -.104E-15 0.252E+00 -.380E+01   0.153E-14 0.893E-04 0.259E-03
 -----------------------------------------------------------------------------------------------
   0.124E-10 -.167E+01 0.115E+02   -.595E-13 0.320E-12 -.739E-12   -.136E-15 0.167E+01 -.115E+02   0.298E-12 0.205E-04 0.162E-01
 
 
 POSITION                                       TOTAL-FORCE (eV/Angst)
 -----------------------------------------------------------------------------------
      0.00111      8.77509      8.35891         0.093765      0.076257     -0.017062
      0.00111      3.22237     12.99220         0.018837      0.012850     -0.204558
      0.00111      6.00558     10.66983         0.045318      0.100113      0.142177
      0.00111      0.45286     15.30312         0.007091     -0.055418      0.354368
      0.00111      1.05635     10.67373         0.049592      0.223834     -0.093603
      0.00111      5.38498     15.30702         0.012836     -0.129332      0.309298
      0.00111     -1.71316     12.98465         0.046558      0.168550     -0.155169
      0.00111      2.61547     17.61794         0.098683     -0.146243     -0.879156
      2.82153      8.77509      8.35891        -0.093765      0.076257     -0.017062
      2.82153      3.22237     12.99220        -0.018837      0.012850     -0.204558
      2.82153      6.00558     10.66983        -0.045318      0.100113      0.142177
      2.82153      0.45286     15.30312        -0.007091     -0.055418      0.354368
      2.82153      1.05635     10.67373        -0.049592      0.223834     -0.093603
      2.82153      5.38498     15.30702        -0.012836     -0.129332      0.309298
      2.82153     -1.71316     12.98465        -0.046558      0.168550     -0.155169
      2.82153      2.61547     17.61794        -0.098683     -0.146243     -0.879156
      1.41132     -1.40971     10.67178        -0.000000     -0.022774     -0.153795
      1.41132      2.91892     15.30507         0.000000     -0.136233      0.535312
      1.41132      5.69528     12.98843         0.000000     -0.047306      0.208345
      1.41132      1.36665      8.35513        -0.000000     -0.217298     -0.047415
      1.41132      0.75461     12.98843         0.000000     -0.023660      0.163860
      1.41132      6.30732      8.35513         0.000000      0.517581      0.071393
      1.41132     -2.02175     15.30507        -0.000000     -0.499187      0.793194
      1.41132      3.53097     10.67178        -0.000000      0.213340     -1.006338
      4.23396     -1.40971     10.67178        -0.000000     -0.003768     -0.157900
      4.23396      2.91892     15.30507        -0.000000     -0.211791      0.394736
      4.23396      5.69528     12.98843         0.000000     -0.045948      0.200951
      4.23396      1.36665      8.35513        -0.000000     -0.278188     -0.006612
      4.23396      0.75461     12.98843         0.000000     -0.023872      0.164681
      4.23396      6.30732      8.35513         0.000000      0.570530      0.133656
      4.23396     -2.02175     15.30507        -0.000000     -0.500149      0.810028
      4.23396      3.53097     10.67178        -0.000000      0.207501     -1.016687
 -----------------------------------------------------------------------------------
    total drift:                                0.000000     -0.001194     -0.000086


--------------------------------------------------------------------------------------------------------



  FREE ENERGIE OF THE ION-ELECTRON SYSTEM (eV)
  ---------------------------------------------------
  free  energy   TOTEN  =      -178.54085003 eV

  energy  without entropy=     -178.52535157  energy(sigma->0) =     -178.53568388
 


--------------------------------------------------------------------------------------------------------


    POTLOK:  cpu time      0.0310: real time      0.0310


--------------------------------------------------------------------------------------------------------


 writing wavefunctions
     LOOP+:  cpu time    267.1331: real time    267.1475
    4ORBIT:  cpu time      0.0000: real time      0.0000

 total amount of memory used by VASP MPI-rank0   216057. kBytes
=======================================================================

   base                                    :      30000. kBytes
   nonl-proj                               :     155164. kBytes
   fftplans                                :       2263. kBytes
   grid                                    :      12946. kBytes
   one-center                              :        497. kBytes
   wavefun                                 :      15187. kBytes
 
  
  
 General timing and accounting informations for this job:
 ========================================================
  
                  Total CPU time used (sec):      274.467
                            User time (sec):      259.527
                          System time (sec):       14.940
                         Elapsed time (sec):      274.743
  
                   Maximum memory used (kb):      411472.
                   Average memory used (kb):          N/A
  
                          Minor page faults:        73445
                          Major page faults:           17
                 Voluntary context switches:          130
