   8   8   0   0
  0.3575033E+02  0.2823800E-09  0.4070300E-09  0.2488340E-08  0.5000000E-15
  1.000000000000000E-004
  CAR 
 unknown system                          
     15.40421092    -58.59922889  301      1.88763225      1.00000000
    -58.599  0.0000E+00  0.0000E+00
    -58.353  0.0000E+00  0.0000E+00
    -58.106  0.0000E+00  0.0000E+00
    -57.859  0.0000E+00  0.0000E+00
    -57.613  0.0000E+00  0.0000E+00
    -57.366  0.0000E+00  0.0000E+00
    -57.119  0.0000E+00  0.0000E+00
    -56.872  0.0000E+00  0.0000E+00
    -56.626  0.0000E+00  0.0000E+00
    -56.379  0.0000E+00  0.0000E+00
    -56.132 -0.4149E-34 -0.1023E-34
    -55.886 -0.1365E-17 -0.3366E-18
    -55.639 -0.2078E-06 -0.5125E-07
    -55.392 -0.1114E+00 -0.2748E-01
    -55.146  0.7477E+01  0.1817E+01
    -54.899  0.2903E+01  0.2533E+01
    -54.652  0.1662E+02  0.6632E+01
    -54.406  0.5563E+01  0.8004E+01
    -54.159 -0.1572E-01  0.8000E+01
    -53.912 -0.8754E-09  0.8000E+01
    -53.666  0.0000E+00  0.8000E+01
    -53.419  0.0000E+00  0.8000E+01
    -53.172  0.0000E+00  0.8000E+01
    -52.926  0.0000E+00  0.8000E+01
    -52.679  0.0000E+00  0.8000E+01
    -52.432  0.0000E+00  0.8000E+01
    -52.186  0.0000E+00  0.8000E+01
    -51.939  0.0000E+00  0.8000E+01
    -51.692  0.0000E+00  0.8000E+01
    -51.446  0.0000E+00  0.8000E+01
    -51.199  0.0000E+00  0.8000E+01
    -50.952  0.0000E+00  0.8000E+01
    -50.706  0.0000E+00  0.8000E+01
    -50.459  0.0000E+00  0.8000E+01
    -50.212  0.0000E+00  0.8000E+01
    -49.965  0.0000E+00  0.8000E+01
    -49.719  0.0000E+00  0.8000E+01
    -49.472  0.0000E+00  0.8000E+01
    -49.225  0.0000E+00  0.8000E+01
    -48.979  0.0000E+00  0.8000E+01
    -48.732  0.0000E+00  0.8000E+01
    -48.485  0.0000E+00  0.8000E+01
    -48.239  0.0000E+00  0.8000E+01
    -47.992  0.0000E+00  0.8000E+01
    -47.745  0.0000E+00  0.8000E+01
    -47.499  0.0000E+00  0.8000E+01
    -47.252  0.0000E+00  0.8000E+01
    -47.005  0.0000E+00  0.8000E+01
    -46.759  0.0000E+00  0.8000E+01
    -46.512  0.0000E+00  0.8000E+01
    -46.265  0.0000E+00  0.8000E+01
    -46.019  0.0000E+00  0.8000E+01
    -45.772  0.0000E+00  0.8000E+01
    -45.525  0.0000E+00  0.8000E+01
    -45.279  0.0000E+00  0.8000E+01
    -45.032  0.0000E+00  0.8000E+01
    -44.785  0.0000E+00  0.8000E+01
    -44.539  0.0000E+00  0.8000E+01
    -44.292  0.0000E+00  0.8000E+01
    -44.045  0.0000E+00  0.8000E+01
    -43.799  0.0000E+00  0.8000E+01
    -43.552  0.0000E+00  0.8000E+01
    -43.305  0.0000E+00  0.8000E+01
    -43.059  0.0000E+00  0.8000E+01
    -42.812  0.0000E+00  0.8000E+01
    -42.565  0.0000E+00  0.8000E+01
    -42.318  0.0000E+00  0.8000E+01
    -42.072  0.0000E+00  0.8000E+01
    -41.825  0.0000E+00  0.8000E+01
    -41.578  0.0000E+00  0.8000E+01
    -41.332  0.0000E+00  0.8000E+01
    -41.085  0.0000E+00  0.8000E+01
    -40.838  0.0000E+00  0.8000E+01
    -40.592  0.0000E+00  0.8000E+01
    -40.345  0.0000E+00  0.8000E+01
    -40.098  0.0000E+00  0.8000E+01
    -39.852  0.0000E+00  0.8000E+01
    -39.605  0.0000E+00  0.8000E+01
    -39.358  0.0000E+00  0.8000E+01
    -39.112  0.0000E+00  0.8000E+01
    -38.865  0.0000E+00  0.8000E+01
    -38.618  0.0000E+00  0.8000E+01
    -38.372  0.0000E+00  0.8000E+01
    -38.125  0.0000E+00  0.8000E+01
    -37.878  0.0000E+00  0.8000E+01
    -37.632  0.0000E+00  0.8000E+01
    -37.385  0.0000E+00  0.8000E+01
    -37.138  0.0000E+00  0.8000E+01
    -36.892  0.0000E+00  0.8000E+01
    -36.645  0.0000E+00  0.8000E+01
    -36.398  0.0000E+00  0.8000E+01
    -36.152  0.0000E+00  0.8000E+01
    -35.905  0.0000E+00  0.8000E+01
    -35.658  0.0000E+00  0.8000E+01
    -35.411  0.0000E+00  0.8000E+01
    -35.165  0.0000E+00  0.8000E+01
    -34.918  0.0000E+00  0.8000E+01
    -34.671  0.0000E+00  0.8000E+01
    -34.425  0.0000E+00  0.8000E+01
    -34.178  0.0000E+00  0.8000E+01
    -33.931  0.0000E+00  0.8000E+01
    -33.685  0.0000E+00  0.8000E+01
    -33.438  0.0000E+00  0.8000E+01
    -33.191  0.0000E+00  0.8000E+01
    -32.945  0.0000E+00  0.8000E+01
    -32.698  0.0000E+00  0.8000E+01
    -32.451 -0.6974E-29  0.8000E+01
    -32.205 -0.7035E-14  0.8000E+01
    -31.958 -0.3366E-04  0.8000E+01
    -31.711 -0.3377E+00  0.7917E+01
    -31.465  0.1803E+02  0.1236E+02
    -31.218  0.1309E+02  0.1559E+02
    -30.971  0.4114E+02  0.2574E+02
    -30.725  0.1987E+02  0.3064E+02
    -30.478  0.5540E+01  0.3201E+02
    -30.231 -0.3119E-01  0.3200E+02
    -29.985 -0.2056E-07  0.3200E+02
    -29.738  0.0000E+00  0.3200E+02
    -29.491  0.0000E+00  0.3200E+02
    -29.245  0.0000E+00  0.3200E+02
    -28.998  0.0000E+00  0.3200E+02
    -28.751  0.0000E+00  0.3200E+02
    -28.504  0.0000E+00  0.3200E+02
    -28.258  0.0000E+00  0.3200E+02
    -28.011  0.0000E+00  0.3200E+02
    -27.764  0.0000E+00  0.3200E+02
    -27.518  0.0000E+00  0.3200E+02
    -27.271  0.0000E+00  0.3200E+02
    -27.024  0.0000E+00  0.3200E+02
    -26.778  0.0000E+00  0.3200E+02
    -26.531  0.0000E+00  0.3200E+02
    -26.284  0.0000E+00  0.3200E+02
    -26.038  0.0000E+00  0.3200E+02
    -25.791  0.0000E+00  0.3200E+02
    -25.544  0.0000E+00  0.3200E+02
    -25.298  0.0000E+00  0.3200E+02
    -25.051  0.0000E+00  0.3200E+02
    -24.804  0.0000E+00  0.3200E+02
    -24.558  0.0000E+00  0.3200E+02
    -24.311  0.0000E+00  0.3200E+02
    -24.064  0.0000E+00  0.3200E+02
    -23.818  0.0000E+00  0.3200E+02
    -23.571  0.0000E+00  0.3200E+02
    -23.324  0.0000E+00  0.3200E+02
    -23.078  0.0000E+00  0.3200E+02
    -22.831  0.0000E+00  0.3200E+02
    -22.584  0.0000E+00  0.3200E+02
    -22.338  0.0000E+00  0.3200E+02
    -22.091  0.0000E+00  0.3200E+02
    -21.844  0.0000E+00  0.3200E+02
    -21.598  0.0000E+00  0.3200E+02
    -21.351  0.0000E+00  0.3200E+02
    -21.104  0.0000E+00  0.3200E+02
    -20.857  0.0000E+00  0.3200E+02
    -20.611  0.0000E+00  0.3200E+02
    -20.364  0.0000E+00  0.3200E+02
    -20.117  0.0000E+00  0.3200E+02
    -19.871  0.0000E+00  0.3200E+02
    -19.624  0.0000E+00  0.3200E+02
    -19.377  0.0000E+00  0.3200E+02
    -19.131  0.0000E+00  0.3200E+02
    -18.884  0.0000E+00  0.3200E+02
    -18.637  0.0000E+00  0.3200E+02
    -18.391  0.0000E+00  0.3200E+02
    -18.144  0.0000E+00  0.3200E+02
    -17.897  0.0000E+00  0.3200E+02
    -17.651  0.0000E+00  0.3200E+02
    -17.404  0.0000E+00  0.3200E+02
    -17.157  0.0000E+00  0.3200E+02
    -16.911  0.0000E+00  0.3200E+02
    -16.664  0.0000E+00  0.3200E+02
    -16.417  0.0000E+00  0.3200E+02
    -16.171  0.0000E+00  0.3200E+02
    -15.924  0.0000E+00  0.3200E+02
    -15.677  0.0000E+00  0.3200E+02
    -15.431  0.0000E+00  0.3200E+02
    -15.184  0.0000E+00  0.3200E+02
    -14.937  0.0000E+00  0.3200E+02
    -14.691  0.0000E+00  0.3200E+02
    -14.444  0.0000E+00  0.3200E+02
    -14.197  0.0000E+00  0.3200E+02
    -13.950  0.0000E+00  0.3200E+02
    -13.704  0.0000E+00  0.3200E+02
    -13.457  0.0000E+00  0.3200E+02
    -13.210  0.0000E+00  0.3200E+02
    -12.964  0.0000E+00  0.3200E+02
    -12.717  0.0000E+00  0.3200E+02
    -12.470  0.0000E+00  0.3200E+02
    -12.224  0.0000E+00  0.3200E+02
    -11.977  0.0000E+00  0.3200E+02
    -11.730  0.0000E+00  0.3200E+02
    -11.484  0.0000E+00  0.3200E+02
    -11.237  0.0000E+00  0.3200E+02
    -10.990  0.0000E+00  0.3200E+02
    -10.744  0.0000E+00  0.3200E+02
    -10.497  0.0000E+00  0.3200E+02
    -10.250  0.0000E+00  0.3200E+02
    -10.004  0.0000E+00  0.3200E+02
     -9.757  0.0000E+00  0.3200E+02
     -9.510  0.0000E+00  0.3200E+02
     -9.264  0.0000E+00  0.3200E+02
     -9.017  0.0000E+00  0.3200E+02
     -8.770  0.0000E+00  0.3200E+02
     -8.524  0.0000E+00  0.3200E+02
     -8.277  0.0000E+00  0.3200E+02
     -8.030  0.0000E+00  0.3200E+02
     -7.784 -0.3242E-32  0.3200E+02
     -7.537 -0.1341E-16  0.3200E+02
     -7.290 -0.2235E-06  0.3200E+02
     -7.043 -0.5296E-02  0.3200E+02
     -6.797  0.1401E+00  0.3203E+02
     -6.550  0.6195E+00  0.3219E+02
     -6.303  0.6104E+00  0.3234E+02
     -6.057  0.2131E+00  0.3239E+02
     -5.810  0.1590E+01  0.3278E+02
     -5.563  0.1379E+01  0.3312E+02
     -5.317  0.5269E+00  0.3325E+02
     -5.070  0.1872E+01  0.3371E+02
     -4.823  0.1116E+01  0.3399E+02
     -4.577  0.2173E+01  0.3452E+02
     -4.330  0.8533E+00  0.3474E+02
     -4.083  0.2040E+01  0.3524E+02
     -3.837  0.2053E+01  0.3574E+02
     -3.590  0.5980E+00  0.3589E+02
     -3.343  0.1599E+01  0.3629E+02
     -3.097  0.3096E+01  0.3705E+02
     -2.850  0.2394E+01  0.3764E+02
     -2.603  0.2094E+01  0.3816E+02
     -2.357  0.2538E+01  0.3878E+02
     -2.110  0.9118E+00  0.3901E+02
     -1.863  0.1368E+01  0.3935E+02
     -1.617  0.2131E+01  0.3987E+02
     -1.370  0.4709E+01  0.4103E+02
     -1.123  0.1218E+01  0.4133E+02
     -0.877  0.2929E+01  0.4206E+02
     -0.630  0.4738E+01  0.4322E+02
     -0.383  0.3125E+01  0.4400E+02
     -0.137  0.5429E+01  0.4534E+02
      0.110  0.5482E+01  0.4669E+02
      0.357  0.6732E+01  0.4835E+02
      0.604  0.7718E+01  0.5025E+02
      0.850  0.6032E+01  0.5174E+02
      1.097  0.5735E+01  0.5315E+02
      1.344  0.8352E+01  0.5521E+02
      1.590  0.8848E+01  0.5740E+02
      1.837  0.9411E+01  0.5972E+02
      2.084  0.9855E+01  0.6215E+02
      2.330  0.7261E+01  0.6394E+02
      2.577  0.7972E+01  0.6591E+02
      2.824  0.7077E+01  0.6765E+02
      3.070  0.9457E+01  0.6999E+02
      3.317  0.9537E+01  0.7234E+02
      3.564  0.1044E+02  0.7491E+02
      3.810  0.1375E+02  0.7831E+02
      4.057  0.1245E+02  0.8138E+02
      4.304  0.9883E+01  0.8381E+02
      4.550  0.6610E+01  0.8544E+02
      4.797  0.7013E+01  0.8717E+02
      5.044  0.3384E+01  0.8801E+02
      5.290  0.4669E+01  0.8916E+02
      5.537  0.5008E+01  0.9040E+02
      5.784  0.7146E+01  0.9216E+02
      6.030  0.6420E+01  0.9374E+02
      6.277  0.6204E+01  0.9527E+02
      6.524  0.6588E+01  0.9690E+02
      6.770  0.4235E+01  0.9794E+02
      7.017  0.6464E+01  0.9954E+02
      7.264  0.4522E+01  0.1007E+03
      7.511  0.5994E+01  0.1021E+03
      7.757  0.8258E+01  0.1042E+03
      8.004  0.6205E+01  0.1057E+03
      8.251  0.5755E+01  0.1071E+03
      8.497  0.6989E+01  0.1088E+03
      8.744  0.8299E+01  0.1109E+03
      8.991  0.7392E+01  0.1127E+03
      9.237  0.6242E+01  0.1143E+03
      9.484  0.8320E+01  0.1163E+03
      9.731  0.7036E+01  0.1180E+03
      9.977  0.4721E+01  0.1192E+03
     10.224  0.8236E+01  0.1212E+03
     10.471  0.4907E+01  0.1224E+03
     10.717  0.7794E+01  0.1244E+03
     10.964  0.5948E+01  0.1258E+03
     11.211  0.4536E+01  0.1270E+03
     11.457  0.3340E+01  0.1278E+03
     11.704  0.2863E+00  0.1279E+03
     11.951  0.3594E+00  0.1279E+03
     12.197  0.2483E+00  0.1280E+03
     12.444 -0.3897E-02  0.1280E+03
     12.691 -0.1349E-07  0.1280E+03
     12.937  0.0000E+00  0.1280E+03
     13.184  0.0000E+00  0.1280E+03
     13.431  0.0000E+00  0.1280E+03
     13.677  0.0000E+00  0.1280E+03
     13.924  0.0000E+00  0.1280E+03
     14.171  0.0000E+00  0.1280E+03
     14.417  0.0000E+00  0.1280E+03
     14.664  0.0000E+00  0.1280E+03
     14.911  0.0000E+00  0.1280E+03
     15.158  0.0000E+00  0.1280E+03
     15.404  0.0000E+00  0.1280E+03
