    8    8    1    1
  0.3575033E+02  0.2823800E-09  0.4070300E-09  0.2488340E-08  0.5000000E-15
  1.000000000000000E-004
  CAR 
 unknown system                          
     60     20     64
 
  0.1276756E-14  0.1276756E-14  0.1276756E-14  0.1851852E-01
      1        -55.235436   1.000000
      2        -54.897721   1.000000
      3        -54.720785   1.000000
      4        -54.683300   1.000000
      5        -31.624577   1.000000
      6        -31.536780   1.000000
      7        -31.253627   1.000000
      8        -31.237219   1.000000
      9        -31.112741   1.000000
     10        -31.106399   1.000000
     11        -31.082156   1.000000
     12        -30.994075   1.000000
     13        -30.797221   1.000000
     14        -30.778300   1.000000
     15        -30.679852   1.000000
     16        -30.653890   1.000000
     17         -6.924475   1.000000
     18         -6.163297   1.000000
     19         -4.981630   1.000000
     20         -3.503353   1.000000
     21         -1.795860   1.000000
     22         -0.190140   1.000000
     23          0.193855   1.000000
     24          0.286434   1.000000
     25          0.615739   1.000000
     26          0.703745   1.000000
     27          0.854983   1.000000
     28          1.051043   1.000000
     29          1.145560   1.000000
     30          1.229688   1.000000
     31          1.522383   1.000002
     32          1.892274   0.460767
     33          2.147416  -0.000740
     34          3.536618  -0.000000
     35          3.588382  -0.000000
     36          3.631167  -0.000000
     37          3.887959   0.000000
     38          3.979827   0.000000
     39          4.066253   0.000000
     40          4.201564   0.000000
     41          4.340705   0.000000
     42          4.409912   0.000000
     43          4.597880   0.000000
     44          4.943718   0.000000
     45          5.117128   0.000000
     46          5.441316   0.000000
     47          5.656922   0.000000
     48          5.806713   0.000000
     49          6.361174   0.000000
     50          6.541487   0.000000
     51          6.956276   0.000000
     52          7.284232   0.000000
     53          7.650915   0.000000
     54          7.891821   0.000000
     55          8.003594   0.000000
     56          8.357831   0.000000
     57          8.360093   0.000000
     58          8.608989   0.000000
     59         10.504535   0.000000
     60         10.666413   0.000000
     61         10.956658   0.000000
     62         10.971864   0.000000
     63         11.308176   0.000000
     64         11.349558   0.000000
 
  0.1111111E+00  0.1276756E-14  0.1276756E-14  0.3703704E-01
      1        -55.228982   1.000000
      2        -54.891221   1.000000
      3        -54.714143   1.000000
      4        -54.676744   1.000000
      5        -31.618403   1.000000
      6        -31.530851   1.000000
      7        -31.247270   1.000000
      8        -31.230381   1.000000
      9        -31.160520   1.000000
     10        -31.106200   1.000000
     11        -31.075845   1.000000
     12        -30.987642   1.000000
     13        -30.851839   1.000000
     14        -30.772931   1.000000
     15        -30.735597   1.000000
     16        -30.708438   1.000000
     17         -6.684236   1.000000
     18         -5.929290   1.000000
     19         -4.757878   1.000000
     20         -3.306630   1.000000
     21         -1.573062   1.000000
     22         -0.013052   1.000000
     23          0.373106   1.000000
     24          0.411128   1.000000
     25          0.698591   1.000000
     26          0.837041   1.000000
     27          1.047683   1.000000
     28          1.106093   1.000000
     29          1.167224   1.000000
     30          1.391139   1.000000
     31          1.749593   1.032465
     32          1.975996  -0.008461
     33          2.022551  -0.033455
     34          3.263231  -0.000000
     35          3.292031  -0.000000
     36          3.482747  -0.000000
     37          3.614154  -0.000000
     38          3.720379  -0.000000
     39          3.744037  -0.000000
     40          3.814889  -0.000000
     41          4.213092   0.000000
     42          4.453646   0.000000
     43          4.686750   0.000000
     44          5.243200   0.000000
     45          5.316440   0.000000
     46          5.598237   0.000000
     47          5.841650   0.000000
     48          6.267574   0.000000
     49          6.557303   0.000000
     50          6.729756   0.000000
     51          7.534335   0.000000
     52          7.654927   0.000000
     53          7.902768   0.000000
     54          7.945133   0.000000
     55          8.041806   0.000000
     56          8.164056   0.000000
     57          8.461738   0.000000
     58          8.655686   0.000000
     59          9.024145   0.000000
     60          9.421356   0.000000
     61         10.218990   0.000000
     62         10.885627   0.000000
     63         10.995024   0.000000
     64         11.296222   0.000000
 
  0.2222222E+00  0.1276756E-14  0.1276756E-14  0.3703704E-01
      1        -55.212585   1.000000
      2        -54.874706   1.000000
      3        -54.697272   1.000000
      4        -54.660086   1.000000
      5        -31.602727   1.000000
      6        -31.515785   1.000000
      7        -31.295983   1.000000
      8        -31.231116   1.000000
      9        -31.213012   1.000000
     10        -31.089583   1.000000
     11        -31.059793   1.000000
     12        -30.988721   1.000000
     13        -30.971193   1.000000
     14        -30.875029   1.000000
     15        -30.845118   1.000000
     16        -30.759153   1.000000
     17         -5.978597   1.000000
     18         -5.243187   1.000000
     19         -4.105775   1.000000
     20         -2.750249   1.000000
     21         -0.936994   1.000000
     22          0.414786   1.000000
     23          0.742982   1.000000
     24          0.762403   1.000000
     25          0.868577   1.000000
     26          0.911845   1.000000
     27          0.976681   1.000000
     28          1.267826   1.000000
     29          1.499622   1.000000
     30          1.690416   1.008738
     31          1.786721   1.026047
     32          1.986520  -0.023934
     33          2.314674  -0.000000
     34          2.682034  -0.000000
     35          2.777950  -0.000000
     36          2.842888  -0.000000
     37          3.007111  -0.000000
     38          3.345052  -0.000000
     39          3.703479  -0.000000
     40          3.719184  -0.000000
     41          4.136691   0.000000
     42          4.284657   0.000000
     43          5.203844   0.000000
     44          5.676829   0.000000
     45          5.733690   0.000000
     46          5.933970   0.000000
     47          6.040664   0.000000
     48          6.114616   0.000000
     49          6.618475   0.000000
     50          7.157613   0.000000
     51          7.222782   0.000000
     52          7.654423   0.000000
     53          7.849831   0.000000
     54          8.187998   0.000000
     55          8.212612   0.000000
     56          8.293491   0.000000
     57          8.546647   0.000000
     58          8.849941   0.000000
     59          9.218644   0.000000
     60          9.530979   0.000000
     61          9.599102   0.000000
     62          9.651976   0.000000
     63         10.984368   0.000000
     64         11.136116   0.000000
 
  0.3333333E+00  0.1276756E-14  0.1276756E-14  0.3703704E-01
      1        -55.193861   1.000000
      2        -54.855846   1.000000
      3        -54.678002   1.000000
      4        -54.641063   1.000000
      5        -31.584842   1.000000
      6        -31.498595   1.000000
      7        -31.447439   1.000000
      8        -31.212680   1.000000
      9        -31.193235   1.000000
     10        -31.141398   1.000000
     11        -31.070608   1.000000
     12        -31.041482   1.000000
     13        -31.031478   1.000000
     14        -30.997624   1.000000
     15        -30.952119   1.000000
     16        -30.743643   1.000000
     17         -4.846366   1.000000
     18         -4.147847   1.000000
     19         -3.082816   1.000000
     20         -1.947368   1.000000
     21         -0.025855   1.000000
     22          0.187784   1.000000
     23          0.413256   1.000000
     24          0.569034   1.000000
     25          0.704500   1.000000
     26          0.872444   1.000000
     27          1.168649   1.000000
     28          1.380444   1.000000
     29          1.492897   1.000000
     30          1.634216   1.000993
     31          1.817915   0.958884
     32          1.997815  -0.032723
     33          2.127173  -0.001824
     34          2.131196  -0.001536
     35          2.260493  -0.000001
     36          2.949245  -0.000000
     37          3.007721  -0.000000
     38          3.304095  -0.000000
     39          3.683202  -0.000000
     40          3.847016  -0.000000
     41          3.979543   0.000000
     42          4.536299   0.000000
     43          5.310686   0.000000
     44          5.369644   0.000000
     45          5.511262   0.000000
     46          6.172277   0.000000
     47          6.296443   0.000000
     48          7.072699   0.000000
     49          7.105269   0.000000
     50          7.361797   0.000000
     51          7.625490   0.000000
     52          7.910822   0.000000
     53          7.963548   0.000000
     54          8.406263   0.000000
     55          8.431960   0.000000
     56          8.477255   0.000000
     57          8.729962   0.000000
     58          8.850115   0.000000
     59          9.575285   0.000000
     60         10.034136   0.000000
     61         10.336871   0.000000
     62         10.499689   0.000000
     63         10.723671   0.000000
     64         11.167155   0.000000
 
  0.4444444E+00  0.1276756E-14  0.1276756E-14  0.3703704E-01
      1        -55.181587   1.000000
      2        -54.843484   1.000000
      3        -54.665370   1.000000
      4        -54.628592   1.000000
      5        -31.573125   1.000000
      6        -31.544869   1.000000
      7        -31.487336   1.000000
      8        -31.239815   1.000000
      9        -31.200602   1.000000
     10        -31.180175   1.000000
     11        -31.131558   1.000000
     12        -31.095710   1.000000
     13        -31.058176   1.000000
     14        -31.029482   1.000000
     15        -30.940008   1.000000
     16        -30.733468   1.000000
     17         -3.345753   1.000000
     18         -2.721924   1.000000
     19         -1.862094   1.000000
     20         -1.573670   1.000000
     21         -1.228023   1.000000
     22         -0.925292   1.000000
     23         -0.143186   1.000000
     24          0.346444   1.000000
     25          0.725855   1.000000
     26          0.730744   1.000000
     27          1.247972   1.000000
     28          1.423917   1.000000
     29          1.664183   1.003489
     30          1.738612   1.028086
     31          1.801156   1.004811
     32          1.811648   0.979047
     33          2.231211  -0.000007
     34          2.260976  -0.000001
     35          2.298726  -0.000000
     36          2.511194  -0.000000
     37          2.951898  -0.000000
     38          3.061245  -0.000000
     39          3.325610  -0.000000
     40          3.965629   0.000000
     41          4.130026   0.000000
     42          4.450326   0.000000
     43          5.587808   0.000000
     44          5.845050   0.000000
     45          5.970598   0.000000
     46          6.684608   0.000000
     47          7.229836   0.000000
     48          7.361145   0.000000
     49          7.725262   0.000000
     50          7.977694   0.000000
     51          8.011684   0.000000
     52          8.161127   0.000000
     53          8.311631   0.000000
     54          8.508534   0.000000
     55          8.646682   0.000000
     56          8.924497   0.000000
     57          9.106467   0.000000
     58          9.301132   0.000000
     59          9.811797   0.000000
     60          9.861381   0.000000
     61          9.995392   0.000000
     62         10.196910   0.000000
     63         10.246201   0.000000
     64         10.733846   0.000000
 
  0.1276756E-14  0.1666667E+00  0.1276756E-14  0.3703704E-01
      1        -55.235330   1.000000
      2        -54.897594   1.000000
      3        -54.720650   1.000000
      4        -54.683177   1.000000
      5        -31.624263   1.000000
      6        -31.539621   1.000000
      7        -31.257296   1.000000
      8        -31.236720   1.000000
      9        -31.116680   1.000000
     10        -31.106292   1.000000
     11        -31.085545   1.000000
     12        -30.993647   1.000000
     13        -30.797088   1.000000
     14        -30.778074   1.000000
     15        -30.679717   1.000000
     16        -30.653750   1.000000
     17         -6.680144   1.000000
     18         -5.938041   1.000000
     19         -4.791322   1.000000
     20         -3.411314   1.000000
     21         -1.607951   1.000000
     22         -0.792337   1.000000
     23         -0.463482   1.000000
     24         -0.204693   1.000000
     25          0.348343   1.000000
     26          0.751451   1.000000
     27          1.023342   1.000000
     28          1.088624   1.000000
     29          1.297073   1.000000
     30          1.507921   1.000001
     31          1.633888   1.000978
     32          2.074619  -0.011894
     33          2.108924  -0.003787
     34          3.411680  -0.000000
     35          3.546559  -0.000000
     36          3.641278  -0.000000
     37          3.892224   0.000000
     38          3.922405   0.000000
     39          3.987766   0.000000
     40          4.130122   0.000000
     41          4.145648   0.000000
     42          4.279091   0.000000
     43          4.421114   0.000000
     44          4.657316   0.000000
     45          4.949557   0.000000
     46          5.146858   0.000000
     47          5.426325   0.000000
     48          5.486494   0.000000
     49          6.040532   0.000000
     50          6.553926   0.000000
     51          6.816550   0.000000
     52          7.297925   0.000000
     53          8.233005   0.000000
     54          8.624474   0.000000
     55          8.807649   0.000000
     56          8.920107   0.000000
     57          9.024306   0.000000
     58          9.389396   0.000000
     59         10.054284   0.000000
     60         10.631587   0.000000
     61         10.889213   0.000000
     62         10.980013   0.000000
     63         11.161437   0.000000
     64         11.473191   0.000000
 
  0.1111111E+00  0.1666667E+00  0.1276756E-14  0.7407407E-01
      1        -55.228875   1.000000
      2        -54.891092   1.000000
      3        -54.714009   1.000000
      4        -54.676620   1.000000
      5        -31.618098   1.000000
      6        -31.533615   1.000000
      7        -31.250828   1.000000
      8        -31.229901   1.000000
      9        -31.160371   1.000000
     10        -31.110015   1.000000
     11        -31.079145   1.000000
     12        -30.987229   1.000000
     13        -30.851648   1.000000
     14        -30.772707   1.000000
     15        -30.735399   1.000000
     16        -30.708252   1.000000
     17         -6.446887   1.000000
     18         -5.710723   1.000000
     19         -4.573470   1.000000
     20         -3.216346   1.000000
     21         -1.386530   1.000000
     22         -0.621181   1.000000
     23         -0.285424   1.000000
     24         -0.026055   1.000000
     25          0.409118   1.000000
     26          0.884430   1.000000
     27          1.177018   1.000000
     28          1.209659   1.000000
     29          1.444391   1.000000
     30          1.673702   1.004968
     31          1.730691   1.024482
     32          2.068979  -0.013919
     33          2.121039  -0.002353
     34          3.120408  -0.000000
     35          3.293528  -0.000000
     36          3.438175  -0.000000
     37          3.524384  -0.000000
     38          3.598388  -0.000000
     39          3.617711  -0.000000
     40          3.902660   0.000000
     41          4.139221   0.000000
     42          4.274837   0.000000
     43          4.648815   0.000000
     44          4.768152   0.000000
     45          5.259145   0.000000
     46          5.453443   0.000000
     47          5.644727   0.000000
     48          5.754187   0.000000
     49          6.273946   0.000000
     50          6.776941   0.000000
     51          7.015565   0.000000
     52          7.588965   0.000000
     53          8.322096   0.000000
     54          8.498641   0.000000
     55          8.873913   0.000000
     56          8.997230   0.000000
     57          9.226227   0.000000
     58          9.293627   0.000000
     59          9.527326   0.000000
     60          9.678842   0.000000
     61         10.120214   0.000000
     62         10.525091   0.000000
     63         10.582461   0.000000
     64         11.336823   0.000000
 
  0.2222222E+00  0.1666667E+00  0.1276756E-14  0.7407407E-01
      1        -55.212483   1.000000
      2        -54.874585   1.000000
      3        -54.697145   1.000000
      4        -54.659968   1.000000
      5        -31.602459   1.000000
      6        -31.518385   1.000000
      7        -31.295764   1.000000
      8        -31.234422   1.000000
      9        -31.212603   1.000000
     10        -31.093105   1.000000
     11        -31.062909   1.000000
     12        -30.988416   1.000000
     13        -30.970834   1.000000
     14        -30.874711   1.000000
     15        -30.844850   1.000000
     16        -30.758940   1.000000
     17         -5.762993   1.000000
     18         -5.045328   1.000000
     19         -3.939218   1.000000
     20         -2.660417   1.000000
     21         -0.771698   1.000000
     22         -0.220004   1.000000
     23          0.091761   1.000000
     24          0.372524   1.000000
     25          0.564335   1.000000
     26          1.192586   1.000000
     27          1.278650   1.000000
     28          1.519865   1.000001
     29          1.570281   1.000034
     30          1.599953   1.000183
     31          1.964901   0.017273
     32          2.066520  -0.014863
     33          2.418932  -0.000000
     34          2.552329  -0.000000
     35          2.717442  -0.000000
     36          2.844969  -0.000000
     37          2.960898  -0.000000
     38          3.446460  -0.000000
     39          3.590939  -0.000000
     40          3.846586  -0.000000
     41          4.126581   0.000000
     42          4.313608   0.000000
     43          4.608974   0.000000
     44          5.267058   0.000000
     45          5.741760   0.000000
     46          5.940329   0.000000
     47          6.027617   0.000000
     48          6.304512   0.000000
     49          6.349559   0.000000
     50          6.799207   0.000000
     51          6.895868   0.000000
     52          7.383674   0.000000
     53          7.940649   0.000000
     54          8.181695   0.000000
     55          8.353442   0.000000
     56          8.740186   0.000000
     57          9.242298   0.000000
     58          9.486646   0.000000
     59          9.639051   0.000000
     60          9.806265   0.000000
     61          9.863992   0.000000
     62         10.094948   0.000000
     63         10.789117   0.000000
     64         10.961923   0.000000
 
  0.3333333E+00  0.1666667E+00  0.1276756E-14  0.7407407E-01
      1        -55.193762   1.000000
      2        -54.855731   1.000000
      3        -54.677883   1.000000
      4        -54.640948   1.000000
      5        -31.584615   1.000000
      6        -31.501008   1.000000
      7        -31.447136   1.000000
      8        -31.215702   1.000000
      9        -31.192903   1.000000
     10        -31.140970   1.000000
     11        -31.073805   1.000000
     12        -31.044376   1.000000
     13        -31.031003   1.000000
     14        -30.997265   1.000000
     15        -30.951826   1.000000
     16        -30.743443   1.000000
     17         -4.670592   1.000000
     18         -3.987530   1.000000
     19         -2.947064   1.000000
     20         -1.845060   1.000000
     21         -0.032597   1.000000
     22          0.043803   1.000000
     23          0.300617   1.000000
     24          0.349562   1.000000
     25          0.389005   1.000000
     26          0.572955   1.000000
     27          1.159740   1.000000
     28          1.387921   1.000000
     29          1.529516   1.000003
     30          1.647800   1.001802
     31          1.891303   0.468955
     32          2.020036  -0.034135
     33          2.161794  -0.000368
     34          2.478904  -0.000000
     35          2.738536  -0.000000
     36          2.943516  -0.000000
     37          3.245887  -0.000000
     38          3.445625  -0.000000
     39          3.703646  -0.000000
     40          3.762352  -0.000000
     41          4.230188   0.000000
     42          4.591400   0.000000
     43          4.927517   0.000000
     44          5.434878   0.000000
     45          5.656481   0.000000
     46          5.678488   0.000000
     47          5.971015   0.000000
     48          6.407163   0.000000
     49          6.594593   0.000000
     50          6.754568   0.000000
     51          7.404659   0.000000
     52          7.672448   0.000000
     53          7.751006   0.000000
     54          8.499964   0.000000
     55          8.657604   0.000000
     56          8.864671   0.000000
     57          9.259970   0.000000
     58          9.561834   0.000000
     59          9.627857   0.000000
     60         10.071225   0.000000
     61         10.526277   0.000000
     62         10.548142   0.000000
     63         10.734370   0.000000
     64         10.862439   0.000000
 
  0.4444444E+00  0.1666667E+00  0.1276756E-14  0.7407407E-01
      1        -55.181494   1.000000
      2        -54.843376   1.000000
      3        -54.665259   1.000000
      4        -54.628482   1.000000
      5        -31.572924   1.000000
      6        -31.544526   1.000000
      7        -31.489627   1.000000
      8        -31.239320   1.000000
      9        -31.203436   1.000000
     10        -31.179893   1.000000
     11        -31.131021   1.000000
     12        -31.095305   1.000000
     13        -31.061149   1.000000
     14        -31.032238   1.000000
     15        -30.939751   1.000000
     16        -30.733287   1.000000
     17         -3.244566   1.000000
     18         -2.631551   1.000000
     19         -1.765848   1.000000
     20         -1.503815   1.000000
     21         -1.089272   1.000000
     22         -0.877366   1.000000
     23         -0.150176   1.000000
     24          0.312148   1.000000
     25          0.354661   1.000000
     26          0.522210   1.000000
     27          0.876855   1.000000
     28          1.009799   1.000000
     29          1.711285   1.015874
     30          1.925473   0.203768
     31          1.971202   0.001375
     32          2.180631  -0.000137
     33          2.333741  -0.000000
     34          2.579290  -0.000000
     35          2.918642  -0.000000
     36          3.033046  -0.000000
     37          3.092278  -0.000000
     38          3.247652  -0.000000
     39          3.545054  -0.000000
     40          3.877473  -0.000000
     41          4.103271   0.000000
     42          4.684269   0.000000
     43          5.212773   0.000000
     44          5.548005   0.000000
     45          5.783103   0.000000
     46          6.201279   0.000000
     47          6.447952   0.000000
     48          6.877267   0.000000
     49          6.928307   0.000000
     50          7.267059   0.000000
     51          7.633138   0.000000
     52          7.917873   0.000000
     53          8.038595   0.000000
     54          8.564005   0.000000
     55          8.749829   0.000000
     56          8.880988   0.000000
     57          9.172525   0.000000
     58          9.329466   0.000000
     59          9.658714   0.000000
     60          9.941921   0.000000
     61         10.090652   0.000000
     62         10.235307   0.000000
     63         10.394807   0.000000
     64         10.672889   0.000000
 
  0.1276756E-14  0.3333333E+00  0.1276756E-14  0.3703704E-01
      1        -55.235116   1.000000
      2        -54.897335   1.000000
      3        -54.720376   1.000000
      4        -54.682929   1.000000
      5        -31.623635   1.000000
      6        -31.545282   1.000000
      7        -31.264601   1.000000
      8        -31.235725   1.000000
      9        -31.124516   1.000000
     10        -31.106067   1.000000
     11        -31.092299   1.000000
     12        -30.992800   1.000000
     13        -30.796811   1.000000
     14        -30.777629   1.000000
     15        -30.679440   1.000000
     16        -30.653453   1.000000
     17         -6.032287   1.000000
     18         -5.354469   1.000000
     19         -4.324441   1.000000
     20         -3.243401   1.000000
     21         -2.292365   1.000000
     22         -1.659743   1.000000
     23         -1.023393   1.000000
     24         -0.764915   1.000000
     25          0.246745   1.000000
     26          0.794254   1.000000
     27          1.068346   1.000000
     28          1.222713   1.000000
     29          1.430937   1.000000
     30          1.516338   1.000001
     31          1.860274   0.722194
     32          2.245351  -0.000003
     33          2.440012  -0.000000
     34          3.095278  -0.000000
     35          3.226261  -0.000000
     36          3.494405  -0.000000
     37          3.626777  -0.000000
     38          3.662640  -0.000000
     39          3.780181  -0.000000
     40          3.846051  -0.000000
     41          3.851368  -0.000000
     42          3.924301   0.000000
     43          4.004001   0.000000
     44          4.162814   0.000000
     45          4.438297   0.000000
     46          4.960441   0.000000
     47          5.584074   0.000000
     48          6.056617   0.000000
     49          6.286161   0.000000
     50          6.679143   0.000000
     51          7.277592   0.000000
     52          7.562599   0.000000
     53          7.748506   0.000000
     54          8.462656   0.000000
     55          9.120672   0.000000
     56          9.334971   0.000000
     57          9.410826   0.000000
     58          9.648463   0.000000
     59         10.555420   0.000000
     60         10.908371   0.000000
     61         10.961392   0.000000
     62         11.059202   0.000000
     63         11.240893   0.000000
     64         11.884626   0.000000
 
  0.1111111E+00  0.3333333E+00  0.1276756E-14  0.7407407E-01
      1        -55.228665   1.000000
      2        -54.890840   1.000000
      3        -54.713742   1.000000
      4        -54.676376   1.000000
      5        -31.617500   1.000000
      6        -31.539150   1.000000
      7        -31.257939   1.000000
      8        -31.228962   1.000000
      9        -31.160096   1.000000
     10        -31.117627   1.000000
     11        -31.085753   1.000000
     12        -30.986423   1.000000
     13        -30.851287   1.000000
     14        -30.772274   1.000000
     15        -30.735027   1.000000
     16        -30.707901   1.000000
     17         -5.822691   1.000000
     18         -5.148888   1.000000
     19         -4.123523   1.000000
     20         -3.046345   1.000000
     21         -2.070442   1.000000
     22         -1.451896   1.000000
     23         -0.831484   1.000000
     24         -0.565776   1.000000
     25          0.366119   1.000000
     26          0.799649   1.000000
     27          1.243227   1.000000
     28          1.346612   1.000000
     29          1.577230   1.000052
     30          1.714580   1.017237
     31          2.025237  -0.032611
     32          2.299265  -0.000000
     33          2.411978  -0.000000
     34          2.903302  -0.000000
     35          2.978127  -0.000000
     36          3.172463  -0.000000
     37          3.360110  -0.000000
     38          3.430464  -0.000000
     39          3.656832  -0.000000
     40          3.829033  -0.000000
     41          3.966390   0.000000
     42          4.040370   0.000000
     43          4.208465   0.000000
     44          4.325861   0.000000
     45          4.502924   0.000000
     46          4.735236   0.000000
     47          5.719328   0.000000
     48          6.267445   0.000000
     49          6.465167   0.000000
     50          6.824202   0.000000
     51          7.479705   0.000000
     52          7.730129   0.000000
     53          7.894632   0.000000
     54          8.658245   0.000000
     55          8.837763   0.000000
     56          9.270046   0.000000
     57          9.574430   0.000000
     58          9.825881   0.000000
     59         10.041756   0.000000
     60         10.109920   0.000000
     61         10.411274   0.000000
     62         10.960816   0.000000
     63         11.029552   0.000000
     64         11.230830   0.000000
 
  0.2222222E+00  0.3333333E+00  0.1276756E-14  0.7407407E-01
      1        -55.212281   1.000000
      2        -54.874344   1.000000
      3        -54.696893   1.000000
      4        -54.659733   1.000000
      5        -31.601924   1.000000
      6        -31.523585   1.000000
      7        -31.295330   1.000000
      8        -31.241027   1.000000
      9        -31.211789   1.000000
     10        -31.100136   1.000000
     11        -31.069131   1.000000
     12        -30.987810   1.000000
     13        -30.970120   1.000000
     14        -30.874079   1.000000
     15        -30.844315   1.000000