       N       E                     dE             d eps       ncg     rms          rms(c)
DAV:   1     0.189873496177E+03    0.18987E+03   -0.35315E+04  2560   0.879E+02
DAV:   2    -0.446846081615E+02   -0.23456E+03   -0.23428E+03  3584   0.135E+02
DAV:   3    -0.551513970141E+02   -0.10467E+02   -0.10455E+02  3264   0.358E+01
DAV:   4    -0.557280892198E+02   -0.57669E+00   -0.57564E+00  4480   0.623E+00
DAV:   5    -0.557308896181E+02   -0.28004E-02   -0.28003E-02  3328   0.416E-01    0.195E+01
DAV:   6    -0.961192745341E+02   -0.40388E+02   -0.66716E+02  4672   0.377E+01    0.477E+01
DAV:   7    -0.623958045182E+02    0.33723E+02   -0.76467E+02  4672   0.342E+01    0.312E+01
DAV:   8    -0.540415182081E+02    0.83543E+01   -0.33947E+02  4928   0.254E+01    0.201E+01
DAV:   9    -0.481898991722E+02    0.58516E+01   -0.78421E+01  4864   0.139E+01    0.805E+00
DAV:  10    -0.472745540538E+02    0.91535E+00   -0.74705E+00  4160   0.610E+00    0.555E+00
DAV:  11    -0.469931299938E+02    0.28142E+00   -0.41479E+00  4480   0.587E+00    0.452E+00
DAV:  12    -0.466371238525E+02    0.35601E+00   -0.30105E+00  4288   0.478E+00    0.143E+00
DAV:  13    -0.466210630393E+02    0.16061E-01   -0.24888E-01  4352   0.112E+00    0.841E-01
DAV:  14    -0.466182648506E+02    0.27982E-02   -0.17904E-01  4480   0.783E-01    0.683E-01
DAV:  15    -0.466147436781E+02    0.35212E-02   -0.81677E-02  4224   0.366E-01    0.279E-01
DAV:  16    -0.466135405862E+02    0.12031E-02   -0.12556E-02  4608   0.183E-01    0.959E-02
DAV:  17    -0.466138643404E+02   -0.32375E-03   -0.94090E-04  3904   0.869E-02    0.382E-02
DAV:  18    -0.466140759356E+02   -0.21160E-03   -0.41311E-04  3648   0.565E-02    0.278E-02
DAV:  19    -0.466141020712E+02   -0.26136E-04   -0.13074E-04  3712   0.295E-02    0.183E-02
DAV:  20    -0.466142113734E+02   -0.10930E-03   -0.79909E-05  3264   0.249E-02    0.858E-03
DAV:  21    -0.466142852327E+02   -0.73859E-04   -0.31119E-05  3520   0.103E-02    0.966E-03
DAV:  22    -0.466143726733E+02   -0.87441E-04   -0.14502E-05  4288   0.692E-03    0.479E-03
DAV:  23    -0.466144588851E+02   -0.86212E-04   -0.99869E-06  4032   0.684E-03    0.471E-03
DAV:  24    -0.466145105789E+02   -0.51694E-04   -0.48129E-06  3776   0.376E-03    0.164E-03
DAV:  25    -0.466145362571E+02   -0.25678E-04   -0.14816E-06  3776   0.215E-03    0.595E-04
DAV:  26    -0.466145450674E+02   -0.88104E-05   -0.69221E-07  3264   0.832E-04
   1 F= -.46614545E+02 E0= -.46616561E+02  d E =0.604670E-02
