 vasp.6.5.0 16Dec24 (build Apr 17 2025 17:55:45) complex                        
  
 executed on             LinuxIFC date 2025.07.14  12:48:03
 running   64 mpi-ranks, on    1 nodes
 distrk:  each k-point on   64 cores,    1 groups
 distr:  one band on NCORE=   1 cores,   64 groups


--------------------------------------------------------------------------------------------------------


 INCAR:
   ISTART = 0
   ICHARG = 2
   PREC = N
   LREAL = .FALSE.
   ENCUT = 520
   ALGO = N
   NELM = 500
   EDIFF = 1E-05
   IBRION = -1
   ISIF = 3
   NSW = 0
   EDIFFG = -0.01
   ISMEAR = 1
   SIGMA = 0.1
   LVHAR = .TRUE.
   LVTOT = .TRUE.

 POTCAR:    PAW_PBE Ti_sv 26Sep2005               
 POTCAR:    PAW_PBE Al 04Jan2001                  
 -----------------------------------------------------------------------------
|                                                                             |
|           W    W    AA    RRRRR   N    N  II  N    N   GGGG   !!!           |
|           W    W   A  A   R    R  NN   N  II  NN   N  G    G  !!!           |
|           W    W  A    A  R    R  N N  N  II  N N  N  G       !!!           |
|           W WW W  AAAAAA  RRRRR   N  N N  II  N  N N  G  GGG   !            |
|           WW  WW  A    A  R   R   N   NN  II  N   NN  G    G                |
|           W    W  A    A  R    R  N    N  II  N    N   GGGG   !!!           |
|                                                                             |
|     For optimal performance we recommend to set                             |
|       NCORE = 2 up to number-of-cores-per-socket                            |
|     NCORE specifies how many cores store one orbital (NPAR=cpu/NCORE).      |
|     This setting can greatly improve the performance of VASP for DFT.       |
|     The default, NCORE=1 might be grossly inefficient on modern             |
|     multi-core architectures or massively parallel machines. Do your        |
|     own testing! More info at https://www.vasp.at/wiki/index.php/NCORE      |
|     Unfortunately you need to use the default for GW and RPA                |
|     calculations (for HF NCORE is supported but not extensively tested      |
|     yet).                                                                   |
|                                                                             |
 -----------------------------------------------------------------------------

 POTCAR:    PAW_PBE Ti_sv 26Sep2005               
   SHA256 =  4d747badb5a5ea28d858fbac70885b3f8929d6fd9e5b0dbe1ecb9878dc164da1 Ti_sv/POTCAR          
   COPYR  = (c) Copyright 26Sep2005 Georg Kresse                                                    
   COPYR  = This file is part of the software VASP. Any use, copying, and all other rights are regul
   COPYR  = If you do not have a valid VASP license, you may not use, copy or distribute this file. 
   VRHFIN =Ti: 3p4s3d                                                                               
   LEXCH  = PE                                                                                      
   EATOM  =  1588.0892 eV,  116.7213 Ry                                                             
                                                                                                    
   TITEL  = PAW_PBE Ti_sv 26Sep2005                                                                 
   LULTRA =        F    use ultrasoft PP ?                                                          
   IUNSCR =        1    unscreen: 0-lin 1-nonlin 2-no                                               
   RPACOR =    2.000    partial core radius                                                         
   POMASS =   47.880; ZVAL   =   12.000    mass and valenz                                          
   RCORE  =    2.300    outmost cutoff radius                                                       
   RWIGS  =    2.300; RWIGS  =    1.217    wigner-seitz radius (au A)                               
   ENMAX  =  274.610; ENMIN  =  205.957 eV                                                          
   ICORE  =        3    local potential                                                             
   LCOR   =        T    correct aug charges                                                         
   LPAW   =        T    paw PP                                                                      
   EAUG   =  482.848                                                                                
   RMAX   =    2.348    core radius for proj-oper                                                   
   RAUG   =    1.300    factor for augmentation sphere                                              
   RDEP   =    2.381    radius for radial grids                                                     
   RDEPT  =    1.930    core radius for aug-charge                                                  
                                                                                                    
   Atomic configuration                                                                             
    8 entries                                                                                       
     n  l   j            E        occ.                                                              
     1  0  0.50     -4865.3608   2.0000                                                             
     2  0  0.50      -533.1368   2.0000                                                             
     2  1  1.50      -440.5031   6.0000                                                             
     3  0  0.50       -59.3186   2.0000                                                             
     4  0  0.50        -3.7291   1.0000                                                             
     3  1  1.50       -35.7012   6.0000                                                             
     3  2  2.50        -1.9157   3.0000                                                             
     4  3  2.50        -1.3606   0.0000                                                             
   Description                                                                                      
     l       E           TYP  RCUT    TYP  RCUT                                                     
     0    -59.3185931     23  1.800                                                                 
     0     -3.7290822     23  2.300                                                                 
     1    -35.7012045     23  2.300                                                                 
     1     -1.3605826     23  2.300                                                                 
     2     -1.9156920     23  2.300                                                                 
     2     -0.0236318     23  2.300                                                                 
     3     -1.3605826     23  2.300                                                                 
  local pseudopotential read in
  partial core-charges read in
  partial kinetic energy density read in
  atomic valenz-charges read in
  non local Contribution for L=           0  read in
    real space projection operators read in
  non local Contribution for L=           0  read in
    real space projection operators read in
  non local Contribution for L=           1  read in
    real space projection operators read in
  non local Contribution for L=           1  read in
    real space projection operators read in
  non local Contribution for L=           2  read in
    real space projection operators read in
  non local Contribution for L=           2  read in
    real space projection operators read in
    PAW grid and wavefunctions read in
 
   number of l-projection  operators is LMAX  =           6
   number of lm-projection operators is LMMAX =          18
 
 POTCAR:    PAW_PBE Al 04Jan2001                  
   SHA256 =  17880443556af62b473fe41b62a467bd001ad55d2cabe504a3f22e34d4e9db96 Al/POTCAR             
   COPYR  = (c) Copyright 04Jan2001 Georg Kresse                                                    
   COPYR  = This file is part of the software VASP. Any use, copying, and all other rights are regul
   COPYR  = If you do not have a valid VASP license, you may not use, copy or distribute this file. 
   VRHFIN =Al: s2p1                                                                                 
   LEXCH  = PE                                                                                      
   EATOM  =    53.5387 eV,    3.9350 Ry                                                             
                                                                                                    
   TITEL  = PAW_PBE Al 04Jan2001                                                                    
   LULTRA =        F    use ultrasoft PP ?                                                          
   IUNSCR =        1    unscreen: 0-lin 1-nonlin 2-no                                               
   RPACOR =    1.500    partial core radius                                                         
   POMASS =   26.981; ZVAL   =    3.000    mass and valenz                                          
   RCORE  =    1.900    outmost cutoff radius                                                       
   RWIGS  =    2.650; RWIGS  =    1.402    wigner-seitz radius (au A)                               
   ENMAX  =  240.300; ENMIN  =  180.225 eV                                                          
   ICORE  =        2    local potential                                                             
   LCOR   =        T    correct aug charges                                                         
   LPAW   =        T    paw PP                                                                      
   EAUG   =  291.052                                                                                
   DEXC   =    0.000                                                                                
   RMAX   =    1.939    core radius for proj-oper                                                   
   RAUG   =    1.300    factor for augmentation sphere                                              
   RDEP   =    1.966    radius for radial grids                                                     
   RDEPT  =    1.856    core radius for aug-charge                                                  
                                                                                                    
   Atomic configuration                                                                             
    6 entries                                                                                       
     n  l   j            E        occ.                                                              
     1  0  0.50     -1511.1048   2.0000                                                             
     2  0  0.50      -108.1629   2.0000                                                             
     2  1  1.50       -69.6402   6.0000                                                             
     3  0  0.50        -7.7528   2.0000                                                             
     3  1  1.50        -2.7121   1.0000                                                             
     3  2  2.50        -2.7212   0.0000                                                             
   Description                                                                                      
     l       E           TYP  RCUT    TYP  RCUT                                                     
     0     -7.7528455     23  1.900                                                                 
     0     -3.3096929     23  1.900                                                                 
     1     -2.7120682     23  1.900                                                                 
     1     13.6058260     23  1.900                                                                 
     2     -2.7211652      7  1.900                                                                 
  local pseudopotential read in
  partial core-charges read in
  partial kinetic energy density read in
  atomic valenz-charges read in
  non local Contribution for L=           0  read in
    real space projection operators read in
  non local Contribution for L=           0  read in
    real space projection operators read in
  non local Contribution for L=           1  read in
    real space projection operators read in
  non local Contribution for L=           1  read in
    real space projection operators read in
    PAW grid and wavefunctions read in
 
   number of l-projection  operators is LMAX  =           4
   number of lm-projection operators is LMMAX =           8
 
  PAW_PBE Ti_sv 26Sep2005               :
 energy of atom  1       EATOM=-1588.0892
 kinetic energy error for atom=    0.0042 (will be added to EATOM!!)
  PAW_PBE Al 04Jan2001                  :
 energy of atom  2       EATOM=  -53.5387
 kinetic energy error for atom=    0.0002 (will be added to EATOM!!)
 
 
 POSCAR: 0000065828-primitive-cell\(1\0\0)
  positions in direct lattice
  No initial velocities read in


 exchange-correlation table for PE
   RHO(1)=    0.500       N(1)  =     2000
   RHO(2)=  100.500       N(2)  =     4000
 


--------------------------------------------------------------------------------------------------------


 ion  position               nearest neighbor table
   1  0.000  0.000  0.338-   2 2.82   6 2.85   6 2.85   6 2.85   6 2.85   5 2.85   5 2.85   5 2.85
                             5 2.85
   2  0.000  0.000  0.452-   3 2.82   1 2.82   7 2.85   7 2.85   7 2.85   7 2.85   6 2.85   6 2.85
                             6 2.85   6 2.85
   3  0.000  0.000  0.565-   4 2.82   2 2.82   8 2.85   8 2.85   8 2.85   8 2.85   7 2.85   7 2.85
                             7 2.85   7 2.85
   4  0.000  0.000  0.678-   3 2.82   8 2.85   8 2.85   8 2.85   8 2.85
   5  0.500  0.500  0.281-   6 2.82   1 2.85   1 2.85   1 2.85   1 2.85
   6  0.500  0.500  0.395-   5 2.82   7 2.82   1 2.85   1 2.85   1 2.85   1 2.85   2 2.85   2 2.85
                             2 2.85   2 2.85
   7  0.500  0.500  0.508-   8 2.82   6 2.82   2 2.85   2 2.85   2 2.85   2 2.85   3 2.85   3 2.85
                             3 2.85   3 2.85
   8  0.500  0.500  0.622-   7 2.82   3 2.85   3 2.85   3 2.85   3 2.85   4 2.85   4 2.85   4 2.85
                             4 2.85
 
  LATTYP: Found a simple orthorhombic cell.
 ALAT       =     2.8238000870
 B/A-ratio  =     1.4414264384
 C/A-ratio  =     8.8120260630
  
  Lattice vectors:
  
 A1 = (   2.8238000870,   0.0000000000,   0.0000000000)
 A2 = (   0.0000000000,   4.0703001022,   0.0000000000)
 A3 = (   0.0000000000,   0.0000000000,  24.8833999634)


Analysis of symmetry for initial positions (statically):
=====================================================================
 Subroutine PRICEL returns:
 Original cell was already a primitive cell.
 

 Routine SETGRP: Setting up the symmetry group for a 
 simple orthorhombic supercell.


 Subroutine GETGRP returns: Found  4 space group operations
 (whereof  4 operations were pure point group operations)
 out of a pool of  8 trial point group operations.


The static configuration has the point symmetry C_2v.


Analysis of symmetry for dynamics (positions and initial velocities):
=====================================================================
 Subroutine PRICEL returns:
 Original cell was already a primitive cell.
 

 Routine SETGRP: Setting up the symmetry group for a 
 simple orthorhombic supercell.


 Subroutine GETGRP returns: Found  4 space group operations
 (whereof  4 operations were pure point group operations)
 out of a pool of  8 trial point group operations.


The dynamic configuration has the point symmetry C_2v.


 Subroutine INISYM returns: Found  4 space group operations
 (whereof  4 operations are pure point group operations),
 and found     1 'primitive' translations


----------------------------------------------------------------------------------------

                                     Primitive cell                                     

  volume of cell :     286.0027

  direct lattice vectors                    reciprocal lattice vectors
     2.823800087  0.000000000  0.000000000     0.354132718  0.000000000  0.000000000
     0.000000000  4.070300102  0.000000000     0.000000000  0.245682130  0.000000000
     0.000000000  0.000000000 24.883399963     0.000000000  0.000000000  0.040187434

  length of vectors
     2.823800087  4.070300102 24.883399963     0.354132718  0.245682130  0.040187434

  position of ions in fractional coordinates (direct lattice)
     0.000000000  0.000000000  0.338050008
     0.000000000  0.000000000  0.451539993
     0.000000000  0.000000000  0.565020025
     0.000000000  0.000000000  0.678499997
     0.500000000  0.500000000  0.281309992
     0.500000000  0.500000000  0.394789994
     0.500000000  0.500000000  0.508279979
     0.500000000  0.500000000  0.621760011

  ion indices of the primitive-cell ions
   primitive index   ion index
                 1           1
                 2           2
                 3           3
                 4           4
                 5           5
                 6           6
                 7           7
                 8           8

----------------------------------------------------------------------------------------

 
 
 KPOINTS: K-Spacing Value to Generate K-Mesh: 0.04

Automatic generation of k-mesh.
 Grid dimensions read from file:
 generate k-points for:    9    6    1

 Generating k-lattice:

  Cartesian coordinates                     Fractional coordinates (reciprocal lattice)
     0.039348080  0.000000000  0.000000000     0.111111111  0.000000000  0.000000000
     0.000000000  0.040947022  0.000000000     0.000000000  0.166666667  0.000000000
     0.000000000  0.000000000  0.040187434     0.000000000  0.000000000  1.000000000

  Length of vectors
     0.039348080  0.040947022  0.040187434

  Shift w.r.t. Gamma in fractional coordinates (k-lattice)
     0.000000000  0.000000000  0.000000000

 
 Subroutine IBZKPT returns following result:
 ===========================================
 
 Found     20 irreducible k-points:
 
 Following reciprocal coordinates:
            Coordinates               Weight
  0.000000  0.000000  0.000000      1.000000
  0.111111  0.000000  0.000000      2.000000
  0.222222  0.000000  0.000000      2.000000
  0.333333  0.000000  0.000000      2.000000
  0.444444  0.000000  0.000000      2.000000
  0.000000  0.166667  0.000000      2.000000
  0.111111  0.166667  0.000000      4.000000
  0.222222  0.166667  0.000000      4.000000
  0.333333  0.166667  0.000000      4.000000
  0.444444  0.166667  0.000000      4.000000
  0.000000  0.333333  0.000000      2.000000
  0.111111  0.333333  0.000000      4.000000
  0.222222  0.333333  0.000000      4.000000
  0.333333  0.333333  0.000000      4.000000
  0.444444  0.333333  0.000000      4.000000
  0.000000  0.500000  0.000000      1.000000
  0.111111  0.500000  0.000000      2.000000
  0.222222  0.500000  0.000000      2.000000
  0.333333  0.500000  0.000000      2.000000
  0.444444  0.500000  0.000000      2.000000
 
 Following cartesian coordinates:
            Coordinates               Weight
  0.000000  0.000000  0.000000      1.000000
  0.039348  0.000000  0.000000      2.000000
  0.078696  0.000000  0.000000      2.000000
  0.118044  0.000000  0.000000      2.000000
  0.157392  0.000000  0.000000      2.000000
  0.000000  0.040947  0.000000      2.000000
  0.039348  0.040947  0.000000      4.000000
  0.078696  0.040947  0.000000      4.000000
  0.118044  0.040947  0.000000      4.000000
  0.157392  0.040947  0.000000      4.000000
  0.000000  0.081894  0.000000      2.000000
  0.039348  0.081894  0.000000      4.000000
  0.078696  0.081894  0.000000      4.000000
  0.118044  0.081894  0.000000      4.000000
  0.157392  0.081894  0.000000      4.000000
  0.000000  0.122841  0.000000      1.000000
  0.039348  0.122841  0.000000      2.000000
  0.078696  0.122841  0.000000      2.000000
  0.118044  0.122841  0.000000      2.000000
  0.157392  0.122841  0.000000      2.000000
 


--------------------------------------------------------------------------------------------------------




 Dimension of arrays:
   k-points           NKPTS =     20   k-points in BZ     NKDIM =     20   number of bands    NBANDS=     64
   number of dos      NEDOS =    301   number of ions     NIONS =      8
   non local maximal  LDIM  =      6   non local SUM 2l+1 LMDIM =     18
   total plane-waves  NPLWV =  53760
   max r-space proj   IRMAX =      1   max aug-charges    IRDMAX=   7514
   dimension x,y,z NGX =    16 NGY =   24 NGZ =  140
   dimension x,y,z NGXF=    32 NGYF=   48 NGZF=  280
   support grid    NGXF=    32 NGYF=   48 NGZF=  280
   ions per type =               4   4
   NGX,Y,Z   is equivalent  to a cutoff of   9.42,  9.80,  9.35 a.u.
   NGXF,Y,Z  is equivalent  to a cutoff of  18.84, 19.60, 18.71 a.u.

 SYSTEM =  unknown system                          
 POSCAR =  0000065828-primitive-cell\(1\0\0)       

 Startparameter for this run:
   NWRITE =      2    write-flag & timer
   PREC   = n         normal or accurate (medium, high low for compatibility)
   ISTART =      0    job   : 0-new  1-cont  2-samecut
   ICHARG =      2    charge: 1-file 2-atom 10-const
   ISPIN  =      1    spin polarized calculation?
   LNONCOLLINEAR =      F non collinear calculations
   LSORBIT =      F    spin-orbit coupling
   INIWAV =      1    electr: 0-lowe 1-rand  2-diag
   LASPH  =      F    aspherical Exc in radial PAW
 Electronic Relaxation 1
   ENCUT  =  520.0 eV  38.22 Ry    6.18 a.u.   5.25  7.57 46.27*2*pi/ulx,y,z
   ENINI  =  520.0     initial cutoff
   ENAUG  =  482.8 eV  augmentation charge cutoff
   NELM   =    500;   NELMIN=  2; NELMDL= -5     # of ELM steps 
   EDIFF  = 0.1E-04   stopping-criterion for ELM
   LREAL  =      F    real-space projection
   NLSPLINE    = F    spline interpolate recip. space projectors
   LCOMPAT=      F    compatible to vasp.4.4
   GGA_COMPAT  = T    GGA compatible to vasp.4.4-vasp.4.6
   LMAXPAW     = -100 max onsite density
   LMAXMIX     =    2 max onsite mixed and CHGCAR
   VOSKOWN=      0    Vosko Wilk Nusair interpolation
   ROPT   =    0.00000   0.00000
 Ionic relaxation
   EDIFFG = -.1E-01   stopping-criterion for IOM
   NSW    =      0    number of steps for IOM
   NBLOCK =      1;   KBLOCK =      1    inner block; outer block 
   IBRION =     -1    ionic relax: 0-MD 1-quasi-New 2-CG
   NFREE  =      0    steps in history (QN), initial steepest desc. (CG)
   ISIF   =      3    stress and relaxation
   IWAVPR =     10    prediction:  0-non 1-charg 2-wave 3-comb
   ISYM   =      2    0-nonsym 1-usesym 2-fastsym
   LCORR  =      T    Harris-Foulkes like correction to forces

   POTIM  = 0.5000    time-step for ionic-motion
   TEIN   =    0.0    initial temperature
   TEBEG  =    0.0;   TEEND  =   0.0 temperature during run
   SMASS  =  -3.00    Nose mass-parameter (am)
   estimated Nose-frequenzy (Omega)   =  0.10E-29 period in steps = 0.13E+47 mass=  -0.182E-27a.u.
   SCALEE = 1.0000    scale energy and forces
   NPACO  =    256;   APACO  = 10.0  distance and # of slots for P.C.
   PSTRESS=    0.0 pullay stress

  Mass of Ions in am
   POMASS =  47.88 26.98
  Ionic Valenz
   ZVAL   =  12.00  3.00
  Atomic Wigner-Seitz radii
   RWIGS  =  -1.00 -1.00
  virtual crystal weights 
   VCA    =   1.00  1.00
   NELECT =      60.0000    total number of electrons
   NUPDOWN=      -1.0000    fix difference up-down

 DOS related values:
   EMIN   =  10.00;   EMAX   =-10.00  energy-range for DOS
   EFERMI =   0.00;   METHOD = LEGACY      
   ISMEAR =     1;   SIGMA  =   0.10  broadening in eV -4-tet -1-fermi 0-gaus
   EFERMI_NEDOS =   21; number of points for ismear=-14 and -15

 Electronic relaxation 2 (details)
   IALGO  =     38    algorithm
   LDIAG  =      T    sub-space diagonalisation (order eigenvalues)
   LSUBROT=      F    optimize rotation matrix (better conditioning)
   TURBO    =      0    0=normal 1=particle mesh
   IRESTART =      0    0=no restart 2=restart with 2 vectors
   NREBOOT  =      0    no. of reboots
   NMIN     =      0    reboot dimension
   EREF     =   0.00    reference energy to select bands
   IMIX   =      4    mixing-type and parameters
     AMIX     =   0.40;   BMIX     =  1.00
     AMIX_MAG =   1.60;   BMIX_MAG =  1.00
     AMIN     =   0.10
     WC   =   100.;   INIMIX=   1;  MIXPRE=   1;  MAXMIX= -45

 Intra band minimization:
   WEIMIN = 0.0000     energy-eigenvalue tresh-hold
   EBREAK =  0.39E-07  absolut break condition
   DEPER  =   0.30     relativ break condition  

   TIME   =   0.40     timestep for ELM

  volume/ion in A,a.u.               =      35.75       241.26
  Fermi-wavevector in a.u.,A,eV,Ry     =   0.972751  1.838234 12.874450  0.946245
  Thomas-Fermi vector in A             =   2.103075
 
 Write flags
   LWAVE        =      T    write WAVECAR
   LDOWNSAMPLE  =      F    k-point downsampling of WAVECAR
   LCHARG       =      T    write CHGCAR
   LVTOT        =      F    write LOCPOT, total local potential
   LVHAR        =      T    write LOCPOT, Hartree potential only
   WRT_POTENTIAL=  hartree ionic  ! write potential to hdf5 file
   LELF         =      F    write electronic localiz. function (ELF)
   LORBIT       =      0    0 simple, 1 ext, 2 COOP (PROOUT), +10 PAW based schemes


 Python interface
   PLUGINS active      =      F    recompile with -DPLUGINS to activate
 
 Dipole corrections
   LMONO      =      F    monopole corrections only (constant potential shift)
   LDIPOL     =      F    correct potential (dipole corrections)
   IDIPOL     =      0    1-x, 2-y, 3-z, 4-all directions 
   EPSILON    =  1.0000000 bulk dielectric constant
   LVACPOTAV  =      F  vacuum potentials using an averaging scheme for the charge density
   VACPOTFLAT =  0.1000000 required flatness to determine vacuum potential
 
Coulomb truncation method
  LTRUNCATE          =      F  Coulomb kernel truncation to be used
  IDIMENSIONALITY    =      3  Dimensionality of cutoff (0 molecules / 2 surfaces)
  ISURFACE           =     -1  Direction of surface normal
  LCOARSEN           =      F  Coarsen the charge grid before padding, preferred

 
 Exchange correlation treatment:
   GGA     = PE    functional components
   XC_C    = 1    coefficients multiplying the functional components
   LIBXC   =     F    Libxc                    
   VOSKOWN =     0    Vosko Wilk Nusair interpolation
   LHFCALC =     F    Hartree Fock is set to
   LHFONE  =     F    Hartree Fock one center treatment
   AEXX    =    0.0000 exact exchange contribution

 Parameters of functionals:
   PE:
     No parameter
 
 Van der Waals corrections
   IVDW    =     0    specifies the selected vdW correction

 Linear response parameters
   LEPSILON=     F    determine dielectric tensor
   LRPA    =     F    only Hartree local field effects (RPA)
   LNABLA  =     F    use nabla operator in PAW spheres
   LVEL    =     F    velocity operator in full k-point grid
   CSHIFT  =0.1000    complex shift for real part using Kramers Kronig
   OMEGAMAX=  -1.0    maximum frequency
   DEG_THRESHOLD= 0.2000000E-02 threshold for treating states as degnerate
   RTIME   =   -0.100 relaxation time in fs
  (WPLASMAI=    0.000 imaginary part of plasma frequency in eV, 0.658/RTIME)
   DFIELD  = 0.0000000 0.0000000 0.0000000 field for delta impulse in time
 
  Optional k-point grid parameters
   LKPOINTS_OPT  =     F    use optional k-point grid
   KPOINTS_OPT_MODE=     1    mode for optional k-point grid
 
 Orbital magnetization related:
   ORBITALMAG=     F  switch on orbital magnetization
   LCHIMAG   =     F  perturbation theory with respect to B field
   DQ        =  0.001000  dq finite difference perturbation B field
   LLRAUG    =     F  two centre corrections for induced B field
   LBONE     =     F  B-component reconstruction in AE one-centre
   LVGVCALC  =     T  calculate vGv susceptibility
   LVGVAPPL  =     F  apply vGv susceptibility instead of pGv for G=0

 Random number generation:
   RANDOM_GENERATOR = DEFAULT
   PCG_SEED         = not used


--------------------------------------------------------------------------------------------------------


 Static calculation
 charge density and potential will be updated during run
 non-spin polarized calculation
 Variant of blocked Davidson
 Davidson routine will perform the subspace rotation
 perform sub-space diagonalisation
    after iterative eigenvector-optimisation
 modified Broyden-mixing scheme, WC =      100.0
 initial mixing is a Kerker type mixing with AMIX =  0.4000 and BMIX =      1.0000
 Hartree-type preconditioning will be used
 using additional bands           34
 reciprocal scheme for non local part
 use partial core corrections
 calculate Harris-corrections to forces 
   (improved forces if not selfconsistent)
 use gradient corrections 
 use of overlap-Matrix (Vanderbilt PP)
 Methfessel and Paxton  Order N= 1 SIGMA  =   0.10


--------------------------------------------------------------------------------------------------------


  energy-cutoff  :      520.00
  volume of cell :      286.00
      direct lattice vectors                 reciprocal lattice vectors
     2.823800087  0.000000000  0.000000000     0.354132718  0.000000000  0.000000000
     0.000000000  4.070300102  0.000000000     0.000000000  0.245682130  0.000000000
     0.000000000  0.000000000 24.883399963     0.000000000  0.000000000  0.040187434

  length of vectors
     2.823800087  4.070300102 24.883399963     0.354132718  0.245682130  0.040187434


 
 k-points in units of 2pi/SCALE and weight: K-Spacing Value to Generate K-Mesh: 0.04
   0.00000000  0.00000000  0.00000000       0.019
   0.03934808  0.00000000  0.00000000       0.037
   0.07869616  0.00000000  0.00000000       0.037
   0.11804424  0.00000000  0.00000000       0.037
   0.15739232  0.00000000  0.00000000       0.037
   0.00000000  0.04094702  0.00000000       0.037
   0.03934808  0.04094702  0.00000000       0.074
   0.07869616  0.04094702  0.00000000       0.074
   0.11804424  0.04094702  0.00000000       0.074
   0.15739232  0.04094702  0.00000000       0.074
   0.00000000  0.08189404  0.00000000       0.037
   0.03934808  0.08189404  0.00000000       0.074
   0.07869616  0.08189404  0.00000000       0.074
   0.11804424  0.08189404  0.00000000       0.074
   0.15739232  0.08189404  0.00000000       0.074
   0.00000000  0.12284107  0.00000000       0.019
   0.03934808  0.12284107  0.00000000       0.037
   0.07869616  0.12284107  0.00000000       0.037
   0.11804424  0.12284107  0.00000000       0.037
   0.15739232  0.12284107  0.00000000       0.037
 
 k-points in reciprocal lattice and weights: K-Spacing Value to Generate K-Mesh: 0.04
   0.00000000  0.00000000  0.00000000       0.019
   0.11111111  0.00000000  0.00000000       0.037
   0.22222222  0.00000000  0.00000000       0.037
   0.33333333  0.00000000  0.00000000       0.037
   0.44444444  0.00000000  0.00000000       0.037
   0.00000000  0.16666667  0.00000000       0.037
   0.11111111  0.16666667  0.00000000       0.074
   0.22222222  0.16666667  0.00000000       0.074
   0.33333333  0.16666667  0.00000000       0.074
   0.44444444  0.16666667  0.00000000       0.074
   0.00000000  0.33333333  0.00000000       0.037
   0.11111111  0.33333333  0.00000000       0.074
   0.22222222  0.33333333  0.00000000       0.074
   0.33333333  0.33333333  0.00000000       0.074
   0.44444444  0.33333333  0.00000000       0.074
   0.00000000  0.50000000  0.00000000       0.019
   0.11111111  0.50000000  0.00000000       0.037
   0.22222222  0.50000000  0.00000000       0.037
   0.33333333  0.50000000  0.00000000       0.037
   0.44444444  0.50000000  0.00000000       0.037
 
 position of ions in fractional coordinates (direct lattice) 
   0.00000000  0.00000000  0.33805001
   0.00000000  0.00000000  0.45153999
   0.00000000  0.00000000  0.56502003
   0.00000000  0.00000000  0.67850000
   0.50000000  0.50000000  0.28130999
   0.50000000  0.50000000  0.39478999
   0.50000000  0.50000000  0.50827998
   0.50000000  0.50000000  0.62176001
 
 position of ions in cartesian coordinates  (Angst):
   0.00000000  0.00000000  8.41183356
   0.00000000  0.00000000 11.23585025
   0.00000000  0.00000000 14.05961927
   0.00000000  0.00000000 16.88338680
   1.41190004  2.03515005  6.99994904
   1.41190004  2.03515005  9.82371732
   1.41190004  2.03515005 12.64773401
   1.41190004  2.03515005 15.47150303
 


--------------------------------------------------------------------------------------------------------


 k-point     1 :   0.0000 0.0000 0.0000  plane waves:    7697
 k-point     2 :   0.1111 0.0000 0.0000  plane waves:    7725
 k-point     3 :   0.2222 0.0000 0.0000  plane waves:    7709
 k-point     4 :   0.3333 0.0000 0.0000  plane waves:    7738
 k-point     5 :   0.4444 0.0000 0.0000  plane waves:    7722
 k-point     6 :   0.0000 0.1667 0.0000  plane waves:    7723
 k-point     7 :   0.1111 0.1667 0.0000  plane waves:    7695
 k-point     8 :   0.2222 0.1667 0.0000  plane waves:    7695
 k-point     9 :   0.3333 0.1667 0.0000  plane waves:    7713
 k-point    10 :   0.4444 0.1667 0.0000  plane waves:    7719
 k-point    11 :   0.0000 0.3333 0.0000  plane waves:    7709
 k-point    12 :   0.1111 0.3333 0.0000  plane waves:    7719
 k-point    13 :   0.2222 0.3333 0.0000  plane waves:    7685
 k-point    14 :   0.3333 0.3333 0.0000  plane waves:    7677
 k-point    15 :   0.4444 0.3333 0.0000  plane waves:    7694
 k-point    16 :   0.0000 0.5000 0.0000  plane waves:    7668
 k-point    17 :   0.1111 0.5000 0.0000  plane waves:    7722
 k-point    18 :   0.2222 0.5000 0.0000  plane waves:    7642
 k-point    19 :   0.3333 0.5000 0.0000  plane waves:    7648
 k-point    20 :   0.4444 0.5000 0.0000  plane waves:    7704

 maximum and minimum number of plane-waves per node :      7738     7642

 maximum number of plane-waves:      7738
 maximum index in each direction: 
   IXMAX=    5   IYMAX=    7   IZMAX=   46
   IXMIN=   -5   IYMIN=   -8   IZMIN=  -46


 serial   3D FFT for wavefunctions
 parallel 3D FFT for charge:
    minimum data exchange during FFTs selected (reduces bandwidth)


 total amount of memory used by VASP MPI-rank0    81788. kBytes
=======================================================================

   base                                    :      30000. kBytes
   nonl-proj                               :      45596. kBytes
   fftplans                                :        636. kBytes
   grid                                    :       2913. kBytes
   one-center                              :        124. kBytes
   wavefun                                 :       2519. kBytes
 
     INWAV:  cpu time      0.0000: real time      0.0000
 Broyden mixing: mesh for mixing (old mesh)
   NGX = 11   NGY = 15   NGZ = 93
  (NGX  = 32   NGY  = 48   NGZ  =280)
  gives a total of  15345 points

 initial charge density was supplied:
 charge density of overlapping atoms calculated
 number of electron      60.0000000 magnetization 
 keeping initial charge density in first step


--------------------------------------------------------------------------------------------------------


 Maximum index for augmentation-charges          454 (set IRDMAX)


--------------------------------------------------------------------------------------------------------


 First call to EWALD:  gamma=   0.269
 Maximum number of real-space cells   6x   4x   1
 Maximum number of reciprocal cells   1x   2x   9

    FEWALD:  cpu time      0.0010: real time      0.0010


--------------------------------------- Ionic step        1  -------------------------------------------




--------------------------------------- Iteration      1(   1)  ---------------------------------------


    POTLOK:  cpu time      0.0118: real time      0.0119
    SETDIJ:  cpu time      0.0016: real time      0.0016
     EDDAV:  cpu time      1.0507: real time      1.0510
       DOS:  cpu time      0.0005: real time      0.0005
    --------------------------------------------
      LOOP:  cpu time      1.0646: real time      1.0650

 eigenvalue-minimisations  :  2560
 total energy-change (2. order) : 0.1898735E+03  (-0.3531452E+04)
 number of electron      60.0000000 magnetization 
 augmentation part       60.0000000 magnetization 

 Free energy of the ion-electron system (eV)
  ---------------------------------------------------
  alpha Z        PSCENC =        68.58501286
  Ewald energy   TEWEN  =     13676.75659593
  -Hartree energ DENC   =    -19492.05798972
  -exchange      EXHF   =         0.00000000
  -V(xc)+E(xc)   XCENC  =       141.57047788
  PAW double counting   =      5323.06139147    -5116.90369196
  entropy T*S    EENTRO =         0.00537607
  eigenvalues    EBANDS =      -977.63745392
  atomic energy  EATOM  =      6566.49377757
  Solvation  Ediel_sol  =         0.00000000
  ---------------------------------------------------
  free energy    TOTEN  =       189.87349618 eV

  energy without entropy =      189.86812010  energy(sigma->0) =      189.87170415


--------------------------------------------------------------------------------------------------------




--------------------------------------- Iteration      1(   2)  ---------------------------------------


     EDDAV:  cpu time      1.8470: real time      1.8470
       DOS:  cpu time      0.0004: real time      0.0004
    --------------------------------------------
      LOOP:  cpu time      1.8474: real time      1.8474

 eigenvalue-minimisations  :  3584
 total energy-change (2. order) :-0.2345581E+03  (-0.2342847E+03)
 number of electron      60.0000000 magnetization 
 augmentation part       60.0000000 magnetization 

 Free energy of the ion-electron system (eV)
  ---------------------------------------------------
  alpha Z        PSCENC =        68.58501286
  Ewald energy   TEWEN  =     13676.75659593
  -Hartree energ DENC   =    -19492.05798972
  -exchange      EXHF   =         0.00000000
  -V(xc)+E(xc)   XCENC  =       141.57047788
  PAW double counting   =      5323.06139147    -5116.90369196
  entropy T*S    EENTRO =        -0.00401094
  eigenvalues    EBANDS =     -1212.18617124
  atomic energy  EATOM  =      6566.49377757
  Solvation  Ediel_sol  =         0.00000000
  ---------------------------------------------------
  free energy    TOTEN  =       -44.68460816 eV

  energy without entropy =      -44.68059722  energy(sigma->0) =      -44.68327118


--------------------------------------------------------------------------------------------------------




--------------------------------------- Iteration      1(   3)  ---------------------------------------


     EDDAV:  cpu time      1.7246: real time      1.7247
       DOS:  cpu time      0.0004: real time      0.0004
    --------------------------------------------
      LOOP:  cpu time      1.7250: real time      1.7250

 eigenvalue-minimisations  :  3264
 total energy-change (2. order) :-0.1046679E+02  (-0.1045455E+02)
 number of electron      60.0000000 magnetization 
 augmentation part       60.0000000 magnetization 

 Free energy of the ion-electron system (eV)
  ---------------------------------------------------
  alpha Z        PSCENC =        68.58501286
  Ewald energy   TEWEN  =     13676.75659593
  -Hartree energ DENC   =    -19492.05798972
  -exchange      EXHF   =         0.00000000
  -V(xc)+E(xc)   XCENC  =       141.57047788
  PAW double counting   =      5323.06139147    -5116.90369196
  entropy T*S    EENTRO =        -0.00357437
  eigenvalues    EBANDS =     -1222.65339667
  atomic energy  EATOM  =      6566.49377757
  Solvation  Ediel_sol  =         0.00000000
  ---------------------------------------------------
  free energy    TOTEN  =       -55.15139701 eV

  energy without entropy =      -55.14782265  energy(sigma->0) =      -55.15020556


--------------------------------------------------------------------------------------------------------




--------------------------------------- Iteration      1(   4)  ---------------------------------------


     EDDAV:  cpu time      2.9307: real time      2.9308
       DOS:  cpu time      0.0007: real time      0.0007
    --------------------------------------------
      LOOP:  cpu time      2.9314: real time      2.9315

 eigenvalue-minimisations  :  4480
 total energy-change (2. order) :-0.5766922E+00  (-0.5756444E+00)
 number of electron      60.0000000 magnetization 
 augmentation part       60.0000000 magnetization 

 Free energy of the ion-electron system (eV)
  ---------------------------------------------------
  alpha Z        PSCENC =        68.58501286
  Ewald energy   TEWEN  =     13676.75659593
  -Hartree energ DENC   =    -19492.05798972
  -exchange      EXHF   =         0.00000000
  -V(xc)+E(xc)   XCENC  =       141.57047788
  PAW double counting   =      5323.06139147    -5116.90369196
  entropy T*S    EENTRO =        -0.00334551
  eigenvalues    EBANDS =     -1223.23031773
  atomic energy  EATOM  =      6566.49377757
  Solvation  Ediel_sol  =         0.00000000
  ---------------------------------------------------
  free energy    TOTEN  =       -55.72808922 eV

  energy without entropy =      -55.72474371  energy(sigma->0) =      -55.72697405


--------------------------------------------------------------------------------------------------------




--------------------------------------- Iteration      1(   5)  ---------------------------------------


     EDDAV:  cpu time      1.7706: real time      1.7707
       DOS:  cpu time      0.0003: real time      0.0003
    CHARGE:  cpu time      0.0165: real time      0.0165
    MIXING:  cpu time      0.0003: real time      0.0003
    --------------------------------------------
      LOOP:  cpu time      1.7878: real time      1.7879

 eigenvalue-minimisations  :  3328
 total energy-change (2. order) :-0.2800398E-02  (-0.2800276E-02)
 number of electron      59.9999990 magnetization 
 augmentation part       13.5364142 magnetization 

 Broyden mixing:
  rms(total) = 0.19505E+01    rms(broyden)= 0.19505E+01
  rms(prec ) = 0.22622E+01
  weight for this iteration     100.00

 Free energy of the ion-electron system (eV)
  ---------------------------------------------------
  alpha Z        PSCENC =        68.58501286
  Ewald energy   TEWEN  =     13676.75659593
  -Hartree energ DENC   =    -19492.05798972
  -exchange      EXHF   =         0.00000000
  -V(xc)+E(xc)   XCENC  =       141.57047788
  PAW double counting   =      5323.06139147    -5116.90369196
  entropy T*S    EENTRO =        -0.00336614
  eigenvalues    EBANDS =     -1223.23309750
  atomic energy  EATOM  =      6566.49377757
  Solvation  Ediel_sol  =         0.00000000
  ---------------------------------------------------
  free energy    TOTEN  =       -55.73088962 eV

  energy without entropy =      -55.72752348  energy(sigma->0) =      -55.72976757


--------------------------------------------------------------------------------------------------------




--------------------------------------- Iteration      1(   6)  ---------------------------------------


    POTLOK:  cpu time      0.0092: real time      0.0092
    SETDIJ:  cpu time      0.0013: real time      0.0013
     EDDAV:  cpu time      3.0053: real time      3.0053
       DOS:  cpu time      0.0006: real time      0.0006
    CHARGE:  cpu time      0.0196: real time      0.0196
    MIXING:  cpu time      0.0009: real time      0.0009
    --------------------------------------------
      LOOP:  cpu time      3.0369: real time      3.0370

 eigenvalue-minimisations  :  4672
 total energy-change (2. order) :-0.4038838E+02  (-0.6671559E+02)
 number of electron      59.9999973 magnetization 
 augmentation part       16.9377235 magnetization 

 Broyden mixing:
  rms(total) = 0.47730E+01    rms(broyden)= 0.47729E+01
  rms(prec ) = 0.76142E+01
  weight for this iteration     100.00

 eigenvalues of (default mixing * dielectric matrix)
  average eigenvalue GAMMA=   0.2337
  0.2337

 Free energy of the ion-electron system (eV)
  ---------------------------------------------------
  alpha Z        PSCENC =        68.58501286
  Ewald energy   TEWEN  =     13676.75659593
  -Hartree energ DENC   =    -19456.30478793
  -exchange      EXHF   =         0.00000000
  -V(xc)+E(xc)   XCENC  =       136.07549807
  PAW double counting   =      5724.13149491    -5518.88141572
  entropy T*S    EENTRO =         0.00293767
  eigenvalues    EBANDS =     -1292.97838788
  atomic energy  EATOM  =      6566.49377757
  Solvation  Ediel_sol  =         0.00000000
  ---------------------------------------------------
  free energy    TOTEN  =       -96.11927453 eV

  energy without entropy =      -96.12221220  energy(sigma->0) =      -96.12025376


--------------------------------------------------------------------------------------------------------




--------------------------------------- Iteration      1(   7)  ---------------------------------------


    POTLOK:  cpu time      0.0129: real time      0.0129
    SETDIJ:  cpu time      0.0013: real time      0.0013
     EDDAV:  cpu time      3.0154: real time      3.0155
       DOS:  cpu time      0.0006: real time      0.0006
    CHARGE:  cpu time      0.0197: real time      0.0197
    MIXING:  cpu time      0.0008: real time      0.0008
    --------------------------------------------
      LOOP:  cpu time      3.0507: real time      3.0508

 eigenvalue-minimisations  :  4672
 total energy-change (2. order) : 0.3372347E+02  (-0.7646719E+02)
 number of electron      60.0000005 magnetization 
 augmentation part       16.2341524 magnetization 

 Broyden mixing:
  rms(total) = 0.31216E+01    rms(broyden)= 0.31215E+01
  rms(prec ) = 0.52087E+01
  weight for this iteration     100.00

 eigenvalues of (default mixing * dielectric matrix)
  average eigenvalue GAMMA=   0.2845
  0.4540  0.1149

 Free energy of the ion-electron system (eV)
  ---------------------------------------------------
  alpha Z        PSCENC =        68.58501286
  Ewald energy   TEWEN  =     13676.75659593
  -Hartree energ DENC   =    -19444.53090687
  -exchange      EXHF   =         0.00000000
  -V(xc)+E(xc)   XCENC  =       137.12931098
  PAW double counting   =      5788.59830085    -5582.05164006
  entropy T*S    EENTRO =        -0.00036335
  eigenvalues    EBANDS =     -1273.37589243
  atomic energy  EATOM  =      6566.49377757
  Solvation  Ediel_sol  =         0.00000000
  ---------------------------------------------------
  free energy    TOTEN  =       -62.39580452 eV

  energy without entropy =      -62.39544117  energy(sigma->0) =      -62.39568340


--------------------------------------------------------------------------------------------------------




--------------------------------------- Iteration      1(   8)  ---------------------------------------


    POTLOK:  cpu time      0.0121: real time      0.0121
    SETDIJ:  cpu time      0.0013: real time      0.0013
     EDDAV:  cpu time      3.3321: real time      3.3322
       DOS:  cpu time      0.0007: real time      0.0007
    CHARGE:  cpu time      0.0199: real time      0.0199
    MIXING:  cpu time      0.0008: real time      0.0008
    --------------------------------------------
      LOOP:  cpu time      3.3668: real time      3.3670

 eigenvalue-minimisations  :  4928
 total energy-change (2. order) : 0.8354286E+01  (-0.3394663E+02)
 number of electron      59.9999990 magnetization 
 augmentation part       15.2917432 magnetization 

 Broyden mixing:
  rms(total) = 0.20109E+01    rms(broyden)= 0.20108E+01
  rms(prec ) = 0.27472E+01
  weight for this iteration     100.00

 eigenvalues of (default mixing * dielectric matrix)
  average eigenvalue GAMMA=   0.3432
  0.7252  0.2017  0.1025

 Free energy of the ion-electron system (eV)
  ---------------------------------------------------
  alpha Z        PSCENC =        68.58501286
  Ewald energy   TEWEN  =     13676.75659593
  -Hartree energ DENC   =    -19450.57426885
  -exchange      EXHF   =         0.00000000
  -V(xc)+E(xc)   XCENC  =       138.35412274
  PAW double counting   =      5893.12500296    -5685.05043475
  entropy T*S    EENTRO =         0.00324927
  eigenvalues    EBANDS =     -1261.73457594
  atomic energy  EATOM  =      6566.49377757
  Solvation  Ediel_sol  =         0.00000000
  ---------------------------------------------------
  free energy    TOTEN  =       -54.04151821 eV

  energy without entropy =      -54.04476748  energy(sigma->0) =      -54.04260130


--------------------------------------------------------------------------------------------------------




--------------------------------------- Iteration      1(   9)  ---------------------------------------


    POTLOK:  cpu time      0.0124: real time      0.0124
    SETDIJ:  cpu time      0.0013: real time      0.0013
     EDDAV:  cpu time      3.2538: real time      3.2541
       DOS:  cpu time      0.0004: real time      0.0004
    CHARGE:  cpu time      0.0172: real time      0.0172
    MIXING:  cpu time      0.0003: real time      0.0003
    --------------------------------------------
      LOOP:  cpu time      3.2854: real time      3.2857

 eigenvalue-minimisations  :  4864
 total energy-change (2. order) : 0.5851619E+01  (-0.7842059E+01)
 number of electron      59.9999985 magnetization 
 augmentation part       14.1597287 magnetization 

 Broyden mixing:
  rms(total) = 0.80456E+00    rms(broyden)= 0.80451E+00
  rms(prec ) = 0.88547E+00
  weight for this iteration     100.00

 eigenvalues of (default mixing * dielectric matrix)
  average eigenvalue GAMMA=   0.4501
  1.1668  0.3309  0.2017  0.1011

 Free energy of the ion-electron system (eV)
  ---------------------------------------------------
  alpha Z        PSCENC =        68.58501286
  Ewald energy   TEWEN  =     13676.75659593
  -Hartree energ DENC   =    -19512.02403077
  -exchange      EXHF   =         0.00000000
  -V(xc)+E(xc)   XCENC  =       139.17410785
  PAW double counting   =      6031.95885532    -5821.95142187
  entropy T*S    EENTRO =        -0.00316430
  eigenvalues    EBANDS =     -1197.17963177
  atomic energy  EATOM  =      6566.49377757
  Solvation  Ediel_sol  =         0.00000000
  ---------------------------------------------------
  free energy    TOTEN  =       -48.18989917 eV

  energy without entropy =      -48.18673488  energy(sigma->0) =      -48.18884441


--------------------------------------------------------------------------------------------------------




--------------------------------------- Iteration      1(  10)  ---------------------------------------


    POTLOK:  cpu time      0.0105: real time      0.0105
    SETDIJ:  cpu time      0.0013: real time      0.0013
     EDDAV:  cpu time      2.4519: real time      2.4520
       DOS:  cpu time      0.0004: real time      0.0004
    CHARGE:  cpu time      0.0179: real time      0.0179
    MIXING:  cpu time      0.0008: real time      0.0008
    --------------------------------------------
      LOOP:  cpu time      2.4828: real time      2.4829

 eigenvalue-minimisations  :  4160
 total energy-change (2. order) : 0.9153451E+00  (-0.7470451E+00)
 number of electron      59.9999980 magnetization 
 augmentation part       14.4411907 magnetization 

 Broyden mixing:
  rms(total) = 0.55518E+00    rms(broyden)= 0.55516E+00
  rms(prec ) = 0.64185E+00
  weight for this iteration     100.00

 eigenvalues of (default mixing * dielectric matrix)
  average eigenvalue GAMMA=   0.5152
  1.5330  0.3802  0.3802  0.1006  0.1823

 Free energy of the ion-electron system (eV)
  ---------------------------------------------------
  alpha Z        PSCENC =        68.58501286
  Ewald energy   TEWEN  =     13676.75659593
  -Hartree energ DENC   =    -19491.17134733
  -exchange      EXHF   =         0.00000000
  -V(xc)+E(xc)   XCENC  =       138.53683723
  PAW double counting   =      6164.08370125    -5952.60747124
  entropy T*S    EENTRO =        -0.00030832
  eigenvalues    EBANDS =     -1217.95135200
  atomic energy  EATOM  =      6566.49377757
  Solvation  Ediel_sol  =         0.00000000
  ---------------------------------------------------
  free energy    TOTEN  =       -47.27455405 eV

  energy without entropy =      -47.27424573  energy(sigma->0) =      -47.27445128


--------------------------------------------------------------------------------------------------------




--------------------------------------- Iteration      1(  11)  ---------------------------------------


    POTLOK:  cpu time      0.0123: real time      0.0123
    SETDIJ:  cpu time      0.0013: real time      0.0013
     EDDAV:  cpu time      2.8029: real time      2.8030
       DOS:  cpu time      0.0006: real time      0.0006
    CHARGE:  cpu time      0.0197: real time      0.0197
    MIXING:  cpu time      0.0009: real time      0.0009
    --------------------------------------------
      LOOP:  cpu time      2.8378: real time      2.8379

 eigenvalue-minimisations  :  4480
 total energy-change (2. order) : 0.2814241E+00  (-0.4147923E+00)
 number of electron      59.9999984 magnetization 
 augmentation part       14.5851659 magnetization 

 Broyden mixing:
  rms(total) = 0.45198E+00    rms(broyden)= 0.45196E+00
  rms(prec ) = 0.53843E+00
  weight for this iteration     100.00

 eigenvalues of (default mixing * dielectric matrix)
  average eigenvalue GAMMA=   0.6095
  1.8651  0.8490  0.4338  0.1006  0.1934  0.2148

 Free energy of the ion-electron system (eV)
  ---------------------------------------------------
  alpha Z        PSCENC =        68.58501286
  Ewald energy   TEWEN  =     13676.75659593
  -Hartree energ DENC   =    -19482.19949045
  -exchange      EXHF   =         0.00000000
  -V(xc)+E(xc)   XCENC  =       138.18772567
  PAW double counting   =      6249.37077330    -6036.71844840
  entropy T*S    EENTRO =         0.00452451
  eigenvalues    EBANDS =     -1227.47360098
  atomic energy  EATOM  =      6566.49377757
  Solvation  Ediel_sol  =         0.00000000
  ---------------------------------------------------
  free energy    TOTEN  =       -46.99312999 eV

  energy without entropy =      -46.99765450  energy(sigma->0) =      -46.99463816


--------------------------------------------------------------------------------------------------------




--------------------------------------- Iteration      1(  12)  ---------------------------------------


    POTLOK:  cpu time      0.0124: real time      0.0124
    SETDIJ:  cpu time      0.0013: real time      0.0013
     EDDAV:  cpu time      2.5458: real time      2.5459
       DOS:  cpu time      0.0007: real time      0.0006
    CHARGE:  cpu time      0.0195: real time      0.0195
    MIXING:  cpu time      0.0009: real time      0.0009
    --------------------------------------------
      LOOP:  cpu time      2.5806: real time      2.5806

 eigenvalue-minimisations  :  4288
 total energy-change (2. order) : 0.3560061E+00  (-0.3010540E+00)
 number of electron      59.9999980 magnetization 
 augmentation part       14.7393559 magnetization 

 Broyden mixing:
  rms(total) = 0.14281E+00    rms(broyden)= 0.14278E+00
  rms(prec ) = 0.16701E+00
  weight for this iteration     100.00

 eigenvalues of (default mixing * dielectric matrix)
  average eigenvalue GAMMA=   0.7090
  1.6523  1.6523  0.7159  0.4406  0.1007  0.2008  0.2008

 Free energy of the ion-electron system (eV)
  ---------------------------------------------------
  alpha Z        PSCENC =        68.58501286
  Ewald energy   TEWEN  =     13676.75659593
  -Hartree energ DENC   =    -19487.06517047
  -exchange      EXHF   =         0.00000000
  -V(xc)+E(xc)   XCENC  =       137.80123114
  PAW double counting   =      6410.94871558    -6195.28995669
  entropy T*S    EENTRO =         0.00638451
  eigenvalues    EBANDS =     -1224.87371428
  atomic energy  EATOM  =      6566.49377757
  Solvation  Ediel_sol  =         0.00000000
  ---------------------------------------------------
  free energy    TOTEN  =       -46.63712385 eV

  energy without entropy =      -46.64350837  energy(sigma->0) =      -46.63925202


--------------------------------------------------------------------------------------------------------




--------------------------------------- Iteration      1(  13)  ---------------------------------------


    POTLOK:  cpu time      0.0122: real time      0.0122
    SETDIJ:  cpu time      0.0013: real time      0.0013
     EDDAV:  cpu time      2.6766: real time      2.6767
       DOS:  cpu time      0.0007: real time      0.0007
    CHARGE:  cpu time      0.0200: real time      0.0200
    MIXING:  cpu time      0.0009: real time      0.0009
    --------------------------------------------
      LOOP:  cpu time      2.7117: real time      2.7118

 eigenvalue-minimisations  :  4352
 total energy-change (2. order) : 0.1606081E-01  (-0.2488804E-01)
 number of electron      59.9999982 magnetization 
 augmentation part       14.7305915 magnetization 

 Broyden mixing:
  rms(total) = 0.84147E-01    rms(broyden)= 0.84146E-01
  rms(prec ) = 0.10940E+00
  weight for this iteration     100.00

 eigenvalues of (default mixing * dielectric matrix)
  average eigenvalue GAMMA=   0.8513
  2.0783  2.0783  1.0549  0.6564  0.4401  0.1007  0.2008  0.2008

 Free energy of the ion-electron system (eV)
  ---------------------------------------------------
  alpha Z        PSCENC =        68.58501286
  Ewald energy   TEWEN  =     13676.75659593
  -Hartree energ DENC   =    -19491.28258725
  -exchange      EXHF   =         0.00000000
  -V(xc)+E(xc)   XCENC  =       137.86604980
  PAW double counting   =      6431.27453471    -6213.60815251
  entropy T*S    EENTRO =         0.00591949
  eigenvalues    EBANDS =     -1222.71221364
  atomic energy  EATOM  =      6566.49377757
  Solvation  Ediel_sol  =         0.00000000
  ---------------------------------------------------
  free energy    TOTEN  =       -46.62106304 eV

  energy without entropy =      -46.62698253  energy(sigma->0) =      -46.62303620


--------------------------------------------------------------------------------------------------------




--------------------------------------- Iteration      1(  14)  ---------------------------------------


    POTLOK:  cpu time      0.0127: real time      0.0127
    SETDIJ:  cpu time      0.0013: real time      0.0013
     EDDAV:  cpu time      2.7746: real time      2.7747
       DOS:  cpu time      0.0004: real time      0.0004
    CHARGE:  cpu time      0.0198: real time      0.0198
    MIXING:  cpu time      0.0010: real time      0.0010
    --------------------------------------------
      LOOP:  cpu time      2.8097: real time      2.8098

 eigenvalue-minimisations  :  4480
 total energy-change (2. order) : 0.2798189E-02  (-0.1790424E-01)
 number of electron      59.9999981 magnetization 
 augmentation part       14.7175532 magnetization 

 Broyden mixing:
  rms(total) = 0.68311E-01    rms(broyden)= 0.68307E-01
  rms(prec ) = 0.10251E+00
  weight for this iteration     100.00

 eigenvalues of (default mixing * dielectric matrix)
  average eigenvalue GAMMA=   0.8788
  2.2365  2.2365  1.1254  0.7830  0.5793  0.4459  0.1007  0.2008  0.2008

 Free energy of the ion-electron system (eV)
  ---------------------------------------------------
  alpha Z        PSCENC =        68.58501286
  Ewald energy   TEWEN  =     13676.75659593
  -Hartree energ DENC   =    -19498.95353232
  -exchange      EXHF   =         0.00000000
  -V(xc)+E(xc)   XCENC  =       137.92329275
  PAW double counting   =      6448.01240725    -6228.73976946
  entropy T*S    EENTRO =         0.00420894
  eigenvalues    EBANDS =     -1216.70025836
  atomic energy  EATOM  =      6566.49377757
  Solvation  Ediel_sol  =         0.00000000
  ---------------------------------------------------
  free energy    TOTEN  =       -46.61826485 eV

  energy without entropy =      -46.62247379  energy(sigma->0) =      -46.61966783


--------------------------------------------------------------------------------------------------------




--------------------------------------- Iteration      1(  15)  ---------------------------------------


    POTLOK:  cpu time      0.0128: real time      0.0128
    SETDIJ:  cpu time      0.0013: real time      0.0013
     EDDAV:  cpu time      2.5868: real time      2.5869
       DOS:  cpu time      0.0004: real time      0.0022
    CHARGE:  cpu time      0.0166: real time      0.0166
    MIXING:  cpu time      0.0004: real time      0.0004
    --------------------------------------------
      LOOP:  cpu time      2.6182: real time      2.6202

 eigenvalue-minimisations  :  4224
 total energy-change (2. order) : 0.3521172E-02  (-0.8167750E-02)
 number of electron      59.9999982 magnetization 
 augmentation part       14.7214985 magnetization 

 Broyden mixing:
  rms(total) = 0.27931E-01    rms(broyden)= 0.27927E-01
  rms(prec ) = 0.48689E-01
  weight for this iteration     100.00

 eigenvalues of (default mixing * dielectric matrix)
  average eigenvalue GAMMA=   0.9176
  2.3519  2.3519  1.3710  0.9247  0.7162  0.5119  0.4458  0.1007  0.2008  0.2008

 Free energy of the ion-electron system (eV)
  ---------------------------------------------------
  alpha Z        PSCENC =        68.58501286
  Ewald energy   TEWEN  =     13676.75659593
  -Hartree energ DENC   =    -19500.28160966
  -exchange      EXHF   =         0.00000000
  -V(xc)+E(xc)   XCENC  =       137.95656596
  PAW double counting   =      6442.21748241    -6222.50189776
  entropy T*S    EENTRO =         0.00672527
  eigenvalues    EBANDS =     -1215.84739626
  atomic energy  EATOM  =      6566.49377757
  Solvation  Ediel_sol  =         0.00000000
  ---------------------------------------------------
  free energy    TOTEN  =       -46.61474368 eV

  energy without entropy =      -46.62146895  energy(sigma->0) =      -46.61698544


--------------------------------------------------------------------------------------------------------




--------------------------------------- Iteration      1(  16)  ---------------------------------------


    POTLOK:  cpu time      0.0107: real time      0.0107
    SETDIJ:  cpu time      0.0013: real time      0.0013
     EDDAV:  cpu time      2.9305: real time      2.9307
       DOS:  cpu time      0.0007: real time      0.0007
    CHARGE:  cpu time      0.0200: real time      0.0200
    MIXING:  cpu time      0.0009: real time      0.0009
    --------------------------------------------
      LOOP:  cpu time      2.9641: real time      2.9643

 eigenvalue-minimisations  :  4608
 total energy-change (2. order) : 0.1203092E-02  (-0.1255598E-02)
 number of electron      59.9999981 magnetization 
 augmentation part       14.7067706 magnetization 

 Broyden mixing:
  rms(total) = 0.95916E-02    rms(broyden)= 0.95901E-02
  rms(prec ) = 0.13090E-01
  weight for this iteration     100.00

 eigenvalues of (default mixing * dielectric matrix)
  average eigenvalue GAMMA=   0.9990
  2.5784  2.1241  2.1241  1.1054  0.9572  0.6750  0.1007  0.2008  0.2008  0.4517
  0.4705

 Free energy of the ion-electron system (eV)
  ---------------------------------------------------
  alpha Z        PSCENC =        68.58501286
  Ewald energy   TEWEN  =     13676.75659593
  -Hartree energ DENC   =    -19503.63863682
  -exchange      EXHF   =         0.00000000
  -V(xc)+E(xc)   XCENC  =       138.00013162
  PAW double counting   =      6441.92907841    -6221.82943623
  entropy T*S    EENTRO =         0.00598397
  eigenvalues    EBANDS =     -1212.91604789
  atomic energy  EATOM  =      6566.49377757
  Solvation  Ediel_sol  =         0.00000000
  ---------------------------------------------------
  free energy    TOTEN  =       -46.61354059 eV

  energy without entropy =      -46.61952456  energy(sigma->0) =      -46.61553524


--------------------------------------------------------------------------------------------------------




--------------------------------------- Iteration      1(  17)  ---------------------------------------


    POTLOK:  cpu time      0.0130: real time      0.0130
    SETDIJ:  cpu time      0.0013: real time      0.0013
     EDDAV:  cpu time      2.2968: real time      2.2969
       DOS:  cpu time      0.0007: real time      0.0007
    CHARGE:  cpu time      0.0197: real time      0.0197
    MIXING:  cpu time      0.0010: real time      0.0010
    --------------------------------------------
      LOOP:  cpu time      2.3326: real time      2.3326

 eigenvalue-minimisations  :  3904
 total energy-change (2. order) :-0.3237542E-03  (-0.9409043E-04)
 number of electron      59.9999981 magnetization 
 augmentation part       14.7020871 magnetization 

 Broyden mixing:
  rms(total) = 0.38170E-02    rms(broyden)= 0.38166E-02
  rms(prec ) = 0.59452E-02
  weight for this iteration     100.00

 eigenvalues of (default mixing * dielectric matrix)
  average eigenvalue GAMMA=   1.0786
  2.5524  2.5057  2.5057  1.2750  1.0933  0.9103  0.6749  0.1007  0.2008  0.2008
  0.4509  0.4726

 Free energy of the ion-electron system (eV)
  ---------------------------------------------------
  alpha Z        PSCENC =        68.58501286
  Ewald energy   TEWEN  =     13676.75659593
  -Hartree energ DENC   =    -19505.96136511
  -exchange      EXHF   =         0.00000000
  -V(xc)+E(xc)   XCENC  =       138.02235823
  PAW double counting   =      6440.79381423    -6220.55746460
  entropy T*S    EENTRO =         0.00607354
  eigenvalues    EBANDS =     -1210.75266698
  atomic energy  EATOM  =      6566.49377757
  Solvation  Ediel_sol  =         0.00000000
  ---------------------------------------------------
  free energy    TOTEN  =       -46.61386434 eV

  energy without entropy =      -46.61993788  energy(sigma->0) =      -46.61588885


--------------------------------------------------------------------------------------------------------




--------------------------------------- Iteration      1(  18)  ---------------------------------------


    POTLOK:  cpu time      0.0128: real time      0.0128
    SETDIJ:  cpu time      0.0013: real time      0.0013
     EDDAV:  cpu time      1.9998: real time      2.0000
       DOS:  cpu time      0.0004: real time      0.0004
    CHARGE:  cpu time      0.0200: real time      0.0200
    MIXING:  cpu time      0.0011: real time      0.0011
    --------------------------------------------
      LOOP:  cpu time      2.0353: real time      2.0354

 eigenvalue-minimisations  :  3648
 total energy-change (2. order) :-0.2115951E-03  (-0.4131092E-04)
 number of electron      59.9999981 magnetization 
 augmentation part       14.6996163 magnetization 

 Broyden mixing:
  rms(total) = 0.27846E-02    rms(broyden)= 0.27845E-02
  rms(prec ) = 0.39977E-02
  weight for this iteration     100.00

 eigenvalues of (default mixing * dielectric matrix)
  average eigenvalue GAMMA=   1.1506
  3.1616  2.6958  1.9663  1.9663  1.1455  0.9610  0.9610  0.6741  0.1007  0.2008
  0.2008  0.4507  0.4730

 Free energy of the ion-electron system (eV)
  ---------------------------------------------------
  alpha Z        PSCENC =        68.58501286
  Ewald energy   TEWEN  =     13676.75659593
  -Hartree energ DENC   =    -19507.70065027
  -exchange      EXHF   =         0.00000000
  -V(xc)+E(xc)   XCENC  =       138.03216346
  PAW double counting   =      6439.14474750    -6218.88627343
  entropy T*S    EENTRO =         0.00609833
  eigenvalues    EBANDS =     -1209.04554788
  atomic energy  EATOM  =      6566.49377757
  Solvation  Ediel_sol  =         0.00000000
  ---------------------------------------------------
  free energy    TOTEN  =       -46.61407594 eV

  energy without entropy =      -46.62017427  energy(sigma->0) =      -46.61610871


--------------------------------------------------------------------------------------------------------




--------------------------------------- Iteration      1(  19)  ---------------------------------------


    POTLOK:  cpu time      0.0124: real time      0.0124
    SETDIJ:  cpu time      0.0013: real time      0.0013
     EDDAV:  cpu time      2.0770: real time      2.0771
       DOS:  cpu time      0.0004: real time      0.0004
    CHARGE:  cpu time      0.0170: real time      0.0170
    MIXING:  cpu time      0.0005: real time      0.0005
    --------------------------------------------
      LOOP:  cpu time      2.1085: real time      2.1086

 eigenvalue-minimisations  :  3712
 total energy-change (2. order) :-0.2613567E-04  (-0.1307409E-04)
 number of electron      59.9999981 magnetization 
 augmentation part       14.7002496 magnetization 

 Broyden mixing:
  rms(total) = 0.18290E-02    rms(broyden)= 0.18290E-02
  rms(prec ) = 0.25578E-02
  weight for this iteration     100.00

 eigenvalues of (default mixing * dielectric matrix)
  average eigenvalue GAMMA=   1.2379
  3.3525  3.0620  2.2658  2.2658  1.2005  1.2005  0.9414  0.9414  0.1007  0.2008
  0.2008  0.6753  0.4507  0.4732

 Free energy of the ion-electron system (eV)
  ---------------------------------------------------
  alpha Z        PSCENC =        68.58501286
  Ewald energy   TEWEN  =     13676.75659593
  -Hartree energ DENC   =    -19508.84249182
  -exchange      EXHF   =         0.00000000
  -V(xc)+E(xc)   XCENC  =       138.03343693
  PAW double counting   =      6438.15943208    -6217.88863798
  entropy T*S    EENTRO =         0.00610537
  eigenvalues    EBANDS =     -1207.91733301
  atomic energy  EATOM  =      6566.49377757
  Solvation  Ediel_sol  =         0.00000000
  ---------------------------------------------------
  free energy    TOTEN  =       -46.61410207 eV

  energy without entropy =      -46.62020745  energy(sigma->0) =      -46.61613720


--------------------------------------------------------------------------------------------------------




--------------------------------------- Iteration      1(  20)  ---------------------------------------


    POTLOK:  cpu time      0.0118: real time      0.0118
    SETDIJ:  cpu time      0.0015: real time      0.0015
     EDDAV:  cpu time      1.7145: real time      1.7146
       DOS:  cpu time      0.0004: real time      0.0004
    CHARGE:  cpu time      0.0167: real time      0.0167
    MIXING:  cpu time      0.0005: real time      0.0005
    --------------------------------------------
      LOOP:  cpu time      1.7454: real time      1.7455

 eigenvalue-minimisations  :  3264
 total energy-change (2. order) :-0.1093022E-03  (-0.7990945E-05)
 number of electron      59.9999981 magnetization 
 augmentation part       14.7017511 magnetization 

 Broyden mixing:
  rms(total) = 0.85752E-03    rms(broyden)= 0.85736E-03
  rms(prec ) = 0.14302E-02
  weight for this iteration     100.00

 eigenvalues of (default mixing * dielectric matrix)
  average eigenvalue GAMMA=   1.3617
  4.9228  3.0951  2.3372  2.3372  1.6889  0.1007  0.2008  0.2008  1.1504  1.0518
  0.8707  0.8707  0.6751  0.4507  0.4733

 Free energy of the ion-electron system (eV)
  ---------------------------------------------------
  alpha Z        PSCENC =        68.58501286
  Ewald energy   TEWEN  =     13676.75659593
  -Hartree energ DENC   =    -19509.36147744
  -exchange      EXHF   =         0.00000000
  -V(xc)+E(xc)   XCENC  =       138.02920419
  PAW double counting   =      6437.95041578    -6217.70685954
  entropy T*S    EENTRO =         0.00607566
  eigenvalues    EBANDS =     -1207.36695638
  atomic energy  EATOM  =      6566.49377757
  Solvation  Ediel_sol  =         0.00000000
  ---------------------------------------------------
  free energy    TOTEN  =       -46.61421137 eV

  energy without entropy =      -46.62028704  energy(sigma->0) =      -46.61623659


--------------------------------------------------------------------------------------------------------




--------------------------------------- Iteration      1(  21)  ---------------------------------------


    POTLOK:  cpu time      0.0105: real time      0.0105
    SETDIJ:  cpu time      0.0013: real time      0.0013
     EDDAV:  cpu time      1.9041: real time      1.9041
       DOS:  cpu time      0.0004: real time      0.0004
    CHARGE:  cpu time      0.0200: real time      0.0200
    MIXING:  cpu time      0.0010: real time      0.0010
    --------------------------------------------
      LOOP:  cpu time      1.9372: real time      1.9373

 eigenvalue-minimisations  :  3520
 total energy-change (2. order) :-0.7385926E-04  (-0.3111883E-05)
 number of electron      59.9999981 magnetization 
 augmentation part       14.7020786 magnetization 

 Broyden mixing:
  rms(total) = 0.96575E-03    rms(broyden)= 0.96568E-03
  rms(prec ) = 0.14911E-02
  weight for this iteration     100.00

 eigenvalues of (default mixing * dielectric matrix)
  average eigenvalue GAMMA=   1.4140
  5.0102  3.3883  2.5732  2.1511  2.1511  1.2288  1.2288  0.1007  0.2008  0.2008
  0.9504  0.9504  0.8892  0.6757  0.4507  0.4733

 Free energy of the ion-electron system (eV)
  ---------------------------------------------------
  alpha Z        PSCENC =        68.58501286
  Ewald energy   TEWEN  =     13676.75659593
  -Hartree energ DENC   =    -19509.72948441
  -exchange      EXHF   =         0.00000000
  -V(xc)+E(xc)   XCENC  =       138.02831732
  PAW double counting   =      6437.90442880    -6217.68298294
  entropy T*S    EENTRO =         0.00603587
  eigenvalues    EBANDS =     -1206.97598622
  atomic energy  EATOM  =      6566.49377757
  Solvation  Ediel_sol  =         0.00000000
  ---------------------------------------------------
  free energy    TOTEN  =       -46.61428523 eV

  energy without entropy =      -46.62032110  energy(sigma->0) =      -46.61629719


--------------------------------------------------------------------------------------------------------




--------------------------------------- Iteration      1(  22)  ---------------------------------------


    POTLOK:  cpu time      0.0124: real time      0.0124
    SETDIJ:  cpu time      0.0013: real time      0.0013
     EDDAV:  cpu time      2.6521: real time      2.6522
       DOS:  cpu time      0.0007: real time      0.0007
    CHARGE:  cpu time      0.0202: real time      0.0202
    MIXING:  cpu time      0.0011: real time      0.0011
    --------------------------------------------
      LOOP:  cpu time      2.6877: real time      2.6878

 eigenvalue-minimisations  :  4288
 total energy-change (2. order) :-0.8744063E-04  (-0.1450234E-05)
 number of electron      59.9999981 magnetization 
 augmentation part       14.7020737 magnetization 

 Broyden mixing:
  rms(total) = 0.47902E-03    rms(broyden)= 0.47900E-03
  rms(prec ) = 0.66160E-03
  weight for this iteration     100.00

 eigenvalues of (default mixing * dielectric matrix)
  average eigenvalue GAMMA=   1.4907
  5.8912  3.5437  2.6142  2.2883  2.2883  1.6911  0.1007  0.2008  0.2008  1.1439
  1.1439  0.4507  0.4733  0.6760  0.8954  0.8954  0.8450

 Free energy of the ion-electron system (eV)
  ---------------------------------------------------
  alpha Z        PSCENC =        68.58501286
  Ewald energy   TEWEN  =     13676.75659593
  -Hartree energ DENC   =    -19509.94680537
  -exchange      EXHF   =         0.00000000
  -V(xc)+E(xc)   XCENC  =       138.02842851
  PAW double counting   =      6438.21469604    -6217.99519280
  entropy T*S    EENTRO =         0.00604406
  eigenvalues    EBANDS =     -1206.75692947
  atomic energy  EATOM  =      6566.49377757
  Solvation  Ediel_sol  =         0.00000000
  ---------------------------------------------------
  free energy    TOTEN  =       -46.61437267 eV

  energy without entropy =      -46.62041673  energy(sigma->0) =      -46.61638736


--------------------------------------------------------------------------------------------------------




--------------------------------------- Iteration      1(  23)  ---------------------------------------


    POTLOK:  cpu time      0.0131: real time      0.0131
    SETDIJ:  cpu time      0.0013: real time      0.0013
     EDDAV:  cpu time      2.3789: real time      2.3790
       DOS:  cpu time      0.0004: real time      0.0004
    CHARGE:  cpu time      0.0170: real time      0.0170
    MIXING:  cpu time      0.0006: real time      0.0006
    --------------------------------------------
      LOOP:  cpu time      2.4112: real time      2.4113

 eigenvalue-minimisations  :  4032
 total energy-change (2. order) :-0.8621177E-04  (-0.9986913E-06)
 number of electron      59.9999981 magnetization 
 augmentation part       14.7018510 magnetization 

 Broyden mixing:
  rms(total) = 0.47149E-03    rms(broyden)= 0.47147E-03
  rms(prec ) = 0.74223E-03
  weight for this iteration     100.00

 eigenvalues of (default mixing * dielectric matrix)
  average eigenvalue GAMMA=   1.5511
  6.0811  4.2624  2.7022  2.2589  2.2589  1.9970  1.3993  0.1007  0.2008  0.2008
  1.2291  0.4507  0.4733  0.6760  1.0069  0.8970  0.8970  0.8280

 Free energy of the ion-electron system (eV)
  ---------------------------------------------------
  alpha Z        PSCENC =        68.58501286
  Ewald energy   TEWEN  =     13676.75659593
  -Hartree energ DENC   =    -19510.07941906
  -exchange      EXHF   =         0.00000000
  -V(xc)+E(xc)   XCENC  =       138.02933292
  PAW double counting   =      6438.22369756    -6218.00105758
  entropy T*S    EENTRO =         0.00605544
  eigenvalues    EBANDS =     -1206.62845452
  atomic energy  EATOM  =      6566.49377757
  Solvation  Ediel_sol  =         0.00000000
  ---------------------------------------------------
  free energy    TOTEN  =       -46.61445889 eV

  energy without entropy =      -46.62051432  energy(sigma->0) =      -46.61647736


--------------------------------------------------------------------------------------------------------




--------------------------------------- Iteration      1(  24)  ---------------------------------------


    POTLOK:  cpu time      0.0107: real time      0.0107
    SETDIJ:  cpu time      0.0013: real time      0.0013
     EDDAV:  cpu time      2.1620: real time      2.1621
       DOS:  cpu time      0.0007: real time      0.0007
    CHARGE:  cpu time      0.0200: real time      0.0200
    MIXING:  cpu time      0.0011: real time      0.0011
    --------------------------------------------
      LOOP:  cpu time      2.1957: real time      2.1958

 eigenvalue-minimisations  :  3776
 total energy-change (2. order) :-0.5169381E-04  (-0.4812878E-06)
 number of electron      59.9999981 magnetization 
 augmentation part       14.7018542 magnetization 

 Broyden mixing:
  rms(total) = 0.16388E-03    rms(broyden)= 0.16384E-03
  rms(prec ) = 0.23793E-03
  weight for this iteration     100.00

 eigenvalues of (default mixing * dielectric matrix)
  average eigenvalue GAMMA=   1.6836
  7.3587  5.1049  2.6470  2.6470  2.2346  2.2346  1.6373  0.1007  0.2008  0.2008
  1.2168  1.2168  0.4507  0.4733  0.6760  0.9696  0.9044  0.9044  0.8104

 Free energy of the ion-electron system (eV)
  ---------------------------------------------------
  alpha Z        PSCENC =        68.58501286
  Ewald energy   TEWEN  =     13676.75659593
  -Hartree energ DENC   =    -19510.14300757
  -exchange      EXHF   =         0.00000000
  -V(xc)+E(xc)   XCENC  =       138.02929024
  PAW double counting   =      6438.19650426    -6217.97073771
  entropy T*S    EENTRO =         0.00604910
  eigenvalues    EBANDS =     -1206.56799525
  atomic energy  EATOM  =      6566.49377757
  Solvation  Ediel_sol  =         0.00000000
  ---------------------------------------------------
  free energy    TOTEN  =       -46.61451058 eV

  energy without entropy =      -46.62055968  energy(sigma->0) =      -46.61652695


[...]
     61      11.2770      0.00000
     62      11.6186      0.00000
     63      11.9517      0.00000
     64      12.0404      0.00000

 k-point    17 :       0.1111    0.5000    0.0000
  band No.  band energies     occupation 
      1     -55.2286      2.00000
      2     -54.8907      2.00000
      3     -54.7136      2.00000
      4     -54.6763      2.00000
      5     -31.6172      2.00000
      6     -31.5419      2.00000
      7     -31.2615      2.00000
      8     -31.2285      2.00000
      9     -31.1600      2.00000
     10     -31.1214      2.00000
     11     -31.0891      2.00000
     12     -30.9860      2.00000
     13     -30.8511      2.00000
     14     -30.7721      2.00000
     15     -30.7348      2.00000
     16     -30.7077      2.00000
     17      -5.3367      2.00000
     18      -4.7358      2.00000
     19      -3.8262      2.00000
     20      -2.9623      2.00000
     21      -2.8672      2.00000
     22      -2.1186      2.00000
     23      -0.9970      2.00000
     24      -0.2670      2.00000
     25       0.1964      2.00000
     26       0.9389      2.00000
     27       1.1780      2.00000
     28       1.4323      2.00000
     29       1.6497      2.00390
     30       1.7328      2.05091
     31       1.8287      1.83058
     32       2.5640     -0.00000
     33       2.5671     -0.00000
     34       2.7278     -0.00000
     35       2.9878     -0.00000
     36       3.1359     -0.00000
     37       3.2873     -0.00000
     38       3.3096     -0.00000
     39       3.3599     -0.00000
     40       3.6203     -0.00000
     41       3.8177     -0.00000
     42       3.8766     -0.00000
     43       4.0121      0.00000
     44       4.1884      0.00000
     45       4.2503      0.00000
     46       4.7403      0.00000
     47       5.9610      0.00000
     48       6.4882      0.00000
     49       6.7482      0.00000
     50       7.1300      0.00000
     51       7.4813      0.00000
     52       7.7086      0.00000
     53       8.3132      0.00000
     54       8.3840      0.00000
     55       8.4790      0.00000
     56       8.6653      0.00000
     57       9.2712      0.00000
     58       9.8122      0.00000
     59       9.9701      0.00000
     60      10.0007      0.00000
     61      10.5690      0.00000
     62      10.6599      0.00000
     63      10.8568      0.00000
     64      11.2081      0.00000

 k-point    18 :       0.2222    0.5000    0.0000
  band No.  band energies     occupation 
      1     -55.2122      2.00000
      2     -54.8742      2.00000
      3     -54.6968      2.00000
      4     -54.6596      2.00000
      5     -31.6017      2.00000
      6     -31.5262      2.00000
      7     -31.2951      2.00000
      8     -31.2443      2.00000
      9     -31.2114      2.00000
     10     -31.1036      2.00000
     11     -31.0722      2.00000
     12     -30.9875      2.00000
     13     -30.9698      2.00000
     14     -30.8738      2.00000
     15     -30.8440      2.00000
     16     -30.7583      2.00000
     17      -4.8104      2.00000
     18      -4.2047      2.00000
     19      -3.2825      2.00000
     20      -2.3781      2.00000
     21      -2.1300      2.00000
     22      -1.4704      2.00000
     23      -0.5512      2.00000
     24      -0.0692      2.00000
     25       0.3794      2.00000
     26       0.9757      2.00000
     27       1.5832      2.00015
     28       1.7208      2.03986
     29       1.7929      2.03739
     30       1.9279      0.37622
     31       2.0948     -0.01260
     32       2.4073     -0.00000
     33       2.6250     -0.00000
     34       2.9051     -0.00000
     35       2.9655     -0.00000
     36       3.0403     -0.00000
     37       3.2203     -0.00000
     38       3.2563     -0.00000
     39       3.4719     -0.00000
     40       3.6007     -0.00000
     41       3.6895     -0.00000
     42       3.8170     -0.00000
     43       3.9673      0.00000
     44       3.9888      0.00000
     45       4.2679      0.00000
     46       4.9441      0.00000
     47       5.9949      0.00000
     48       6.8377      0.00000
     49       7.2294      0.00000
     50       7.4629      0.00000
     51       7.5527      0.00000
     52       7.8425      0.00000
     53       8.0285      0.00000
     54       8.1881      0.00000
     55       8.4239      0.00000
     56       8.6403      0.00000
     57       8.8478      0.00000
     58       9.0132      0.00000
     59       9.2958      0.00000
     60       9.4402      0.00000
     61      10.4793      0.00000
     62      10.5687      0.00000
     63      10.7011      0.00000
     64      11.0911      0.00000

 k-point    19 :       0.3333    0.5000    0.0000
  band No.  band energies     occupation 
      1     -55.1935      2.00000
      2     -54.8554      2.00000
      3     -54.6775      2.00000
      4     -54.6406      2.00000
      5     -31.5839      2.00000
      6     -31.5082      2.00000
      7     -31.4462      2.00000
      8     -31.2247      2.00000
      9     -31.1919      2.00000
     10     -31.1397      2.00000
     11     -31.0834      2.00000
     12     -31.0530      2.00000
     13     -31.0296      2.00000
     14     -30.9962      2.00000
     15     -30.9509      2.00000
     16     -30.7429      2.00000
     17      -3.9844      2.00000
     18      -3.3723      2.00000
     19      -2.4401      2.00000
     20      -1.4880      2.00000
     21      -1.0633      2.00000
     22      -0.6861      2.00000
     23      -0.3958      2.00000
     24       0.0666      2.00000
     25       0.5402      2.00000
     26       0.6682      2.00000
     27       0.7243      2.00000
     28       0.7621      2.00000
     29       1.7189      2.03824
     30       2.1465     -0.00154
     31       2.5609     -0.00000
     32       3.0865     -0.00000
     33       3.1255     -0.00000
     34       3.2344     -0.00000
     35       3.2971     -0.00000
     36       3.3967     -0.00000
     37       3.4097     -0.00000
     38       3.5654     -0.00000
     39       3.7180     -0.00000
     40       3.7433     -0.00000
     41       3.8325     -0.00000
     42       3.8561     -0.00000
     43       3.8926      0.00000
     44       4.2711      0.00000
     45       4.5046      0.00000
     46       5.5071      0.00000
     47       5.7739      0.00000
     48       6.0629      0.00000
     49       6.3505      0.00000
     50       6.4125      0.00000
     51       7.1595      0.00000
     52       7.5556      0.00000
     53       7.7305      0.00000
     54       8.3978      0.00000
     55       8.5908      0.00000
     56       8.7291      0.00000
     57       9.0156      0.00000
     58       9.1230      0.00000
     59       9.3516      0.00000
     60       9.4143      0.00000
     61       9.9313      0.00000
     62      10.1604      0.00000
     63      10.2674      0.00000
     64      10.3254      0.00000

 k-point    20 :       0.4444    0.5000    0.0000
  band No.  band energies     occupation 
      1     -55.1812      2.00000
      2     -54.8430      2.00000
      3     -54.6649      2.00000
      4     -54.6281      2.00000
      5     -31.5723      2.00000
      6     -31.5435      2.00000
      7     -31.4965      2.00000
      8     -31.2378      2.00000
      9     -31.2119      2.00000
     10     -31.1790      2.00000
     11     -31.1294      2.00000
     12     -31.0941      2.00000
     13     -31.0701      2.00000
     14     -31.0405      2.00000
     15     -30.9390      2.00000
     16     -30.7327      2.00000
     17      -3.0503      2.00000
     18      -2.4191      2.00000
     19      -1.4823      2.00000
     20      -0.7394      2.00000
     21      -0.5906      2.00000
     22      -0.4964      2.00000
     23      -0.4572      2.00000
     24      -0.2244      2.00000
     25       0.0767      2.00000
     26       0.1056      2.00000
     27       0.2249      2.00000
     28       1.0796      2.00000
     29       1.4632      2.00000
     30       2.0223     -0.06703
     31       2.6739     -0.00000
     32       3.1094     -0.00000
     33       3.2036     -0.00000
     34       3.2806     -0.00000
     35       3.3345     -0.00000
     36       3.4967     -0.00000
     37       3.6324     -0.00000
     38       3.8855     -0.00000
     39       3.9713      0.00000
     40       4.0518      0.00000
     41       4.0541      0.00000
     42       4.6620      0.00000
     43       4.6811      0.00000
     44       4.7992      0.00000
     45       4.9020      0.00000
     46       5.3603      0.00000
     47       5.5453      0.00000
     48       5.6320      0.00000
     49       5.7481      0.00000
     50       6.3670      0.00000
     51       7.0258      0.00000
     52       7.3530      0.00000
     53       7.4363      0.00000
     54       7.5519      0.00000
     55       7.6610      0.00000
     56       8.1425      0.00000
     57       8.2146      0.00000
     58       8.6911      0.00000
     59       8.7892      0.00000
     60       9.4596      0.00000
     61      10.2463      0.00000
     62      10.6392      0.00000
     63      10.7737      0.00000
     64      10.8508      0.00000


--------------------------------------------------------------------------------------------------------


 soft charge-density along one line, spin component           1
         0         1         2         3         4         5         6         7         8         9
 total charge-density along one line
 
 pseudopotential strength for first ion, spin component:           1
 -3.056 -23.058  -0.000  -0.013  -0.000   0.000   0.012   0.000
-23.058  10.474  -0.000  -0.002  -0.000  -0.000  -0.002  -0.000
 -0.000  -0.000 -26.492  -0.000   0.000   9.890   0.000  -0.000
 -0.013  -0.002  -0.000 -26.455  -0.000   0.000   9.865   0.000
 -0.000  -0.000   0.000  -0.000 -26.373  -0.000   0.000   9.808
  0.000  -0.000   9.890   0.000  -0.000   5.329  -0.000   0.000
  0.012  -0.002   0.000   9.865   0.000  -0.000   5.339  -0.000
  0.000  -0.000  -0.000   0.000   9.808   0.000  -0.000   5.359
  0.000   0.000  -0.000  -0.000  -0.000   0.000   0.000   0.000
 -0.000  -0.000  -0.007  -0.000  -0.000   0.005   0.000   0.000
 -0.008  -0.004   0.000  -0.018   0.000  -0.000   0.011  -0.000
 -0.000  -0.000  -0.000   0.000  -0.003   0.000   0.000   0.004
  0.041   0.013   0.000   0.002  -0.000  -0.000  -0.001   0.000
  0.000   0.000  -0.000  -0.000  -0.000   0.000   0.000   0.000
 -0.000  -0.000  -0.009  -0.000  -0.000   0.006   0.000   0.000
 -0.010  -0.004   0.000  -0.023   0.000  -0.000   0.013  -0.000
 -0.000  -0.000  -0.000  -0.000  -0.004   0.000   0.000   0.005
  0.051   0.015   0.000   0.003  -0.000  -0.000  -0.001   0.000
 total augmentation occupancy for first ion, spin component:           1
  1.995  -0.059   0.000  -0.000   0.000   0.000  -0.000   0.000   0.000   0.000  -0.006   0.000   0.016   0.000   0.000   0.006
 -0.059   1.362   0.000   0.001   0.000   0.000   0.021   0.000   0.000   0.000  -0.181   0.000   0.199   0.000   0.000   0.099
  0.000   0.000   1.983   0.000   0.000  -0.037   0.000   0.000   0.000  -0.002   0.000   0.000   0.000   0.000   0.002   0.000
 -0.000   0.001   0.000   1.983   0.000   0.000  -0.038   0.000   0.000   0.000   0.013   0.000   0.002   0.000   0.000  -0.010
  0.000   0.000   0.000   0.000   1.982   0.000   0.000  -0.037   0.000   0.000   0.000   0.001   0.000   0.000   0.000   0.000
  0.000   0.000  -0.037   0.000   0.000   0.093   0.000   0.000   0.000   0.028   0.000   0.000   0.000   0.000  -0.020   0.000
 -0.000   0.021   0.000  -0.038   0.000   0.000   0.094   0.000   0.000   0.000   0.117   0.000  -0.044   0.000   0.000  -0.045
  0.000   0.000   0.000   0.000  -0.037   0.000   0.000   0.122   0.000   0.000   0.000  -0.036   0.000   0.000   0.000   0.000
  0.000   0.000   0.000   0.000   0.000   0.000   0.000   0.000   2.535   0.000   0.000   0.000   0.000  -1.185   0.000   0.000
  0.000   0.000  -0.002   0.000   0.000   0.028   0.000   0.000   0.000   2.289   0.000   0.000   0.000   0.000  -1.057   0.000
 -0.006  -0.181   0.000   0.013   0.000   0.000   0.117   0.000   0.000   0.000   1.628   0.000  -0.278   0.000   0.000  -0.614
  0.000   0.000   0.000   0.000   0.001   0.000   0.000  -0.036   0.000   0.000   0.000   1.898   0.000   0.000   0.000   0.000
  0.016   0.199   0.000   0.002   0.000   0.000  -0.044   0.000   0.000   0.000  -0.278   0.000   1.754   0.000   0.000   0.056
  0.000   0.000   0.000   0.000   0.000   0.000   0.000   0.000  -1.185   0.000   0.000   0.000   0.000   0.588   0.000   0.000
  0.000   0.000   0.002   0.000   0.000  -0.020   0.000   0.000   0.000  -1.057   0.000   0.000   0.000   0.000   0.522   0.000
  0.006   0.099   0.000  -0.010   0.000   0.000  -0.045   0.000   0.000   0.000  -0.614   0.000   0.056   0.000   0.000   0.252
  0.000   0.000   0.000   0.000  -0.000   0.000   0.000  -0.005   0.000   0.000   0.000  -0.891   0.000   0.000   0.000   0.000
 -0.016  -0.036   0.000  -0.001   0.000   0.000   0.012   0.000   0.000   0.000   0.059   0.000  -0.736   0.000   0.000  -0.000


------------------------ aborting loop because EDIFF is reached ----------------------------------------


    CHARGE:  cpu time      0.0165: real time      0.0165
    FORLOC:  cpu time      0.0004: real time      0.0004
    FORNL :  cpu time      0.1284: real time      0.1284
    STRESS:  cpu time      0.8407: real time      0.8408
    FORCOR:  cpu time      0.0118: real time      0.0118
    FORHAR:  cpu time      0.0019: real time      0.0019
    MIXING:  cpu time      0.0006: real time      0.0006
    OFIELD:  cpu time      0.0000: real time      0.0000

  FORCE on cell =-STRESS in cart. coord.  units (eV):
  Direction    XX          YY          ZZ          XY          YZ          ZX
  --------------------------------------------------------------------------------------
  Alpha Z    68.58501    68.58501    68.58501
  Ewald   16862.59893 15978.93744-19164.78265    -0.00000     0.00000    -0.00000
  Hartree 18465.24380 17722.11725-16677.17275    -0.00000    -0.00000    -0.00000
  E(xc)    -286.60048  -287.55822  -287.23766    -0.00000    -0.00000    -0.00000
  Local  -36068.32605-34420.05308 35115.44459    -0.00000    -0.00000    -0.00000
  n-local   -73.49488   -40.66908   -62.90817    -4.12923    -0.00000    -0.00000
  augment   249.02086   236.06084   243.20367    -0.00000     0.00000     0.00000
  Kinetic   780.63608   738.87255   762.72708    -1.38371     0.00000    -0.00000
  Fock        0.00000     0.00000     0.00000     0.00000     0.00000     0.00000
  -------------------------------------------------------------------------------------
  Total      -2.33674    -3.70728    -2.14088     0.00000     0.00000     0.00000
  in kB     -13.09033   -20.76808   -11.99316     0.00000     0.00000     0.00000
  external pressure =      -15.28 kB  Pullay stress =        0.00 kB


 VOLUME and BASIS-vectors are now :
 -----------------------------------------------------------------------------
  energy-cutoff  :      520.00
  volume of cell :      286.00
      direct lattice vectors                 reciprocal lattice vectors
     2.823800087  0.000000000  0.000000000     0.354132718  0.000000000  0.000000000
     0.000000000  4.070300102  0.000000000     0.000000000  0.245682130  0.000000000
     0.000000000  0.000000000 24.883399963     0.000000000  0.000000000  0.040187434

  length of vectors
     2.823800087  4.070300102 24.883399963     0.354132718  0.245682130  0.040187434


 FORCES acting on ions
    electron-ion (+dipol)            ewald-force                    non-local-force                 convergence-correction
 -----------------------------------------------------------------------------------------------
   -.118E-13 0.524E-13 0.220E+04   0.874E-14 0.603E-14 -.220E+04   0.000E+00 0.000E+00 -.110E-01   0.239E-13 -.853E-13 0.156E-04
   0.183E-13 0.531E-12 0.620E+03   0.569E-14 0.478E-14 -.619E+03   0.000E+00 0.000E+00 -.257E+00   0.430E-13 -.233E-13 -.123E-03
   0.654E-14 -.112E-12 -.928E+03   0.265E-13 0.659E-14 0.928E+03   0.000E+00 0.000E+00 -.855E-01   0.112E-14 0.368E-14 0.232E-02
   0.707E-14 -.154E-12 -.246E+04   0.100E-13 0.546E-14 0.245E+04   0.000E+00 0.000E+00 0.477E+01   -.942E-14 0.726E-13 0.786E-03
   0.380E-15 -.762E-13 0.679E+03   0.450E-14 -.354E-14 -.675E+03   0.000E+00 0.000E+00 -.426E+01   -.966E-15 0.615E-14 0.432E-04
   -.438E-14 0.329E-13 0.347E+03   -.189E-14 -.435E-15 -.347E+03   0.000E+00 0.000E+00 -.127E+00   -.557E-15 0.617E-14 -.211E-03
   -.498E-14 -.337E-13 -.387E+02   -.775E-14 -.529E-14 0.387E+02   0.000E+00 0.000E+00 0.988E-02   -.919E-15 -.448E-15 0.281E-03
   -.875E-14 -.470E-13 -.427E+03   -.596E-14 -.720E-14 0.427E+03   0.000E+00 0.000E+00 0.228E+00   -.815E-15 -.799E-14 0.520E-03
 -----------------------------------------------------------------------------------------------
   0.239E-14 0.194E-12 -.275E+00   0.398E-13 0.640E-14 0.000E+00   0.000E+00 0.000E+00 0.272E+00   0.553E-13 -.285E-13 0.363E-02
 
 
 POSITION                                       TOTAL-FORCE (eV/Angst)
 -----------------------------------------------------------------------------------
      0.00000      0.00000      8.41183         0.000000      0.000000     -0.311412
      0.00000      0.00000     11.23585         0.000000      0.000000      0.183841
      0.00000      0.00000     14.05962         0.000000      0.000000      0.215235
      0.00000      0.00000     16.88339         0.000000      0.000000     -0.674792
      1.41190      2.03515      6.99995         0.000000      0.000000      0.375752
      1.41190      2.03515      9.82372         0.000000      0.000000     -0.171809
      1.41190      2.03515     12.64773         0.000000      0.000000      0.016977
      1.41190      2.03515     15.47150         0.000000      0.000000      0.366208
 -----------------------------------------------------------------------------------
    total drift:                                0.000000      0.000000     -0.000134


--------------------------------------------------------------------------------------------------------



  FREE ENERGIE OF THE ION-ELECTRON SYSTEM (eV)
  ---------------------------------------------------
  free  energy   TOTEN  =       -46.61454507 eV

  energy  without entropy=      -46.62059177  energy(sigma->0) =      -46.61656064
 


--------------------------------------------------------------------------------------------------------


    POTLOK:  cpu time      0.0109: real time      0.0109


--------------------------------------------------------------------------------------------------------


 writing wavefunctions
     LOOP+:  cpu time     64.2247: real time     64.2294
    4ORBIT:  cpu time      0.0000: real time      0.0000

 total amount of memory used by VASP MPI-rank0    81788. kBytes
=======================================================================

   base                                    :      30000. kBytes
   nonl-proj                               :      45596. kBytes
   fftplans                                :        636. kBytes
   grid                                    :       2913. kBytes
   one-center                              :        124. kBytes
   wavefun                                 :       2519. kBytes
 
  
  
 General timing and accounting informations for this job:
 ========================================================
  
                  Total CPU time used (sec):       66.104
                            User time (sec):       63.866
                          System time (sec):        2.238
                         Elapsed time (sec):       66.362
  
                   Maximum memory used (kb):      260096.
                   Average memory used (kb):          N/A
  
                          Minor page faults:        34906
                          Major page faults:           20
                 Voluntary context switches:          162
