<?xml version="1.0" encoding="ISO-8859-1"?>
<modeling>
 <generator>
  <i name="program" type="string">vasp </i>
  <i name="version" type="string">6.5.0  </i>
  <i name="subversion" type="string">16Dec24 (build Apr 17 2025 17:55:45) complex                          parallel </i>
  <i name="platform" type="string">LinuxIFC </i>
  <i name="date" type="string">2025 07 14 </i>
  <i name="time" type="string">12:48:03 </i>
 </generator>
 <incar>
  <i type="int" name="ISTART">     0</i>
  <i type="string" name="PREC">N</i>
  <i type="string" name="ALGO">N</i>
  <i type="int" name="ICHARG">     2</i>
  <i type="int" name="NELM">   500</i>
  <i type="int" name="IBRION">    -1</i>
  <i name="EDIFF">      0.00001000</i>
  <i name="EDIFFG">     -0.01000000</i>
  <i type="int" name="NSW">     0</i>
  <i type="int" name="ISIF">     3</i>
  <i name="ENCUT">    520.00000000</i>
  <i type="logical" name="LREAL"> F  </i>
  <i type="int" name="ISMEAR">     1</i>
  <i name="SIGMA">      0.10000000</i>
  <i type="logical" name="LVTOT"> T  </i>
  <i type="logical" name="LVHAR"> T  </i>
 </incar>
 <primitive_cell>
  <structure name="primitive_cell" >
   <crystal>
    <varray name="basis" >
     <v>       2.82380009       0.00000000       0.00000000 </v>
     <v>       0.00000000       4.07030010       0.00000000 </v>
     <v>       0.00000000       0.00000000      24.88339996 </v>
    </varray>
    <i name="volume">    286.00267712 </i>
    <varray name="rec_basis" >
     <v>       0.35413272       0.00000000       0.00000000 </v>
     <v>       0.00000000       0.24568213       0.00000000 </v>
     <v>       0.00000000       0.00000000       0.04018743 </v>
    </varray>
   </crystal>
   <varray name="positions" >
    <v>       0.00000000       0.00000000       0.33805001 </v>
    <v>       0.00000000       0.00000000       0.45153999 </v>
    <v>       0.00000000       0.00000000       0.56502003 </v>
    <v>       0.00000000       0.00000000       0.67850000 </v>
    <v>       0.50000000       0.50000000       0.28130999 </v>
    <v>       0.50000000       0.50000000       0.39478999 </v>
    <v>       0.50000000       0.50000000       0.50827998 </v>
    <v>       0.50000000       0.50000000       0.62176001 </v>
   </varray>
  </structure>
  <varray name="primitive_index" >
   <v type="int" >        1 </v>
   <v type="int" >        2 </v>
   <v type="int" >        3 </v>
   <v type="int" >        4 </v>
   <v type="int" >        5 </v>
   <v type="int" >        6 </v>
   <v type="int" >        7 </v>
   <v type="int" >        8 </v>
  </varray>
 </primitive_cell>
 <kpoints>
  <generation param="Gamma">
   <v type="int" name="divisions">       9        6        1 </v>
   <v name="usershift">      0.00000000       0.00000000       0.00000000 </v>
   <v name="genvec1">      0.11111111       0.00000000       0.00000000 </v>
   <v name="genvec2">      0.00000000       0.16666667       0.00000000 </v>
   <v name="genvec3">      0.00000000       0.00000000       1.00000000 </v>
   <v name="shift">      0.00000000       0.00000000       0.00000000 </v>
  </generation>
  <varray name="kpointlist" >
   <v>       0.00000000       0.00000000       0.00000000 </v>
   <v>       0.11111111       0.00000000       0.00000000 </v>
   <v>       0.22222222       0.00000000       0.00000000 </v>
   <v>       0.33333333       0.00000000       0.00000000 </v>
   <v>       0.44444444       0.00000000       0.00000000 </v>
   <v>       0.00000000       0.16666667       0.00000000 </v>
   <v>       0.11111111       0.16666667       0.00000000 </v>
   <v>       0.22222222       0.16666667       0.00000000 </v>
   <v>       0.33333333       0.16666667       0.00000000 </v>
   <v>       0.44444444       0.16666667       0.00000000 </v>
   <v>       0.00000000       0.33333333       0.00000000 </v>
   <v>       0.11111111       0.33333333       0.00000000 </v>
   <v>       0.22222222       0.33333333       0.00000000 </v>
   <v>       0.33333333       0.33333333       0.00000000 </v>
   <v>       0.44444444       0.33333333       0.00000000 </v>
   <v>       0.00000000       0.50000000       0.00000000 </v>
   <v>       0.11111111       0.50000000       0.00000000 </v>
   <v>       0.22222222       0.50000000       0.00000000 </v>
   <v>       0.33333333       0.50000000       0.00000000 </v>
   <v>       0.44444444       0.50000000       0.00000000 </v>
  </varray>
  <varray name="weights" >
   <v>       0.01851852 </v>
   <v>       0.03703704 </v>
   <v>       0.03703704 </v>
   <v>       0.03703704 </v>
   <v>       0.03703704 </v>
   <v>       0.03703704 </v>
   <v>       0.07407407 </v>
   <v>       0.07407407 </v>
   <v>       0.07407407 </v>
   <v>       0.07407407 </v>
   <v>       0.03703704 </v>
   <v>       0.07407407 </v>
   <v>       0.07407407 </v>
   <v>       0.07407407 </v>
   <v>       0.07407407 </v>
   <v>       0.01851852 </v>
   <v>       0.03703704 </v>
   <v>       0.03703704 </v>
   <v>       0.03703704 </v>
   <v>       0.03703704 </v>
  </varray>
 </kpoints>
 <parameters>
  <separator name="general" >
   <i type="string" name="SYSTEM">unknown system</i>
   <i type="logical" name="LCOMPAT"> F  </i>
  </separator>
  <separator name="electronic" >
   <i type="string" name="PREC">n</i>
   <i name="ENMAX">    520.00000000</i>
   <i name="ENAUG">    482.84800000</i>
   <i name="EDIFF">      0.00001000</i>
   <i type="int" name="IALGO">    38</i>
   <i type="int" name="IWAVPR">    10</i>
   <i type="int" name="NBANDS">    64</i>
   <i type="int" name="NBANDSLOW">    -1</i>
   <i type="int" name="NBANDSHIGH">    -1</i>
   <i name="NELECT">     60.00000000</i>
   <i type="int" name="TURBO">     0</i>
   <i type="int" name="IRESTART">     0</i>
   <i type="int" name="NREBOOT">     0</i>
   <i type="int" name="NMIN">     0</i>
   <i name="EREF">      0.00000000</i>
   <separator name="electronic smearing" >
    <i type="int" name="ISMEAR">     1</i>
    <i name="SIGMA">      0.10000000</i>
    <i name="KSPACING">      0.50000000</i>
    <i type="logical" name="KGAMMA"> T  </i>
    <i type="logical" name="KBLOWUP"> T  </i>
   </separator>
   <separator name="electronic projectors" >
    <i type="logical" name="LREAL"> F  </i>
    <v name="ROPT">      0.00000000      0.00000000</v>
    <i type="int" name="LMAXPAW">  -100</i>
    <i type="int" name="LMAXMIX">     2</i>
    <i type="logical" name="NLSPLINE"> F  </i>
   </separator>
   <separator name="electronic startup" >
    <i type="int" name="ISTART">     0</i>
    <i type="int" name="ICHARG">     2</i>
    <i type="int" name="INIWAV">     1</i>
   </separator>
   <separator name="electronic spin" >
    <i type="int" name="ISPIN">     1</i>
    <i type="logical" name="LNONCOLLINEAR"> F  </i>
    <v name="MAGMOM">      1.00000000      1.00000000      1.00000000      1.00000000      1.00000000      1.00000000      1.00000000      1.00000000</v>
    <i name="NUPDOWN">     -1.00000000</i>
    <i type="logical" name="LSORBIT"> F  </i>
    <v name="SAXIS">      0.00000000      0.00000000      1.00000000</v>
    <i type="logical" name="LSPIRAL"> F  </i>
    <v name="QSPIRAL">      0.00000000      0.00000000      0.00000000</v>
    <i type="logical" name="LZEROZ"> F  </i>
   </separator>
   <separator name="electronic exchange-correlation" >
    <i type="logical" name="LASPH"> F  </i>
   </separator>
   <separator name="electronic convergence" >
    <i type="int" name="NELM">   500</i>
    <i type="int" name="NELMDL">    -5</i>
    <i type="int" name="NELMIN">     2</i>
    <i name="ENINI">    520.00000000</i>
    <separator name="electronic convergence detail" >
     <i type="logical" name="LDIAG"> T  </i>
     <i type="logical" name="LSUBROT"> F  </i>
     <i name="WEIMIN">      0.00000000</i>
     <i name="EBREAK">      0.00000004</i>
     <i name="DEPER">      0.30000000</i>
     <i type="int" name="NRMM">     4</i>
     <i name="TIME">      0.40000000</i>
    </separator>
   </separator>
   <separator name="electronic mixer" >
    <i name="AMIX">      0.40000000</i>
    <i name="BMIX">      1.00000000</i>
    <i name="AMIN">      0.10000000</i>
    <i name="AMIX_MAG">      1.60000000</i>
    <i name="BMIX_MAG">      1.00000000</i>
    <separator name="electronic mixer details" >
     <i type="int" name="IMIX">     4</i>
     <i type="logical" name="MIXFIRST"> F  </i>
     <i type="int" name="MAXMIX">   -45</i>
     <i name="WC">    100.00000000</i>
     <i type="int" name="INIMIX">     1</i>
     <i type="int" name="MIXPRE">     1</i>
     <i type="int" name="MREMOVE">     5</i>
    </separator>
   </separator>
   <separator name="electronic dipolcorrection" >
    <i type="logical" name="LDIPOL"> F  </i>
    <i type="logical" name="LMONO"> F  </i>
    <i type="int" name="IDIPOL">     0</i>
    <i name="EPSILON">      1.00000000</i>
    <v name="DIPOL">   -100.00000000   -100.00000000   -100.00000000</v>
    <i name="EFIELD">      0.00000000</i>
    <i type="logical" name="LVACPOTAV"> F  </i>
   </separator>
  </separator>
  <separator name="grids" >
   <i type="int" name="NGX">    16</i>
   <i type="int" name="NGY">    24</i>
   <i type="int" name="NGZ">   140</i>
   <i type="int" name="NGXF">    32</i>
   <i type="int" name="NGYF">    48</i>
   <i type="int" name="NGZF">   280</i>
   <i type="logical" name="ADDGRID"> F  </i>
  </separator>
  <separator name="ionic" >
   <i type="int" name="NSW">     0</i>
   <i type="int" name="IBRION">    -1</i>
   <i type="int" name="MDALGO">     0</i>
   <i type="int" name="ISIF">     3</i>
   <i name="PSTRESS">      0.00000000</i>
   <i name="EDIFFG">     -0.01000000</i>
   <i type="int" name="NFREE">     0</i>
   <i name="POTIM">      0.50000000</i>
   <i name="SMASS">     -3.00000000</i>
   <i name="SCALEE">      1.00000000</i>
  </separator>
  <separator name="ionic md" >
   <i name="TEBEG">      0.00010000</i>
   <i name="TEEND">      0.00010000</i>
   <i type="int" name="NBLOCK">     1</i>
   <i type="int" name="KBLOCK">     1</i>
   <i type="int" name="NPACO">   256</i>
   <i name="APACO">     10.00000000</i>
  </separator>
  <separator name="symmetry" >
   <i type="int" name="ISYM">     2</i>
   <i name="SYMPREC">      0.00001000</i>
  </separator>
  <separator name="dos" >
   <i type="int" name="LORBIT">     0</i>
   <v name="RWIGS">     -1.00000000     -1.00000000</v>
   <i type="int" name="NEDOS">   301</i>
   <i name="EMIN">     10.00000000</i>
   <i name="EMAX">    -10.00000000</i>
   <i name="EFERMI">      0.00000000</i>
  </separator>
  <separator name="writing" >
   <i type="int" name="NWRITE">     2</i>
   <i type="logical" name="LWAVE"> T  </i>
   <i type="logical" name="LDOWNSAMPLE"> F  </i>
   <i type="logical" name="LCHARG"> T  </i>
   <i type="logical" name="LPARD"> F  </i>
   <i type="logical" name="LVTOT"> F  </i>
   <i type="logical" name="LVHAR"> T  </i>
   <i type="logical" name="LELF"> F  </i>
   <i type="logical" name="LOPTICS"> F  </i>
   <v name="STM">      0.00000000      0.00000000      0.00000000      0.00000000      0.00000000      0.00000000      0.00000000</v>
  </separator>
  <separator name="performance" >
   <i type="int" name="NPAR">    64</i>
   <i type="int" name="NSIM">     4</i>
   <i type="int" name="NBLK">    -1</i>
   <i type="logical" name="LPLANE"> T  </i>
   <i type="logical" name="LSCALAPACK"> T  </i>
   <i type="logical" name="LSCAAWARE"> F  </i>
   <i type="logical" name="LSCALU"> F  </i>
   <i type="logical" name="LASYNC"> F  </i>
   <i type="logical" name="LORBITALREAL"> F  </i>
  </separator>
  <separator name="miscellaneous" >
   <i type="int" name="IDIOT">     3</i>
   <i type="int" name="PHON_NSTRUCT">    -1</i>
   <i type="logical" name="LMUSIC"> F  </i>
   <v name="POMASS">     47.88000000     26.98100000</v>
   <v name="DARWINR">      0.00000000      0.00000000</v>
   <v name="DARWINV">      1.00000000      1.00000000</v>
   <i type="logical" name="LCORR"> T  </i>
  </separator>
  <i type="logical" name="GGA_COMPAT"> T  </i>
  <i type="logical" name="LBERRY"> F  </i>
  <i type="int" name="ICORELEVEL">     0</i>
  <i type="logical" name="LDAU"> F  </i>
  <i type="int" name="I_CONSTRAINED_M">     0</i>
  <separator name="electronic exchange-correlation" >
   <i type="string" name="GGA    ">PE</i>
   <i type="string" name="XC_C">1</i>
   <i type="int" name="VOSKOWN">     0</i>
   <i type="logical" name="LHFCALC"> F  </i>
   <i type="string" name="PRECFOCK"></i>
   <i type="logical" name="LSYMGRAD"> F  </i>
   <i type="logical" name="LHFONE"> F  </i>
   <i type="logical" name="LRHFCALC"> F  </i>
   <i type="logical" name="LTHOMAS"> F  </i>
   <i type="logical" name="LMODELHF"> F  </i>
   <i type="logical" name="LFOCKACE"> F  </i>
   <i name="ENCUT4O">     -1.00000000</i>
   <i type="int" name="EXXOEP">     0</i>
   <i type="int" name="FOURORBIT">     0</i>
   <i name="AEXX">      0.00000000</i>
   <i name="HFALPHA">      0.00000000</i>
   <i name="MCALPHA">      0.00000000</i>
   <i name="ALDAX">      1.00000000</i>
   <i name="AGGAX">      1.00000000</i>
   <i name="AMGGAX">      1.00000000</i>
   <i name="ALDAC">      1.00000000</i>
   <i name="AGGAC">      1.00000000</i>
   <i name="AMGGAC">      1.00000000</i>
   <i type="int" name="NKREDX">     1</i>
   <i type="int" name="NKREDY">     1</i>
   <i type="int" name="NKREDZ">     1</i>
   <i type="logical" name="SHIFTRED"> F  </i>
   <i type="logical" name="ODDONLY"> F  </i>
   <i type="logical" name="EVENONLY"> F  </i>
   <i type="int" name="LMAXFOCK">     0</i>
   <i type="int" name="NMAXFOCKAE">     0</i>
   <i type="logical" name="LFOCKAEDFT"> F  </i>
   <i name="HFSCREEN">      0.00000000</i>
   <i name="HFSCREENC">      0.00000000</i>
   <i type="int" name="NBANDSGWLOW">     0</i>
  </separator>
  <separator name="vdW DFT" >
   <i type="logical" name="LUSE_VDW"> F  </i>
   <i type="int" name="IVDW_NL">    -1</i>
   <i type="logical" name="LSPIN_VDW"> F  </i>
   <i name="ZAB_VDW">     -0.84910000</i>
   <i name="GAMMA_VDW">      1.39626340</i>
   <i name="ALPHA_VDW">      0.00000000</i>
   <i name="PARAM1">      0.12340000</i>
   <i name="PARAM2">      1.00000000</i>
   <i name="BPARAM">      6.30000000</i>
   <i name="CPARAM">      0.00930000</i>
  </separator>
  <separator name="model GW" >
   <i type="int" name="MODEL_GW">     0</i>
   <i name="MODEL_EPS0">     21.45020078</i>
   <i name="MODEL_ALPHA">      1.00000000</i>
  </separator>
  <separator name="linear response parameters" >
   <i type="logical" name="LEPSILON"> F  </i>
   <i type="logical" name="LRPA"> F  </i>
   <i type="logical" name="LNABLA"> F  </i>
   <i type="logical" name="LVEL"> F  </i>
   <i name="CSHIFT">      0.10000000</i>
   <i name="OMEGAMAX">     -1.00000000</i>
   <i name="DEG_THRESHOLD">      0.00200000</i>
   <i name="RTIME">     -0.10000000</i>
   <i name="WPLASMAI">      0.00000000</i>
   <v name="DFIELD">      0.00000000      0.00000000      0.00000000</v>
   <v name="WPLASMA">      0.00000000      0.00000000      0.00000000      0.00000000      0.00000000      0.00000000      0.00000000      0.00000000      0.00000000</v>
  </separator>
  <separator name="orbital magnetization" >
   <i type="logical" name="NUCIND"> F  </i>
   <v name="MAGPOS">      0.00000000      0.00000000      0.00000000</v>
   <i type="logical" name="LNICSALL"> T  </i>
   <i type="logical" name="ORBITALMAG"> F  </i>
   <i type="logical" name="LMAGBLOCH"> F  </i>
   <i type="logical" name="LCHIMAG"> F  </i>
   <i type="logical" name="LGAUGE"> T  </i>
   <i type="int" name="MAGATOM">     0</i>
   <v name="MAGDIPOL">      0.00000000      0.00000000      0.00000000</v>
   <v name="AVECCONST">      0.00000000      0.00000000      0.00000000</v>
  </separator>
  <separator name="response functions" >
   <i type="logical" name="LALL_IN_ONE"> F  </i>
   <i type="int" name="IALL_IN_ONE">    -1</i>
   <i type="int" name="NBANDS_WAVE">    -1</i>
   <i type="logical" name="LFINITE_TEMPERATURE"> F  </i>
   <i type="logical" name="LADDER"> F  </i>
   <i type="logical" name="LRPAFORCE"> F  </i>
   <i type="logical" name="LFXC"> F  </i>
   <i type="logical" name="LHARTREE"> T  </i>
   <i type="int" name="IBSE">     2</i>
   <v type="int" name="KPOINT">    -1     0     0     0</v>
   <i type="logical" name="LTCTC"> F  </i>
   <i type="logical" name="LTCTE"> F  </i>
   <i type="logical" name="LTETE"> F  </i>
   <i type="logical" name="LTRIPLET"> F  </i>
   <i type="logical" name="LFXCEPS"> F  </i>
   <i type="logical" name="LFXHEG"> F  </i>
   <i type="int" name="NATURALO">     2</i>
   <i type="logical" name="LHOLEGF"> F  </i>
   <i type="logical" name="L2ORDER"> F  </i>
   <i type="logical" name="LDMP1"> F  </i>
   <i type="logical" name="LMP2LT"> F  </i>
   <i type="logical" name="LSMP2LT"> F  </i>
   <i type="logical" name="LGWLF"> F  </i>
   <i name="ENCUTGW">     -1.60000002</i>
   <i name="ENCUTGWSOFT">     -1.60000002</i>
   <i name="ENCUTLF">     -1.00000000</i>
   <i type="logical" name="ESF_SPLINES"> F  </i>
   <i name="ESF_CONV">      0.01000000</i>
   <i type="int" name="ESF_NINTER">    15</i>
   <i type="int" name="LMAXMP2">    -1</i>
   <i name="SCISSOR">      0.00000000</i>
   <i type="int" name="NOMEGA">     0</i>
   <i type="int" name="NOMEGAR">     0</i>
   <i type="int" name="NBANDSGW">    -1</i>
   <i type="int" name="NBANDSO">    -1</i>
   <i type="int" name="NBANDSV">    -1</i>
   <i type="int" name="NELMGW">     1</i>
   <i type="int" name="NELMHF">     1</i>
   <i type="int" name="DIM">     3</i>
   <i type="int" name="IESPILON">     4</i>
   <i type="int" name="ANTIRES">     0</i>
   <i name="OMEGAMAX">    -30.00000000</i>
   <i name="OMEGAMIN">    -30.00000000</i>
   <i name="OMEGATL">   -200.00000000</i>
   <i type="int" name="OMEGAGRID">     0</i>
   <i name="CSHIFT">     -0.10000000</i>
   <i type="logical" name="LSELFENERGY"> F  </i>
   <i type="logical" name="LSPECTRAL"> F  </i>
   <i type="logical" name="LSPECTRALGW"> F  </i>
   <i type="logical" name="LSINGLES"> F  </i>
   <i type="logical" name="LFERMIGW"> F  </i>
   <i type="logical" name="ODDONLYGW"> F  </i>
   <i type="logical" name="EVENONLYGW"> F  </i>
   <i type="int" name="NKREDLFX">     1</i>
   <i type="int" name="NKREDLFY">     1</i>
   <i type="int" name="NKREDLFZ">     1</i>
   <i type="int" name="MAXMEM">  2800</i>
   <i type="int" name="TELESCOPE">     0</i>
   <i type="int" name="NTAUPAR">    -1</i>
   <i type="int" name="NOMEGAPAR">    -1</i>
   <i name="DAMP_NEWTON">      0.80000001</i>
   <i name="LAMBDA">      1.00000000</i>
  </separator>
  <separator name="External order field" >
   <i name="OFIELD_KAPPA">      0.00000000</i>
   <v name="OFIELD_K">      0.00000000      0.00000000      0.00000000</v>
   <i name="OFIELD_Q6_NEAR">      0.00000000</i>
   <i name="OFIELD_Q6_FAR">      0.00000000</i>
   <i name="OFIELD_A">      0.00000000</i>
  </separator>
  <separator name="optional k-points parameters" >
   <i type="int" name="KPOINTS_OPT_MODE">     1</i>
   <i type="logical" name="LKPOINTS_OPT"> F  </i>
  </separator>
 </parameters>
 <atominfo>
  <atoms>       8 </atoms>
  <types>       2 </types>
  <array name="atoms" >
   <dimension dim="1">ion</dimension>
   <field type="string">element</field>
   <field type="int">atomtype</field>
   <set>
    <rc><c>Ti</c><c>   1</c></rc>
    <rc><c>Ti</c><c>   1</c></rc>
    <rc><c>Ti</c><c>   1</c></rc>
    <rc><c>Ti</c><c>   1</c></rc>
    <rc><c>Al</c><c>   2</c></rc>
    <rc><c>Al</c><c>   2</c></rc>
    <rc><c>Al</c><c>   2</c></rc>
    <rc><c>Al</c><c>   2</c></rc>
   </set>
  </array>
  <array name="atomtypes" >
   <dimension dim="1">type</dimension>
   <field type="int">atomspertype</field>
   <field type="string">element</field>
   <field>mass</field>
   <field>valence</field>
   <field type="string">pseudopotential</field>
   <set>
    <rc><c>   4</c><c>Ti</c><c>     47.88000000</c><c>     12.00000000</c><c>  PAW_PBE Ti_sv 26Sep2005               </c></rc>
    <rc><c>   4</c><c>Al</c><c>     26.98100000</c><c>      3.00000000</c><c>  PAW_PBE Al 04Jan2001                  </c></rc>
   </set>
  </array>
 </atominfo>
 <structure name="initialpos" >
  <crystal>
   <varray name="basis" >
    <v>       2.82380009       0.00000000       0.00000000 </v>
    <v>       0.00000000       4.07030010       0.00000000 </v>
    <v>       0.00000000       0.00000000      24.88339996 </v>
   </varray>
   <i name="volume">    286.00267712 </i>
   <varray name="rec_basis" >
    <v>       0.35413272       0.00000000       0.00000000 </v>
    <v>       0.00000000       0.24568213       0.00000000 </v>
    <v>       0.00000000       0.00000000       0.04018743 </v>
   </varray>
  </crystal>
  <varray name="positions" >
   <v>       0.00000000       0.00000000       0.33805001 </v>
   <v>       0.00000000       0.00000000       0.45153999 </v>
   <v>       0.00000000       0.00000000       0.56502003 </v>
   <v>       0.00000000       0.00000000       0.67850000 </v>
   <v>       0.50000000       0.50000000       0.28130999 </v>
   <v>       0.50000000       0.50000000       0.39478999 </v>
   <v>       0.50000000       0.50000000       0.50827998 </v>
   <v>       0.50000000       0.50000000       0.62176001 </v>
  </varray>
 </structure>
 <calculation>
  <scstep>
   <time name="dav">    1.05    1.05</time>
   <time name="total">    1.06    1.06</time>
   <energy>
    <i name="alphaZ">     68.58501286 </i>
    <i name="ewald">  13676.75659593 </i>
    <i name="hartreedc"> -19492.05798972 </i>
    <i name="XCdc">    141.57047788 </i>
    <i name="pawpsdc">   5323.06139147 </i>
    <i name="pawaedc">  -5116.90369196 </i>
    <i name="eentropy">      0.00537607 </i>
    <i name="bandstr">   -977.63745392 </i>
    <i name="atom">   6566.49377757 </i>
    <i name="e_fr_energy">    189.87349618 </i>
    <i name="e_wo_entrp">    189.86812010 </i>
    <i name="e_0_energy">    189.87170415 </i>
   </energy>
  </scstep>
  <scstep>
   <time name="dav">    1.85    1.85</time>
   <time name="total">    1.85    1.85</time>
   <energy>
    <i name="e_fr_energy">    -44.68460816 </i>
    <i name="e_wo_entrp">    -44.68059722 </i>
    <i name="e_0_energy">    -44.68327118 </i>
   </energy>
  </scstep>
  <scstep>
   <time name="dav">    1.72    1.72</time>
   <time name="total">    1.72    1.73</time>
   <energy>
    <i name="e_fr_energy">    -55.15139701 </i>
    <i name="e_wo_entrp">    -55.14782265 </i>
    <i name="e_0_energy">    -55.15020556 </i>
   </energy>
  </scstep>
  <scstep>
   <time name="dav">    2.93    2.93</time>
   <time name="total">    2.93    2.93</time>
   <energy>
    <i name="e_fr_energy">    -55.72808922 </i>
    <i name="e_wo_entrp">    -55.72474371 </i>
    <i name="e_0_energy">    -55.72697405 </i>
   </energy>
  </scstep>
  <scstep>
   <time name="dav">    1.77    1.77</time>
   <time name="total">    1.79    1.79</time>
   <energy>
    <i name="e_fr_energy">    -55.73088962 </i>
    <i name="e_wo_entrp">    -55.72752348 </i>
    <i name="e_0_energy">    -55.72976757 </i>
   </energy>
  </scstep>
  <scstep>
   <time name="dav">    3.01    3.01</time>
   <time name="total">    3.04    3.04</time>
   <energy>
    <i name="e_fr_energy">    -96.11927453 </i>
    <i name="e_wo_entrp">    -96.12221220 </i>
    <i name="e_0_energy">    -96.12025376 </i>
   </energy>
  </scstep>
  <scstep>
   <time name="dav">    3.02    3.02</time>
   <time name="total">    3.05    3.05</time>
   <energy>
    <i name="e_fr_energy">    -62.39580452 </i>
    <i name="e_wo_entrp">    -62.39544117 </i>
    <i name="e_0_energy">    -62.39568340 </i>
   </energy>
  </scstep>
  <scstep>
   <time name="dav">    3.33    3.33</time>
   <time name="total">    3.37    3.37</time>
   <energy>
    <i name="e_fr_energy">    -54.04151821 </i>
    <i name="e_wo_entrp">    -54.04476748 </i>
    <i name="e_0_energy">    -54.04260130 </i>
   </energy>
  </scstep>
  <scstep>
   <time name="dav">    3.25    3.25</time>
   <time name="total">    3.29    3.29</time>
   <energy>
    <i name="e_fr_energy">    -48.18989917 </i>
    <i name="e_wo_entrp">    -48.18673488 </i>
    <i name="e_0_energy">    -48.18884441 </i>
   </energy>
  </scstep>
  <scstep>
   <time name="dav">    2.45    2.45</time>
   <time name="total">    2.48    2.48</time>
   <energy>
    <i name="e_fr_energy">    -47.27455405 </i>
    <i name="e_wo_entrp">    -47.27424573 </i>
    <i name="e_0_energy">    -47.27445128 </i>
   </energy>
  </scstep>
  <scstep>
   <time name="dav">    2.80    2.80</time>
   <time name="total">    2.84    2.84</time>
   <energy>
    <i name="e_fr_energy">    -46.99312999 </i>
    <i name="e_wo_entrp">    -46.99765450 </i>
    <i name="e_0_energy">    -46.99463816 </i>
   </energy>
  </scstep>
  <scstep>
   <time name="dav">    2.55    2.55</time>
   <time name="total">    2.58    2.58</time>
   <energy>
    <i name="e_fr_energy">    -46.63712385 </i>
    <i name="e_wo_entrp">    -46.64350837 </i>
    <i name="e_0_energy">    -46.63925202 </i>
   </energy>
  </scstep>
  <scstep>
   <time name="dav">    2.68    2.68</time>
   <time name="total">    2.71    2.71</time>
   <energy>
    <i name="e_fr_energy">    -46.62106304 </i>
    <i name="e_wo_entrp">    -46.62698253 </i>
    <i name="e_0_energy">    -46.62303620 </i>
   </energy>
  </scstep>
  <scstep>
   <time name="dav">    2.77    2.77</time>
   <time name="total">    2.81    2.81</time>
   <energy>
    <i name="e_fr_energy">    -46.61826485 </i>
    <i name="e_wo_entrp">    -46.62247379 </i>
    <i name="e_0_energy">    -46.61966783 </i>
   </energy>
  </scstep>
  <scstep>
   <time name="dav">    2.59    2.59</time>
   <time name="total">    2.62    2.62</time>
   <energy>
    <i name="e_fr_energy">    -46.61474368 </i>
    <i name="e_wo_entrp">    -46.62146895 </i>
    <i name="e_0_energy">    -46.61698544 </i>
   </energy>
  </scstep>
  <scstep>
   <time name="dav">    2.93    2.93</time>
   <time name="total">    2.96    2.96</time>
   <energy>
    <i name="e_fr_energy">    -46.61354059 </i>
    <i name="e_wo_entrp">    -46.61952456 </i>
    <i name="e_0_energy">    -46.61553524 </i>
   </energy>
  </scstep>
  <scstep>
   <time name="dav">    2.30    2.30</time>
   <time name="total">    2.33    2.33</time>
   <energy>
    <i name="e_fr_energy">    -46.61386434 </i>
    <i name="e_wo_entrp">    -46.61993788 </i>
    <i name="e_0_energy">    -46.61588885 </i>
   </energy>
  </scstep>
  <scstep>
   <time name="dav">    2.00    2.00</time>
   <time name="total">    2.04    2.04</time>
   <energy>
    <i name="e_fr_energy">    -46.61407594 </i>
    <i name="e_wo_entrp">    -46.62017427 </i>
    <i name="e_0_energy">    -46.61610871 </i>
   </energy>
  </scstep>
  <scstep>
   <time name="dav">    2.08    2.08</time>
   <time name="total">    2.11    2.11</time>
   <energy>
    <i name="e_fr_energy">    -46.61410207 </i>
    <i name="e_wo_entrp">    -46.62020745 </i>
    <i name="e_0_energy">    -46.61613720 </i>
   </energy>
  </scstep>
  <scstep>
   <time name="dav">    1.71    1.71</time>
   <time name="total">    1.75    1.75</time>
   <energy>
    <i name="e_fr_energy">    -46.61421137 </i>
    <i name="e_wo_entrp">    -46.62028704 </i>
    <i name="e_0_energy">    -46.61623659 </i>
   </energy>
  </scstep>
  <scstep>
   <time name="dav">    1.90    1.90</time>
   <time name="total">    1.94    1.94</time>
   <energy>
    <i name="e_fr_energy">    -46.61428523 </i>
    <i name="e_wo_entrp">    -46.62032110 </i>
    <i name="e_0_energy">    -46.61629719 </i>
   </energy>
  </scstep>
  <scstep>
   <time name="dav">    2.65    2.65</time>
   <time name="total">    2.69    2.69</time>
   <energy>
    <i name="e_fr_energy">    -46.61437267 </i>
    <i name="e_wo_entrp">    -46.62041673 </i>
    <i name="e_0_energy">    -46.61638736 </i>
   </energy>
  </scstep>
  <scstep>
   <time name="dav">    2.38    2.38</time>
   <time name="total">    2.41    2.41</time>
   <energy>
    <i name="e_fr_energy">    -46.61445889 </i>
    <i name="e_wo_entrp">    -46.62051432 </i>
    <i name="e_0_energy">    -46.61647736 </i>
   </energy>
  </scstep>
  <scstep>
   <time name="dav">    2.16    2.16</time>
   <time name="total">    2.20    2.20</time>
   <energy>
    <i name="e_fr_energy">    -46.61451058 </i>
    <i name="e_wo_entrp">    -46.62055968 </i>
    <i name="e_0_energy">    -46.61652695 </i>
   </energy>
  </scstep>
  <scstep>
   <time name="dav">    2.16    2.16</time>
   <time name="total">    2.19    2.19</time>
   <energy>
    <i name="e_fr_energy">    -46.61453626 </i>
    <i name="e_wo_entrp">    -46.62058357 </i>
    <i name="e_0_energy">    -46.61655203 </i>
   </energy>
  </scstep>
  <scstep>
   <time name="dav">    1.66    1.66</time>
   <time name="total">    1.67    1.67</time>
   <energy>
    <i name="alphaZ">     68.58501286 </i>
    <i name="ewald">  13676.75659593 </i>
    <i name="hartreedc"> -19510.18924620 </i>
    <i name="XCdc">    138.02943081 </i>
    <i name="pawpsdc">   6438.12115375 </i>
    <i name="pawaedc">  -6217.89420531 </i>
    <i name="eentropy">      0.00604670 </i>
    <i name="bandstr">  -1206.52311117 </i>
    <i name="atom">   6566.49377757 </i>
    <i name="e_fr_energy">    -46.61454507 </i>
    <i name="e_wo_entrp">    -46.62059177 </i>
    <i name="e_0_energy">    -46.61656064 </i>
   </energy>
  </scstep>
  <structure>
   <crystal>
    <varray name="basis" >
     <v>       2.82380009       0.00000000       0.00000000 </v>
     <v>       0.00000000       4.07030010       0.00000000 </v>
     <v>       0.00000000       0.00000000      24.88339996 </v>
    </varray>
    <i name="volume">    286.00267712 </i>
    <varray name="rec_basis" >
     <v>       0.35413272       0.00000000       0.00000000 </v>
     <v>       0.00000000       0.24568213       0.00000000 </v>
     <v>       0.00000000       0.00000000       0.04018743 </v>
    </varray>
   </crystal>
   <varray name="positions" >
    <v>       0.00000000       0.00000000       0.33805001 </v>
    <v>       0.00000000       0.00000000       0.45153999 </v>
    <v>       0.00000000       0.00000000       0.56502003 </v>
    <v>       0.00000000       0.00000000       0.67850000 </v>
    <v>       0.50000000       0.50000000       0.28130999 </v>
    <v>       0.50000000       0.50000000       0.39478999 </v>
    <v>       0.50000000       0.50000000       0.50827998 </v>
    <v>       0.50000000       0.50000000       0.62176001 </v>
   </varray>
  </structure>
  <varray name="forces" >
   <v>       0.00000000       0.00000000      -0.31141228 </v>
   <v>       0.00000000       0.00000000       0.18384106 </v>
   <v>       0.00000000       0.00000000       0.21523547 </v>
   <v>       0.00000000       0.00000000      -0.67479195 </v>
   <v>       0.00000000       0.00000000       0.37575229 </v>
   <v>       0.00000000       0.00000000      -0.17180937 </v>
   <v>       0.00000000       0.00000000       0.01697713 </v>
   <v>       0.00000000       0.00000000       0.36620765 </v>
  </varray>
  <varray name="stress" >
   <v>     -13.09032593       0.00000000       0.00000000 </v>
   <v>       0.00000000     -20.76807978       0.00000000 </v>
   <v>       0.00000000       0.00000000     -11.99315564 </v>
  </varray>
  <energy>
   <i name="e_fr_energy">    -46.61454507 </i>
   <i name="e_wo_entrp">    -46.62059177 </i>
   <i name="e_0_energy">    -46.61656064 </i>
  </energy>
  <time name="totalsc">   64.22   64.23</time>
  <eigenvalues>
   <array>
    <dimension dim="1">band</dimension>
    <dimension dim="2">kpoint</dimension>
    <dimension dim="3">spin</dimension>
    <field>eigene</field>
    <field>occ</field>
    <set>
     <set comment="spin 1">
      <set comment="kpoint 1">
       <r>  -55.2354    1.0000 </r>
       <r>  -54.8977    1.0000 </r>
       <r>  -54.7208    1.0000 </r>
       <r>  -54.6833    1.0000 </r>
       <r>  -31.6246    1.0000 </r>
       <r>  -31.5368    1.0000 </r>
       <r>  -31.2536    1.0000 </r>
       <r>  -31.2372    1.0000 </r>
       <r>  -31.1127    1.0000 </r>
       <r>  -31.1064    1.0000 </r>
       <r>  -31.0822    1.0000 </r>
       <r>  -30.9941    1.0000 </r>
       <r>  -30.7972    1.0000 </r>
       <r>  -30.7783    1.0000 </r>
       <r>  -30.6799    1.0000 </r>
       <r>  -30.6539    1.0000 </r>
       <r>   -6.9245    1.0000 </r>
       <r>   -6.1633    1.0000 </r>
       <r>   -4.9816    1.0000 </r>
       <r>   -3.5034    1.0000 </r>
       <r>   -1.7959    1.0000 </r>
       <r>   -0.1901    1.0000 </r>
       <r>    0.1939    1.0000 </r>
       <r>    0.2864    1.0000 </r>
       <r>    0.6157    1.0000 </r>
       <r>    0.7037    1.0000 </r>
       <r>    0.8550    1.0000 </r>
       <r>    1.0510    1.0000 </r>
       <r>    1.1456    1.0000 </r>
       <r>    1.2297    1.0000 </r>
       <r>    1.5224    1.0000 </r>
       <r>    1.8923    0.4608 </r>
       <r>    2.1474   -0.0007 </r>
       <r>    3.5366   -0.0000 </r>
       <r>    3.5884   -0.0000 </r>
       <r>    3.6312   -0.0000 </r>
       <r>    3.8880    0.0000 </r>
       <r>    3.9798    0.0000 </r>
       <r>    4.0663    0.0000 </r>
       <r>    4.2016    0.0000 </r>
       <r>    4.3407    0.0000 </r>
       <r>    4.4099    0.0000 </r>
       <r>    4.5979    0.0000 </r>
       <r>    4.9437    0.0000 </r>
       <r>    5.1171    0.0000 </r>
       <r>    5.4413    0.0000 </r>
       <r>    5.6569    0.0000 </r>
       <r>    5.8067    0.0000 </r>
       <r>    6.3612    0.0000 </r>
       <r>    6.5415    0.0000 </r>
       <r>    6.9563    0.0000 </r>
       <r>    7.2842    0.0000 </r>
       <r>    7.6509    0.0000 </r>
       <r>    7.8918    0.0000 </r>
       <r>    8.0036    0.0000 </r>
       <r>    8.3578    0.0000 </r>
       <r>    8.3601    0.0000 </r>
       <r>    8.6090    0.0000 </r>
       <r>   10.5045    0.0000 </r>
       <r>   10.6664    0.0000 </r>
       <r>   10.9567    0.0000 </r>
       <r>   10.9719    0.0000 </r>
       <r>   11.3082    0.0000 </r>
       <r>   11.3496    0.0000 </r>
      </set>
      <set comment="kpoint 2">
       <r>  -55.2290    1.0000 </r>
       <r>  -54.8912    1.0000 </r>
       <r>  -54.7141    1.0000 </r>
       <r>  -54.6767    1.0000 </r>
       <r>  -31.6184    1.0000 </r>
       <r>  -31.5309    1.0000 </r>
       <r>  -31.2473    1.0000 </r>
       <r>  -31.2304    1.0000 </r>
       <r>  -31.1605    1.0000 </r>
       <r>  -31.1062    1.0000 </r>
       <r>  -31.0758    1.0000 </r>
       <r>  -30.9876    1.0000 </r>
       <r>  -30.8518    1.0000 </r>
       <r>  -30.7729    1.0000 </r>
       <r>  -30.7356    1.0000 </r>
       <r>  -30.7084    1.0000 </r>
       <r>   -6.6842    1.0000 </r>
       <r>   -5.9293    1.0000 </r>
       <r>   -4.7579    1.0000 </r>
       <r>   -3.3066    1.0000 </r>
       <r>   -1.5731    1.0000 </r>
       <r>   -0.0131    1.0000 </r>
       <r>    0.3731    1.0000 </r>
       <r>    0.4111    1.0000 </r>
       <r>    0.6986    1.0000 </r>
       <r>    0.8370    1.0000 </r>
       <r>    1.0477    1.0000 </r>
       <r>    1.1061    1.0000 </r>
       <r>    1.1672    1.0000 </r>
       <r>    1.3911    1.0000 </r>
       <r>    1.7496    1.0325 </r>
       <r>    1.9760   -0.0085 </r>
       <r>    2.0226   -0.0335 </r>
       <r>    3.2632   -0.0000 </r>
       <r>    3.2920   -0.0000 </r>
       <r>    3.4827   -0.0000 </r>
       <r>    3.6142   -0.0000 </r>
       <r>    3.7204   -0.0000 </r>
       <r>    3.7440   -0.0000 </r>
       <r>    3.8149   -0.0000 </r>
       <r>    4.2131    0.0000 </r>
       <r>    4.4536    0.0000 </r>
       <r>    4.6868    0.0000 </r>
       <r>    5.2432    0.0000 </r>
       <r>    5.3164    0.0000 </r>
       <r>    5.5982    0.0000 </r>
       <r>    5.8416    0.0000 </r>
       <r>    6.2676    0.0000 </r>
       <r>    6.5573    0.0000 </r>
       <r>    6.7298    0.0000 </r>
       <r>    7.5343    0.0000 </r>
       <r>    7.6549    0.0000 </r>
       <r>    7.9028    0.0000 </r>
       <r>    7.9451    0.0000 </r>
       <r>    8.0418    0.0000 </r>
       <r>    8.1641    0.0000 </r>
       <r>    8.4617    0.0000 </r>
       <r>    8.6557    0.0000 </r>
       <r>    9.0241    0.0000 </r>
       <r>    9.4214    0.0000 </r>
       <r>   10.2190    0.0000 </r>
       <r>   10.8856    0.0000 </r>
       <r>   10.9950    0.0000 </r>
       <r>   11.2962    0.0000 </r>
      </set>
      <set comment="kpoint 3">
       <r>  -55.2126    1.0000 </r>
       <r>  -54.8747    1.0000 </r>
       <r>  -54.6973    1.0000 </r>
       <r>  -54.6601    1.0000 </r>
       <r>  -31.6027    1.0000 </r>
       <r>  -31.5158    1.0000 </r>
       <r>  -31.2960    1.0000 </r>
       <r>  -31.2311    1.0000 </r>
       <r>  -31.2130    1.0000 </r>
       <r>  -31.0896    1.0000 </r>
       <r>  -31.0598    1.0000 </r>
       <r>  -30.9887    1.0000 </r>
       <r>  -30.9712    1.0000 </r>
       <r>  -30.8750    1.0000 </r>
       <r>  -30.8451    1.0000 </r>
       <r>  -30.7592    1.0000 </r>
       <r>   -5.9786    1.0000 </r>
       <r>   -5.2432    1.0000 </r>
       <r>   -4.1058    1.0000 </r>
       <r>   -2.7502    1.0000 </r>
       <r>   -0.9370    1.0000 </r>
       <r>    0.4148    1.0000 </r>
       <r>    0.7430    1.0000 </r>
       <r>    0.7624    1.0000 </r>
       <r>    0.8686    1.0000 </r>
       <r>    0.9118    1.0000 </r>
       <r>    0.9767    1.0000 </r>
       <r>    1.2678    1.0000 </r>
       <r>    1.4996    1.0000 </r>
       <r>    1.6904    1.0087 </r>
       <r>    1.7867    1.0260 </r>
       <r>    1.9865   -0.0239 </r>
       <r>    2.3147   -0.0000 </r>
       <r>    2.6820   -0.0000 </r>
       <r>    2.7780   -0.0000 </r>
       <r>    2.8429   -0.0000 </r>
       <r>    3.0071   -0.0000 </r>
       <r>    3.3451   -0.0000 </r>
       <r>    3.7035   -0.0000 </r>
       <r>    3.7192   -0.0000 </r>
       <r>    4.1367    0.0000 </r>
       <r>    4.2847    0.0000 </r>
       <r>    5.2038    0.0000 </r>
       <r>    5.6768    0.0000 </r>
       <r>    5.7337    0.0000 </r>
       <r>    5.9340    0.0000 </r>
       <r>    6.0407    0.0000 </r>
       <r>    6.1146    0.0000 </r>
       <r>    6.6185    0.0000 </r>
       <r>    7.1576    0.0000 </r>
       <r>    7.2228    0.0000 </r>
       <r>    7.6544    0.0000 </r>
       <r>    7.8498    0.0000 </r>
       <r>    8.1880    0.0000 </r>
       <r>    8.2126    0.0000 </r>
       <r>    8.2935    0.0000 </r>
       <r>    8.5466    0.0000 </r>
       <r>    8.8499    0.0000 </r>
       <r>    9.2186    0.0000 </r>
       <r>    9.5310    0.0000 </r>
       <r>    9.5991    0.0000 </r>
       <r>    9.6520    0.0000 </r>
       <r>   10.9844    0.0000 </r>
       <r>   11.1361    0.0000 </r>
      </set>
      <set comment="kpoint 4">
       <r>  -55.1939    1.0000 </r>
       <r>  -54.8558    1.0000 </r>
       <r>  -54.6780    1.0000 </r>
       <r>  -54.6411    1.0000 </r>
       <r>  -31.5848    1.0000 </r>
       <r>  -31.4986    1.0000 </r>
       <r>  -31.4474    1.0000 </r>
       <r>  -31.2127    1.0000 </r>
       <r>  -31.1932    1.0000 </r>
       <r>  -31.1414    1.0000 </r>
       <r>  -31.0706    1.0000 </r>
       <r>  -31.0415    1.0000 </r>
       <r>  -31.0315    1.0000 </r>
       <r>  -30.9976    1.0000 </r>
       <r>  -30.9521    1.0000 </r>
       <r>  -30.7436    1.0000 </r>
       <r>   -4.8464    1.0000 </r>
       <r>   -4.1478    1.0000 </r>
       <r>   -3.0828    1.0000 </r>
       <r>   -1.9474    1.0000 </r>
       <r>   -0.0259    1.0000 </r>
       <r>    0.1878    1.0000 </r>
       <r>    0.4133    1.0000 </r>
       <r>    0.5690    1.0000 </r>
       <r>    0.7045    1.0000 </r>
       <r>    0.8724    1.0000 </r>
       <r>    1.1686    1.0000 </r>
       <r>    1.3804    1.0000 </r>
       <r>    1.4929    1.0000 </r>
       <r>    1.6342    1.0010 </r>
       <r>    1.8179    0.9589 </r>
       <r>    1.9978   -0.0327 </r>
       <r>    2.1272   -0.0018 </r>
       <r>    2.1312   -0.0015 </r>
       <r>    2.2605   -0.0000 </r>
       <r>    2.9492   -0.0000 </r>
       <r>    3.0077   -0.0000 </r>
       <r>    3.3041   -0.0000 </r>
       <r>    3.6832   -0.0000 </r>
       <r>    3.8470   -0.0000 </r>
       <r>    3.9795    0.0000 </r>
       <r>    4.5363    0.0000 </r>
       <r>    5.3107    0.0000 </r>
       <r>    5.3696    0.0000 </r>
       <r>    5.5113    0.0000 </r>
       <r>    6.1723    0.0000 </r>
       <r>    6.2964    0.0000 </r>
       <r>    7.0727    0.0000 </r>
       <r>    7.1053    0.0000 </r>
       <r>    7.3618    0.0000 </r>
       <r>    7.6255    0.0000 </r>
       <r>    7.9108    0.0000 </r>
       <r>    7.9635    0.0000 </r>
       <r>    8.4063    0.0000 </r>
       <r>    8.4320    0.0000 </r>
       <r>    8.4773    0.0000 </r>
       <r>    8.7300    0.0000 </r>
       <r>    8.8501    0.0000 </r>
       <r>    9.5753    0.0000 </r>
       <r>   10.0341    0.0000 </r>
       <r>   10.3369    0.0000 </r>
       <r>   10.4997    0.0000 </r>
       <r>   10.7237    0.0000 </r>
       <r>   11.1672    0.0000 </r>
      </set>
      <set comment="kpoint 5">
       <r>  -55.1816    1.0000 </r>
       <r>  -54.8435    1.0000 </r>
       <r>  -54.6654    1.0000 </r>
       <r>  -54.6286    1.0000 </r>
       <r>  -31.5731    1.0000 </r>
       <r>  -31.5449    1.0000 </r>
       <r>  -31.4873    1.0000 </r>
       <r>  -31.2398    1.0000 </r>
       <r>  -31.2006    1.0000 </r>
       <r>  -31.1802    1.0000 </r>
       <r>  -31.1316    1.0000 </r>
       <r>  -31.0957    1.0000 </r>
       <r>  -31.0582    1.0000 </r>
       <r>  -31.0295    1.0000 </r>
       <r>  -30.9400    1.0000 </r>
       <r>  -30.7335    1.0000 </r>
       <r>   -3.3458    1.0000 </r>
       <r>   -2.7219    1.0000 </r>
       <r>   -1.8621    1.0000 </r>
       <r>   -1.5737    1.0000 </r>
       <r>   -1.2280    1.0000 </r>
       <r>   -0.9253    1.0000 </r>
       <r>   -0.1432    1.0000 </r>
       <r>    0.3464    1.0000 </r>
       <r>    0.7259    1.0000 </r>
       <r>    0.7307    1.0000 </r>
       <r>    1.2480    1.0000 </r>
       <r>    1.4239    1.0000 </r>
       <r>    1.6642    1.0035 </r>
       <r>    1.7386    1.0281 </r>
       <r>    1.8012    1.0048 </r>
       <r>    1.8116    0.9790 </r>
       <r>    2.2312   -0.0000 </r>
       <r>    2.2610   -0.0000 </r>
       <r>    2.2987   -0.0000 </r>
       <r>    2.5112   -0.0000 </r>
       <r>    2.9519   -0.0000 </r>
       <r>    3.0612   -0.0000 </r>
       <r>    3.3256   -0.0000 </r>
       <r>    3.9656    0.0000 </r>
       <r>    4.1300    0.0000 </r>
       <r>    4.4503    0.0000 </r>
       <r>    5.5878    0.0000 </r>
       <r>    5.8451    0.0000 </r>
       <r>    5.9706    0.0000 </r>
       <r>    6.6846    0.0000 </r>
       <r>    7.2298    0.0000 </r>
       <r>    7.3611    0.0000 </r>
       <r>    7.7253    0.0000 </r>
       <r>    7.9777    0.0000 </r>
       <r>    8.0117    0.0000 </r>
       <r>    8.1611    0.0000 </r>
       <r>    8.3116    0.0000 </r>
       <r>    8.5085    0.0000 </r>
       <r>    8.6467    0.0000 </r>
       <r>    8.9245    0.0000 </r>
       <r>    9.1065    0.0000 </r>
       <r>    9.3011    0.0000 </r>
       <r>    9.8118    0.0000 </r>
       <r>    9.8614    0.0000 </r>
       <r>    9.9954    0.0000 </r>
       <r>   10.1969    0.0000 </r>
       <r>   10.2462    0.0000 </r>
       <r>   10.7338    0.0000 </r>
      </set>
      <set comment="kpoint 6">
       <r>  -55.2353    1.0000 </r>
       <r>  -54.8976    1.0000 </r>
       <r>  -54.7207    1.0000 </r>
       <r>  -54.6832    1.0000 </r>
       <r>  -31.6243    1.0000 </r>
       <r>  -31.5396    1.0000 </r>
       <r>  -31.2573    1.0000 </r>
       <r>  -31.2367    1.0000 </r>
       <r>  -31.1167    1.0000 </r>
       <r>  -31.1063    1.0000 </r>
       <r>  -31.0855    1.0000 </r>
       <r>  -30.9936    1.0000 </r>
       <r>  -30.7971    1.0000 </r>
       <r>  -30.7781    1.0000 </r>
       <r>  -30.6797    1.0000 </r>
       <r>  -30.6537    1.0000 </r>
       <r>   -6.6801    1.0000 </r>
       <r>   -5.9380    1.0000 </r>
       <r>   -4.7913    1.0000 </r>
       <r>   -3.4113    1.0000 </r>
       <r>   -1.6080    1.0000 </r>
       <r>   -0.7923    1.0000 </r>
       <r>   -0.4635    1.0000 </r>
       <r>   -0.2047    1.0000 </r>
       <r>    0.3483    1.0000 </r>
       <r>    0.7515    1.0000 </r>
       <r>    1.0233    1.0000 </r>
       <r>    1.0886    1.0000 </r>
       <r>    1.2971    1.0000 </r>
       <r>    1.5079    1.0000 </r>
       <r>    1.6339    1.0010 </r>
       <r>    2.0746   -0.0119 </r>
       <r>    2.1089   -0.0038 </r>
       <r>    3.4117   -0.0000 </r>
       <r>    3.5466   -0.0000 </r>
       <r>    3.6413   -0.0000 </r>
       <r>    3.8922    0.0000 </r>
       <r>    3.9224    0.0000 </r>
       <r>    3.9878    0.0000 </r>
       <r>    4.1301    0.0000 </r>
       <r>    4.1456    0.0000 </r>
       <r>    4.2791    0.0000 </r>
       <r>    4.4211    0.0000 </r>
       <r>    4.6573    0.0000 </r>
       <r>    4.9496    0.0000 </r>
       <r>    5.1469    0.0000 </r>
       <r>    5.4263    0.0000 </r>
       <r>    5.4865    0.0000 </r>
       <r>    6.0405    0.0000 </r>
       <r>    6.5539    0.0000 </r>
       <r>    6.8166    0.0000 </r>
       <r>    7.2979    0.0000 </r>
       <r>    8.2330    0.0000 </r>
       <r>    8.6245    0.0000 </r>
       <r>    8.8076    0.0000 </r>
       <r>    8.9201    0.0000 </r>
       <r>    9.0243    0.0000 </r>
       <r>    9.3894    0.0000 </r>
       <r>   10.0543    0.0000 </r>
       <r>   10.6316    0.0000 </r>
       <r>   10.8892    0.0000 </r>
       <r>   10.9800    0.0000 </r>
       <r>   11.1614    0.0000 </r>
       <r>   11.4732    0.0000 </r>
      </set>
      <set comment="kpoint 7">
       <r>  -55.2289    1.0000 </r>
       <r>  -54.8911    1.0000 </r>
       <r>  -54.7140    1.0000 </r>
       <r>  -54.6766    1.0000 </r>
       <r>  -31.6181    1.0000 </r>
       <r>  -31.5336    1.0000 </r>
       <r>  -31.2508    1.0000 </r>
       <r>  -31.2299    1.0000 </r>
       <r>  -31.1604    1.0000 </r>
       <r>  -31.1100    1.0000 </r>
       <r>  -31.0791    1.0000 </r>
       <r>  -30.9872    1.0000 </r>
       <r>  -30.8516    1.0000 </r>
       <r>  -30.7727    1.0000 </r>
       <r>  -30.7354    1.0000 </r>
       <r>  -30.7083    1.0000 </r>
       <r>   -6.4469    1.0000 </r>
       <r>   -5.7107    1.0000 </r>
       <r>   -4.5735    1.0000 </r>
       <r>   -3.2163    1.0000 </r>
       <r>   -1.3865    1.0000 </r>
       <r>   -0.6212    1.0000 </r>
       <r>   -0.2854    1.0000 </r>
       <r>   -0.0261    1.0000 </r>
       <r>    0.4091    1.0000 </r>
       <r>    0.8844    1.0000 </r>
       <r>    1.1770    1.0000 </r>
       <r>    1.2097    1.0000 </r>
       <r>    1.4444    1.0000 </r>
       <r>    1.6737    1.0050 </r>
       <r>    1.7307    1.0245 </r>
       <r>    2.0690   -0.0139 </r>
       <r>    2.1210   -0.0024 </r>
       <r>    3.1204   -0.0000 </r>
       <r>    3.2935   -0.0000 </r>
       <r>    3.4382   -0.0000 </r>
       <r>    3.5244   -0.0000 </r>
       <r>    3.5984   -0.0000 </r>
       <r>    3.6177   -0.0000 </r>
       <r>    3.9027    0.0000 </r>
       <r>    4.1392    0.0000 </r>
       <r>    4.2748    0.0000 </r>
       <r>    4.6488    0.0000 </r>
       <r>    4.7682    0.0000 </r>
       <r>    5.2591    0.0000 </r>
       <r>    5.4534    0.0000 </r>
       <r>    5.6447    0.0000 </r>
       <r>    5.7542    0.0000 </r>
       <r>    6.2739    0.0000 </r>
       <r>    6.7769    0.0000 </r>
       <r>    7.0156    0.0000 </r>
       <r>    7.5890    0.0000 </r>
       <r>    8.3221    0.0000 </r>
       <r>    8.4986    0.0000 </r>
       <r>    8.8739    0.0000 </r>
       <r>    8.9972    0.0000 </r>
       <r>    9.2262    0.0000 </r>
       <r>    9.2936    0.0000 </r>
       <r>    9.5273    0.0000 </r>
       <r>    9.6788    0.0000 </r>
       <r>   10.1202    0.0000 </r>
       <r>   10.5251    0.0000 </r>
       <r>   10.5825    0.0000 </r>
       <r>   11.3368    0.0000 </r>
      </set>
      <set comment="kpoint 8">
       <r>  -55.2125    1.0000 </r>
       <r>  -54.8746    1.0000 </r>
       <r>  -54.6971    1.0000 </r>
       <r>  -54.6600    1.0000 </r>
       <r>  -31.6025    1.0000 </r>
       <r>  -31.5184    1.0000 </r>
       <r>  -31.2958    1.0000 </r>
       <r>  -31.2344    1.0000 </r>
       <r>  -31.2126    1.0000 </r>
       <r>  -31.0931    1.0000 </r>
       <r>  -31.0629    1.0000 </r>
       <r>  -30.9884    1.0000 </r>
       <r>  -30.9708    1.0000 </r>
       <r>  -30.8747    1.0000 </r>
       <r>  -30.8448    1.0000 </r>
       <r>  -30.7589    1.0000 </r>
       <r>   -5.7630    1.0000 </r>
       <r>   -5.0453    1.0000 </r>
       <r>   -3.9392    1.0000 </r>
       <r>   -2.6604    1.0000 </r>
       <r>   -0.7717    1.0000 </r>
       <r>   -0.2200    1.0000 </r>
       <r>    0.0918    1.0000 </r>
       <r>    0.3725    1.0000 </r>
       <r>    0.5643    1.0000 </r>
       <r>    1.1926    1.0000 </r>
       <r>    1.2787    1.0000 </r>
       <r>    1.5199    1.0000 </r>
       <r>    1.5703    1.0000 </r>
       <r>    1.6000    1.0002 </r>
       <r>    1.9649    0.0173 </r>
       <r>    2.0665   -0.0149 </r>
       <r>    2.4189   -0.0000 </r>
       <r>    2.5523   -0.0000 </r>
       <r>    2.7174   -0.0000 </r>
       <r>    2.8450   -0.0000 </r>
       <r>    2.9609   -0.0000 </r>
       <r>    3.4465   -0.0000 </r>
       <r>    3.5909   -0.0000 </r>
       <r>    3.8466   -0.0000 </r>
       <r>    4.1266    0.0000 </r>
       <r>    4.3136    0.0000 </r>
       <r>    4.6090    0.0000 </r>
       <r>    5.2671    0.0000 </r>
       <r>    5.7418    0.0000 </r>
       <r>    5.9403    0.0000 </r>
       <r>    6.0276    0.0000 </r>
       <r>    6.3045    0.0000 </r>
       <r>    6.3496    0.0000 </r>
       <r>    6.7992    0.0000 </r>
       <r>    6.8959    0.0000 </r>
       <r>    7.3837    0.0000 </r>
       <r>    7.9406    0.0000 </r>
       <r>    8.1817    0.0000 </r>
       <r>    8.3534    0.0000 </r>
       <r>    8.7402    0.0000 </r>
       <r>    9.2423    0.0000 </r>
       <r>    9.4866    0.0000 </r>
       <r>    9.6391    0.0000 </r>
       <r>    9.8063    0.0000 </r>
       <r>    9.8640    0.0000 </r>
       <r>   10.0949    0.0000 </r>
       <r>   10.7891    0.0000 </r>
       <r>   10.9619    0.0000 </r>
      </set>
      <set comment="kpoint 9">
       <r>  -55.1938    1.0000 </r>
       <r>  -54.8557    1.0000 </r>
       <r>  -54.6779    1.0000 </r>
       <r>  -54.6409    1.0000 </r>
       <r>  -31.5846    1.0000 </r>
       <r>  -31.5010    1.0000 </r>
       <r>  -31.4471    1.0000 </r>
       <r>  -31.2157    1.0000 </r>
       <r>  -31.1929    1.0000 </r>
       <r>  -31.1410    1.0000 </r>
       <r>  -31.0738    1.0000 </r>
       <r>  -31.0444    1.0000 </r>
       <r>  -31.0310    1.0000 </r>
       <r>  -30.9973    1.0000 </r>
       <r>  -30.9518    1.0000 </r>
       <r>  -30.7434    1.0000 </r>
       <r>   -4.6706    1.0000 </r>
       <r>   -3.9875    1.0000 </r>
       <r>   -2.9471    1.0000 </r>
       <r>   -1.8451    1.0000 </r>
       <r>   -0.0326    1.0000 </r>
       <r>    0.0438    1.0000 </r>
       <r>    0.3006    1.0000 </r>
       <r>    0.3496    1.0000 </r>
       <r>    0.3890    1.0000 </r>
       <r>    0.5730    1.0000 </r>
       <r>    1.1597    1.0000 </r>
       <r>    1.3879    1.0000 </r>
       <r>    1.5295    1.0000 </r>
       <r>    1.6478    1.0018 </r>
       <r>    1.8913    0.4690 </r>
       <r>    2.0200   -0.0341 </r>
       <r>    2.1618   -0.0004 </r>
       <r>    2.4789   -0.0000 </r>
       <r>    2.7385   -0.0000 </r>
       <r>    2.9435   -0.0000 </r>
       <r>    3.2459   -0.0000 </r>
       <r>    3.4456   -0.0000 </r>
       <r>    3.7036   -0.0000 </r>
       <r>    3.7624   -0.0000 </r>
       <r>    4.2302    0.0000 </r>
       <r>    4.5914    0.0000 </r>
       <r>    4.9275    0.0000 </r>
       <r>    5.4349    0.0000 </r>
       <r>    5.6565    0.0000 </r>
       <r>    5.6785    0.0000 </r>
       <r>    5.9710    0.0000 </r>
       <r>    6.4072    0.0000 </r>
       <r>    6.5946    0.0000 </r>
       <r>    6.7546    0.0000 </r>
       <r>    7.4047    0.0000 </r>
       <r>    7.6724    0.0000 </r>
       <r>    7.7510    0.0000 </r>
       <r>    8.5000    0.0000 </r>
       <r>    8.6576    0.0000 </r>
       <r>    8.8647    0.0000 </r>
       <r>    9.2600    0.0000 </r>
       <r>    9.5618    0.0000 </r>
       <r>    9.6279    0.0000 </r>
       <r>   10.0712    0.0000 </r>
       <r>   10.5263    0.0000 </r>
       <r>   10.5481    0.0000 </r>
       <r>   10.7344    0.0000 </r>
       <r>   10.8624    0.0000 </r>
      </set>
      <set comment="kpoint 10">
       <r>  -55.1815    1.0000 </r>
       <r>  -54.8434    1.0000 </r>
       <r>  -54.6653    1.0000 </r>
       <r>  -54.6285    1.0000 </r>
       <r>  -31.5729    1.0000 </r>
       <r>  -31.5445    1.0000 </r>
       <r>  -31.4896    1.0000 </r>
       <r>  -31.2393    1.0000 </r>
       <r>  -31.2034    1.0000 </r>
       <r>  -31.1799    1.0000 </r>
       <r>  -31.1310    1.0000 </r>
       <r>  -31.0953    1.0000 </r>
       <r>  -31.0611    1.0000 </r>
       <r>  -31.0322    1.0000 </r>
       <r>  -30.9398    1.0000 </r>
       <r>  -30.7333    1.0000 </r>
       <r>   -3.2446    1.0000 </r>
       <r>   -2.6316    1.0000 </r>
       <r>   -1.7658    1.0000 </r>
       <r>   -1.5038    1.0000 </r>
       <r>   -1.0893    1.0000 </r>
       <r>   -0.8774    1.0000 </r>
       <r>   -0.1502    1.0000 </r>
       <r>    0.3121    1.0000 </r>
       <r>    0.3547    1.0000 </r>
       <r>    0.5222    1.0000 </r>
       <r>    0.8769    1.0000 </r>
       <r>    1.0098    1.0000 </r>
       <r>    1.7113    1.0159 </r>
       <r>    1.9255    0.2038 </r>
       <r>    1.9712    0.0014 </r>
       <r>    2.1806   -0.0001 </r>
       <r>    2.3337   -0.0000 </r>
       <r>    2.5793   -0.0000 </r>
       <r>    2.9186   -0.0000 </r>
       <r>    3.0330   -0.0000 </r>
       <r>    3.0923   -0.0000 </r>
       <r>    3.2477   -0.0000 </r>
       <r>    3.5451   -0.0000 </r>
       <r>    3.8775   -0.0000 </r>
       <r>    4.1033    0.0000 </r>
       <r>    4.6843    0.0000 </r>
       <r>    5.2128    0.0000 </r>
       <r>    5.5480    0.0000 </r>
       <r>    5.7831    0.0000 </r>
       <r>    6.2013    0.0000 </r>
       <r>    6.4480    0.0000 </r>
       <r>    6.8773    0.0000 </r>
       <r>    6.9283    0.0000 </r>
       <r>    7.2671    0.0000 </r>
       <r>    7.6331    0.0000 </r>
       <r>    7.9179    0.0000 </r>
       <r>    8.0386    0.0000 </r>
       <r>    8.5640    0.0000 </r>
       <r>    8.7498    0.0000 </r>
       <r>    8.8810    0.0000 </r>
       <r>    9.1725    0.0000 </r>
       <r>    9.3295    0.0000 </r>
       <r>    9.6587    0.0000 </r>
       <r>    9.9419    0.0000 </r>
       <r>   10.0907    0.0000 </r>
       <r>   10.2353    0.0000 </r>
       <r>   10.3948    0.0000 </r>
       <r>   10.6729    0.0000 </r>
      </set>
      <set comment="kpoint 11">
       <r>  -55.2351    1.0000 </r>
       <r>  -54.8973    1.0000 </r>
       <r>  -54.7204    1.0000 </r>
       <r>  -54.6829    1.0000 </r>
       <r>  -31.6236    1.0000 </r>
       <r>  -31.5453    1.0000 </r>
       <r>  -31.2646    1.0000 </r>
       <r>  -31.2357    1.0000 </r>
       <r>  -31.1245    1.0000 </r>
       <r>  -31.1061    1.0000 </r>
       <r>  -31.0923    1.0000 </r>
       <r>  -30.9928    1.0000 </r>
       <r>  -30.7968    1.0000 </r>
       <r>  -30.7776    1.0000 </r>
       <r>  -30.6794    1.0000 </r>
       <r>  -30.6535    1.0000 </r>
       <r>   -6.0323    1.0000 </r>
       <r>   -5.3545    1.0000 </r>
       <r>   -4.3244    1.0000 </r>
       <r>   -3.2434    1.0000 </r>
       <r>   -2.2924    1.0000 </r>
       <r>   -1.6597    1.0000 </r>
       <r>   -1.0234    1.0000 </r>
       <r>   -0.7649    1.0000 </r>
       <r>    0.2467    1.0000 </r>
       <r>    0.7943    1.0000 </r>
       <r>    1.0683    1.0000 </r>
       <r>    1.2227    1.0000 </r>
       <r>    1.4309    1.0000 </r>
       <r>    1.5163    1.0000 </r>
       <r>    1.8603    0.7222 </r>
       <r>    2.2454   -0.0000 </r>
       <r>    2.4400   -0.0000 </r>
       <r>    3.0953   -0.0000 </r>
       <r>    3.2263   -0.0000 </r>
       <r>    3.4944   -0.0000 </r>
       <r>    3.6268   -0.0000 </r>
       <r>    3.6626   -0.0000 </r>
       <r>    3.7802   -0.0000 </r>
       <r>    3.8461   -0.0000 </r>
       <r>    3.8514   -0.0000 </r>
       <r>    3.9243    0.0000 </r>
       <r>    4.0040    0.0000 </r>
       <r>    4.1628    0.0000 </r>
       <r>    4.4383    0.0000 </r>
       <r>    4.9604    0.0000 </r>
       <r>    5.5841    0.0000 </r>
       <r>    6.0566    0.0000 </r>
       <r>    6.2862    0.0000 </r>
       <r>    6.6791    0.0000 </r>
       <r>    7.2776    0.0000 </r>
       <r>    7.5626    0.0000 </r>
       <r>    7.7485    0.0000 </r>
       <r>    8.4627    0.0000 </r>
       <r>    9.1207    0.0000 </r>
       <r>    9.3350    0.0000 </r>
       <r>    9.4108    0.0000 </r>
       <r>    9.6485    0.0000 </r>
       <r>   10.5554    0.0000 </r>
       <r>   10.9084    0.0000 </r>
       <r>   10.9614    0.0000 </r>
       <r>   11.0592    0.0000 </r>
       <r>   11.2409    0.0000 </r>
       <r>   11.8846    0.0000 </r>
      </set>
      <set comment="kpoint 12">
       <r>  -55.2287    1.0000 </r>
       <r>  -54.8908    1.0000 </r>
       <r>  -54.7137    1.0000 </r>
       <r>  -54.6764    1.0000 </r>
       <r>  -31.6175    1.0000 </r>
       <r>  -31.5391    1.0000 </r>
       <r>  -31.2579    1.0000 </r>
       <r>  -31.2290    1.0000 </r>
       <r>  -31.1601    1.0000 </r>
       <r>  -31.1176    1.0000 </r>
       <r>  -31.0858    1.0000 </r>
       <r>  -30.9864    1.0000 </r>
       <r>  -30.8513    1.0000 </r>
       <r>  -30.7723    1.0000 </r>
       <r>  -30.7350    1.0000 </r>
       <r>  -30.7079    1.0000 </r>
       <r>   -5.8227    1.0000 </r>
       <r>   -5.1489    1.0000 </r>
       <r>   -4.1235    1.0000 </r>
       <r>   -3.0463    1.0000 </r>
       <r>   -2.0704    1.0000 </r>
       <r>   -1.4519    1.0000 </r>
       <r>   -0.8315    1.0000 </r>
       <r>   -0.5658    1.0000 </r>
       <r>    0.3661    1.0000 </r>
       <r>    0.7996    1.0000 </r>
       <r>    1.2432    1.0000 </r>
       <r>    1.3466    1.0000 </r>
       <r>    1.5772    1.0001 </r>
       <r>    1.7146    1.0172 </r>
       <r>    2.0252   -0.0326 </r>
       <r>    2.2993   -0.0000 </r>
       <r>    2.4120   -0.0000 </r>
       <r>    2.9033   -0.0000 </r>
       <r>    2.9781   -0.0000 </r>
       <r>    3.1725   -0.0000 </r>
       <r>    3.3601   -0.0000 </r>
       <r>    3.4305   -0.0000 </r>
       <r>    3.6568   -0.0000 </r>
       <r>    3.8290   -0.0000 </r>
       <r>    3.9664    0.0000 </r>
       <r>    4.0404    0.0000 </r>
       <r>    4.2085    0.0000 </r>
       <r>    4.3259    0.0000 </r>
       <r>    4.5029    0.0000 </r>
       <r>    4.7352    0.0000 </r>
       <r>    5.7193    0.0000 </r>
       <r>    6.2674    0.0000 </r>
       <r>    6.4652    0.0000 </r>
       <r>    6.8242    0.0000 </r>
       <r>    7.4797    0.0000 </r>
       <r>    7.7301    0.0000 </r>
       <r>    7.8946    0.0000 </r>
       <r>    8.6582    0.0000 </r>
       <r>    8.8378    0.0000 </r>
       <r>    9.2700    0.0000 </r>
       <r>    9.5744    0.0000 </r>
       <r>    9.8259    0.0000 </r>
       <r>   10.0418    0.0000 </r>
       <r>   10.1099    0.0000 </r>
       <r>   10.4113    0.0000 </r>
       <r>   10.9608    0.0000 </r>
       <r>   11.0296    0.0000 </r>
       <r>   11.2308    0.0000 </r>
      </set>
      <set comment="kpoint 13">
       <r>  -55.2123    1.0000 </r>
       <r>  -54.8743    1.0000 </r>
       <r>  -54.6969    1.0000 </r>
       <r>  -54.6597    1.0000 </r>
       <r>  -31.6019    1.0000 </r>
       <r>  -31.5236    1.0000 </r>
       <r>  -31.2953    1.0000 </r>
       <r>  -31.2410    1.0000 </r>
       <r>  -31.2118    1.0000 </r>
       <r>  -31.1001    1.0000 </r>
       <r>  -31.0691    1.0000 </r>
       <r>  -30.9878    1.0000 </r>
       <r>  -30.9701    1.0000 </r>
       <r>  -30.8741    1.0000 </r>
       <r>  -30.8443    1.0000 </r>
       <r>  -30.7585    1.0000 </r>
       <r>   -5.2115    1.0000 </r>
       <r>   -4.5495    1.0000 </r>
       <r>   -3.5394    1.0000 </r>
       <r>   -2.4761    1.0000 </r>
       <r>   -1.4653    1.0000 </r>
       <r>   -0.9228    1.0000 </r>
       <r>   -0.3693    1.0000 </r>
       <r>   -0.1818    1.0000 </r>
       <r>    0.5886    1.0000 </r>
       <r>    0.8851    1.0000 </r>
       <r>    1.5096    1.0000 </r>
       <r>    1.5393    1.0000 </r>
       <r>    1.9024    0.3764 </r>
       <r>    1.9826   -0.0191 </r>
       <r>    2.1127   -0.0033 </r>
       <r>    2.2564   -0.0000 </r>
       <r>    2.4477   -0.0000 </r>
       <r>    2.5815   -0.0000 </r>
       <r>    2.6787   -0.0000 </r>
       <r>    2.7589   -0.0000 </r>
       <r>    2.9511   -0.0000 </r>
       <r>    3.4692   -0.0000 </r>
       <r>    3.6291   -0.0000 </r>
       <r>    3.7456   -0.0000 </r>
       <r>    4.0725    0.0000 </r>
       <r>    4.2901    0.0000 </r>
       <r>    4.3300    0.0000 </r>
       <r>    4.4021    0.0000 </r>
       <r>    4.6603    0.0000 </r>
       <r>    5.0378    0.0000 </r>
       <r>    6.0297    0.0000 </r>
       <r>    6.7742    0.0000 </r>
       <r>    6.9143    0.0000 </r>
       <r>    7.0495    0.0000 </r>
       <r>    7.2594    0.0000 </r>
       <r>    7.4380    0.0000 </r>
       <r>    7.8263    0.0000 </r>
       <r>    8.1663    0.0000 </r>
       <r>    8.3979    0.0000 </r>
       <r>    8.5924    0.0000 </r>
       <r>    8.6913    0.0000 </r>
       <r>    9.3841    0.0000 </r>
       <r>   10.1244    0.0000 </r>
       <r>   10.2831    0.0000 </r>
       <r>   10.4426    0.0000 </r>
       <r>   10.5659    0.0000 </r>
       <r>   11.2310    0.0000 </r>
       <r>   11.2793    0.0000 </r>
      </set>
      <set comment="kpoint 14">
       <r>  -55.1936    1.0000 </r>
       <r>  -54.8555    1.0000 </r>
       <r>  -54.6776    1.0000 </r>
       <r>  -54.6407    1.0000 </r>
       <r>  -31.5842    1.0000 </r>
       <r>  -31.5058    1.0000 </r>
       <r>  -31.4465    1.0000 </r>
       <r>  -31.2217    1.0000 </r>
       <r>  -31.1922    1.0000 </r>
       <r>  -31.1401    1.0000 </r>
       <r>  -31.0802    1.0000 </r>
       <r>  -31.0502    1.0000 </r>
       <r>  -31.0301    1.0000 </r>
       <r>  -30.9965    1.0000 </r>
       <r>  -30.9512    1.0000 </r>
       <r>  -30.7431    1.0000 </r>
       <r>   -4.2509    1.0000 </r>
       <r>   -3.6089    1.0000 </r>
       <r>   -2.6324    1.0000 </r>
       <r>   -1.6181    1.0000 </r>
       <r>   -0.6900    1.0000 </r>
       <r>   -0.3608    1.0000 </r>
       <r>   -0.1647    1.0000 </r>
       <r>    0.1194    1.0000 </r>
       <r>    0.4005    1.0000 </r>
       <r>    0.5475    1.0000 </r>
       <r>    0.8455    1.0000 </r>
       <r>    1.2173    1.0000 </r>
       <r>    1.7050    1.0134 </r>
       <r>    1.9821   -0.0183 </r>
       <r>    2.3590   -0.0000 </r>
       <r>    2.4077   -0.0000 </r>
       <r>    2.5127   -0.0000 </r>
       <r>    2.7226   -0.0000 </r>
       <r>    2.9463   -0.0000 </r>
       <r>    3.2049   -0.0000 </r>
       <r>    3.5542   -0.0000 </r>
       <r>    3.6482   -0.0000 </r>
       <r>    3.7199   -0.0000 </r>
       <r>    3.8324   -0.0000 </r>
       <r>    3.8750   -0.0000 </r>
       <r>    4.4617    0.0000 </r>
       <r>    4.5945    0.0000 </r>
       <r>    4.9192    0.0000 </r>
       <r>    5.1306    0.0000 </r>
       <r>    5.5642    0.0000 </r>
       <r>    5.9554    0.0000 </r>
       <r>    6.0740    0.0000 </r>
       <r>    6.1395    0.0000 </r>
       <r>    6.3035    0.0000 </r>
       <r>    6.7493    0.0000 </r>
       <r>    7.5633    0.0000 </r>
       <r>    7.6481    0.0000 </r>
       <r>    8.2797    0.0000 </r>
       <r>    8.8205    0.0000 </r>
       <r>    9.0966    0.0000 </r>
       <r>    9.1333    0.0000 </r>
       <r>    9.3108    0.0000 </r>
       <r>    9.4229    0.0000 </r>
       <r>    9.6062    0.0000 </r>
       <r>   10.0220    0.0000 </r>
       <r>   10.1422    0.0000 </r>
       <r>   10.4893    0.0000 </r>
       <r>   10.9852    0.0000 </r>
      </set>
      <set comment="kpoint 15">
       <r>  -55.1813    1.0000 </r>
       <r>  -54.8432    1.0000 </r>
       <r>  -54.6650    1.0000 </r>
       <r>  -54.6283    1.0000 </r>
       <r>  -31.5725    1.0000 </r>
       <r>  -31.5438    1.0000 </r>
       <r>  -31.4942    1.0000 </r>
       <r>  -31.2383    1.0000 </r>
       <r>  -31.2091    1.0000 </r>
       <r>  -31.1793    1.0000 </r>
       <r>  -31.1299    1.0000 </r>
       <r>  -31.0945    1.0000 </r>
       <r>  -31.0671    1.0000 </r>
       <r>  -31.0377    1.0000 </r>
       <r>  -30.9392    1.0000 </r>
       <r>  -30.7329    1.0000 </r>
       <r>   -3.0937    1.0000 </r>
       <r>   -2.4773    1.0000 </r>
       <r>   -1.5735    1.0000 </r>
       <r>   -1.1566    1.0000 </r>
       <r>   -0.7980    1.0000 </r>
       <r>   -0.6594    1.0000 </r>
       <r>   -0.2861    1.0000 </r>
       <r>   -0.0842    1.0000 </r>
       <r>    0.1383    1.0000 </r>
       <r>    0.2474    1.0000 </r>
       <r>    0.3741    1.0000 </r>
       <r>    1.1990    1.0000 </r>
       <r>    1.5082    1.0000 </r>
       <r>    2.0496   -0.0221 </r>
       <r>    2.5218   -0.0000 </r>
       <r>    2.6445   -0.0000 </r>
       <r>    2.8176   -0.0000 </r>
       <r>    2.8793   -0.0000 </r>
       <r>    3.2313   -0.0000 </r>
       <r>    3.3535   -0.0000 </r>
       <r>    3.6089   -0.0000 </r>
       <r>    3.8177   -0.0000 </r>
       <r>    3.9843    0.0000 </r>
       <r>    4.0836    0.0000 </r>
       <r>    4.2318    0.0000 </r>
       <r>    4.4500    0.0000 </r>
       <r>    4.7022    0.0000 </r>
       <r>    5.1905    0.0000 </r>
       <r>    5.2257    0.0000 </r>
       <r>    5.3952    0.0000 </r>
       <r>    5.9502    0.0000 </r>
       <r>    6.0338    0.0000 </r>
       <r>    6.1893    0.0000 </r>
       <r>    6.4284    0.0000 </r>
       <r>    7.0054    0.0000 </r>
       <r>    7.2562    0.0000 </r>
       <r>    7.6631    0.0000 </r>
       <r>    7.8250    0.0000 </r>
       <r>    8.1822    0.0000 </r>
       <r>    8.5947    0.0000 </r>
       <r>    8.9149    0.0000 </r>
       <r>    9.0079    0.0000 </r>
       <r>    9.0953    0.0000 </r>
       <r>    9.4553    0.0000 </r>
       <r>    9.9234    0.0000 </r>
       <r>   10.2321    0.0000 </r>
       <r>   10.5629    0.0000 </r>
       <r>   10.8008    0.0000 </r>
      </set>
      <set comment="kpoint 16">
       <r>  -55.2350    1.0000 </r>
       <r>  -54.8972    1.0000 </r>
       <r>  -54.7202    1.0000 </r>
       <r>  -54.6828    1.0000 </r>
       <r>  -31.6233    1.0000 </r>
       <r>  -31.5481    1.0000 </r>
       <r>  -31.2682    1.0000 </r>
       <r>  -31.2352    1.0000 </r>
       <r>  -31.1284    1.0000 </r>
       <r>  -31.1060    1.0000 </r>
       <r>  -31.0957    1.0000 </r>
       <r>  -30.9924    1.0000 </r>
       <r>  -30.7967    1.0000 </r>
       <r>  -30.7774    1.0000 </r>
       <r>  -30.6793    1.0000 </r>
       <r>  -30.6533    1.0000 </r>
       <r>   -5.5160    1.0000 </r>
       <r>   -4.9171    1.0000 </r>
       <r>   -4.0126    1.0000 </r>
       <r>   -3.1629    1.0000 </r>
       <r>   -3.1300    1.0000 </r>
       <r>   -2.3620    1.0000 </r>
       <r>   -1.2082    1.0000 </r>
       <r>   -0.3524    1.0000 </r>
       <r>    0.0240    1.0000 </r>
       <r>    0.8838    1.0000 </r>
       <r>    1.0507    1.0000 </r>
       <r>    1.2913    1.0000 </r>
       <r>    1.4664    1.0000 </r>
       <r>    1.6277    1.0007 </r>
       <r>    1.6881    1.0081 </r>
       <r>    2.5210   -0.0000 </r>
       <r>    2.5450   -0.0000 </r>
       <r>    2.6781   -0.0000 </r>
       <r>    2.9949   -0.0000 </r>
       <r>    3.2145   -0.0000 </r>
       <r>    3.3393   -0.0000 </r>
       <r>    3.3956   -0.0000 </r>
       <r>    3.6754   -0.0000 </r>
       <r>    3.7071   -0.0000 </r>
       <r>    3.7901   -0.0000 </r>
       <r>    3.9314    0.0000 </r>
       <r>    3.9466    0.0000 </r>
       <r>    4.1073    0.0000 </r>
       <r>    4.4460    0.0000 </r>
       <r>    4.9656    0.0000 </r>
       <r>    5.9165    0.0000 </r>
       <r>    6.3496    0.0000 </r>
       <r>    6.5485    0.0000 </r>
       <r>    6.9722    0.0000 </r>
       <r>    7.2891    0.0000 </r>
       <r>    7.5094    0.0000 </r>
       <r>    8.1314    0.0000 </r>
       <r>    8.1758    0.0000 </r>
       <r>    8.3426    0.0000 </r>
       <r>    8.5343    0.0000 </r>
       <r>    9.5619    0.0000 </r>
       <r>    9.7552    0.0000 </r>
       <r>    9.7996    0.0000 </r>
       <r>   10.2747    0.0000 </r>
       <r>   11.2770    0.0000 </r>
       <r>   11.6186    0.0000 </r>
       <r>   11.9517    0.0000 </r>
       <r>   12.0404    0.0000 </r>
      </set>
      <set comment="kpoint 17">
       <r>  -55.2286    1.0000 </r>
       <r>  -54.8907    1.0000 </r>
       <r>  -54.7136    1.0000 </r>
       <r>  -54.6763    1.0000 </r>
       <r>  -31.6172    1.0000 </r>
       <r>  -31.5419    1.0000 </r>
       <r>  -31.2615    1.0000 </r>
       <r>  -31.2285    1.0000 </r>
       <r>  -31.1600    1.0000 </r>
       <r>  -31.1214    1.0000 </r>
       <r>  -31.0891    1.0000 </r>
       <r>  -30.9860    1.0000 </r>
       <r>  -30.8511    1.0000 </r>
       <r>  -30.7721    1.0000 </r>
       <r>  -30.7348    1.0000 </r>
       <r>  -30.7077    1.0000 </r>
       <r>   -5.3367    1.0000 </r>
       <r>   -4.7358    1.0000 </r>
       <r>   -3.8262    1.0000 </r>
       <r>   -2.9623    1.0000 </r>
       <r>   -2.8672    1.0000 </r>
       <r>   -2.1186    1.0000 </r>
       <r>   -0.9970    1.0000 </r>
       <r>   -0.2670    1.0000 </r>
       <r>    0.1964    1.0000 </r>
       <r>    0.9389    1.0000 </r>
       <r>    1.1780    1.0000 </r>
       <r>    1.4323    1.0000 </r>
       <r>    1.6497    1.0020 </r>
       <r>    1.7328    1.0255 </r>
       <r>    1.8287    0.9153 </r>
       <r>    2.5640   -0.0000 </r>
       <r>    2.5671   -0.0000 </r>
       <r>    2.7278   -0.0000 </r>
       <r>    2.9878   -0.0000 </r>
       <r>    3.1359   -0.0000 </r>
       <r>    3.2873   -0.0000 </r>
       <r>    3.3096   -0.0000 </r>
       <r>    3.3599   -0.0000 </r>
       <r>    3.6203   -0.0000 </r>
       <r>    3.8177   -0.0000 </r>
       <r>    3.8766   -0.0000 </r>
       <r>    4.0121    0.0000 </r>
       <r>    4.1884    0.0000 </r>
       <r>    4.2503    0.0000 </r>
       <r>    4.7403    0.0000 </r>
       <r>    5.9610    0.0000 </r>
       <r>    6.4882    0.0000 </r>
       <r>    6.7482    0.0000 </r>
       <r>    7.1300    0.0000 </r>
       <r>    7.4813    0.0000 </r>
       <r>    7.7086    0.0000 </r>
       <r>    8.3132    0.0000 </r>
       <r>    8.3840    0.0000 </r>
       <r>    8.4790    0.0000 </r>
       <r>    8.6653    0.0000 </r>
       <r>    9.2712    0.0000 </r>
       <r>    9.8122    0.0000 </r>
       <r>    9.9701    0.0000 </r>
       <r>   10.0007    0.0000 </r>
       <r>   10.5690    0.0000 </r>
       <r>   10.6599    0.0000 </r>
       <r>   10.8568    0.0000 </r>
       <r>   11.2081    0.0000 </r>
      </set>
      <set comment="kpoint 18">
       <r>  -55.2122    1.0000 </r>
       <r>  -54.8742    1.0000 </r>
       <r>  -54.6968    1.0000 </r>
       <r>  -54.6596    1.0000 </r>
       <r>  -31.6017    1.0000 </r>
       <r>  -31.5262    1.0000 </r>
       <r>  -31.2951    1.0000 </r>
       <r>  -31.2443    1.0000 </r>
       <r>  -31.2114    1.0000 </r>
       <r>  -31.1036    1.0000 </r>
       <r>  -31.0722    1.0000 </r>
       <r>  -30.9875    1.0000 </r>
       <r>  -30.9698    1.0000 </r>
       <r>  -30.8738    1.0000 </r>
       <r>  -30.8440    1.0000 </r>
       <r>  -30.7583    1.0000 </r>
       <r>   -4.8104    1.0000 </r>
       <r>   -4.2047    1.0000 </r>
       <r>   -3.2825    1.0000 </r>
       <r>   -2.3781    1.0000 </r>
       <r>   -2.1300    1.0000 </r>
       <r>   -1.4704    1.0000 </r>
       <r>   -0.5512    1.0000 </r>
       <r>   -0.0692    1.0000 </r>
       <r>    0.3794    1.0000 </r>
       <r>    0.9757    1.0000 </r>
       <r>    1.5832    1.0001 </r>
       <r>    1.7208    1.0199 </r>
       <r>    1.7929    1.0187 </r>
       <r>    1.9279    0.1881 </r>
       <r>    2.0948   -0.0063 </r>
       <r>    2.4073   -0.0000 </r>
       <r>    2.6250   -0.0000 </r>
       <r>    2.9051   -0.0000 </r>
       <r>    2.9655   -0.0000 </r>
       <r>    3.0403   -0.0000 </r>
       <r>    3.2203   -0.0000 </r>
       <r>    3.2563   -0.0000 </r>
       <r>    3.4719   -0.0000 </r>
       <r>    3.6007   -0.0000 </r>
       <r>    3.6895   -0.0000 </r>
       <r>    3.8170   -0.0000 </r>
       <r>    3.9673    0.0000 </r>
       <r>    3.9888    0.0000 </r>
       <r>    4.2679    0.0000 </r>
       <r>    4.9441    0.0000 </r>
       <r>    5.9949    0.0000 </r>
       <r>    6.8377    0.0000 </r>
       <r>    7.2294    0.0000 </r>
       <r>    7.4629    0.0000 </r>
       <r>    7.5527    0.0000 </r>
       <r>    7.8425    0.0000 </r>
       <r>    8.0285    0.0000 </r>
       <r>    8.1881    0.0000 </r>
       <r>    8.4239    0.0000 </r>
       <r>    8.6403    0.0000 </r>
       <r>    8.8478    0.0000 </r>
       <r>    9.0132    0.0000 </r>
       <r>    9.2958    0.0000 </r>
       <r>    9.4402    0.0000 </r>
       <r>   10.4793    0.0000 </r>
       <r>   10.5687    0.0000 </r>
       <r>   10.7011    0.0000 </r>
       <r>   11.0911    0.0000 </r>
      </set>
      <set comment="kpoint 19">
       <r>  -55.1935    1.0000 </r>
       <r>  -54.8554    1.0000 </r>
       <r>  -54.6775    1.0000 </r>
       <r>  -54.6406    1.0000 </r>
       <r>  -31.5839    1.0000 </r>
       <r>  -31.5082    1.0000 </r>
       <r>  -31.4462    1.0000 </r>
       <r>  -31.2247    1.0000 </r>
       <r>  -31.1919    1.0000 </r>
       <r>  -31.1397    1.0000 </r>
       <r>  -31.0834    1.0000 </r>
       <r>  -31.0530    1.0000 </r>
       <r>  -31.0296    1.0000 </r>
       <r>  -30.9962    1.0000 </r>
       <r>  -30.9509    1.0000 </r>
       <r>  -30.7429    1.0000 </r>
       <r>   -3.9844    1.0000 </r>
       <r>   -3.3723    1.0000 </r>
       <r>   -2.4401    1.0000 </r>
       <r>   -1.4880    1.0000 </r>
       <r>   -1.0633    1.0000 </r>
       <r>   -0.6861    1.0000 </r>
       <r>   -0.3958    1.0000 </r>
       <r>    0.0666    1.0000 </r>
       <r>    0.5402    1.0000 </r>
       <r>    0.6682    1.0000 </r>
       <r>    0.7243    1.0000 </r>
       <r>    0.7621    1.0000 </r>
       <r>    1.7189    1.0191 </r>
       <r>    2.1465   -0.0008 </r>
       <r>    2.5609   -0.0000 </r>
       <r>    3.0865   -0.0000 </r>
       <r>    3.1255   -0.0000 </r>
       <r>    3.2344   -0.0000 </r>
       <r>    3.2971   -0.0000 </r>
       <r>    3.3967   -0.0000 </r>
       <r>    3.4097   -0.0000 </r>
       <r>    3.5654   -0.0000 </r>
       <r>    3.7180   -0.0000 </r>
       <r>    3.7433   -0.0000 </r>
       <r>    3.8325   -0.0000 </r>
       <r>    3.8561   -0.0000 </r>
       <r>    3.8926    0.0000 </r>
       <r>    4.2711    0.0000 </r>
       <r>    4.5046    0.0000 </r>
       <r>    5.5071    0.0000 </r>
       <r>    5.7739    0.0000 </r>
       <r>    6.0629    0.0000 </r>
       <r>    6.3505    0.0000 </r>
       <r>    6.4125    0.0000 </r>
       <r>    7.1595    0.0000 </r>
       <r>    7.5556    0.0000 </r>
       <r>    7.7305    0.0000 </r>
       <r>    8.3978    0.0000 </r>
       <r>    8.5908    0.0000 </r>
       <r>    8.7291    0.0000 </r>
       <r>    9.0156    0.0000 </r>
       <r>    9.1230    0.0000 </r>
       <r>    9.3516    0.0000 </r>
       <r>    9.4143    0.0000 </r>
       <r>    9.9313    0.0000 </r>
       <r>   10.1604    0.0000 </r>
       <r>   10.2674    0.0000 </r>
       <r>   10.3254    0.0000 </r>
      </set>
      <set comment="kpoint 20">
       <r>  -55.1812    1.0000 </r>
       <r>  -54.8430    1.0000 </r>
       <r>  -54.6649    1.0000 </r>
       <r>  -54.6281    1.0000 </r>
       <r>  -31.5723    1.0000 </r>
       <r>  -31.5435    1.0000 </r>
       <r>  -31.4965    1.0000 </r>
       <r>  -31.2378    1.0000 </r>
       <r>  -31.2119    1.0000 </r>
       <r>  -31.1790    1.0000 </r>
       <r>  -31.1294    1.0000 </r>
       <r>  -31.0941    1.0000 </r>
       <r>  -31.0701    1.0000 </r>
       <r>  -31.0405    1.0000 </r>
       <r>  -30.9390    1.0000 </r>
       <r>  -30.7327    1.0000 </r>
       <r>   -3.0503    1.0000 </r>
       <r>   -2.4191    1.0000 </r>
       <r>   -1.4823    1.0000 </r>
       <r>   -0.7394    1.0000 </r>
       <r>   -0.5906    1.0000 </r>
       <r>   -0.4964    1.0000 </r>
       <r>   -0.4572    1.0000 </r>
       <r>   -0.2244    1.0000 </r>
       <r>    0.0767    1.0000 </r>
       <r>    0.1056    1.0000 </r>
       <r>    0.2249    1.0000 </r>
       <r>    1.0796    1.0000 </r>
       <r>    1.4632    1.0000 </r>
       <r>    2.0223   -0.0335 </r>
       <r>    2.6739   -0.0000 </r>
       <r>    3.1094   -0.0000 </r>
       <r>    3.2036   -0.0000 </r>
       <r>    3.2806   -0.0000 </r>
       <r>    3.3345   -0.0000 </r>
       <r>    3.4967   -0.0000 </r>
       <r>    3.6324   -0.0000 </r>
       <r>    3.8855   -0.0000 </r>
       <r>    3.9713    0.0000 </r>
       <r>    4.0518    0.0000 </r>
       <r>    4.0541    0.0000 </r>
       <r>    4.6620    0.0000 </r>
       <r>    4.6811    0.0000 </r>
       <r>    4.7992    0.0000 </r>
       <r>    4.9020    0.0000 </r>
       <r>    5.3603    0.0000 </r>
       <r>    5.5453    0.0000 </r>
       <r>    5.6320    0.0000 </r>
       <r>    5.7481    0.0000 </r>
       <r>    6.3670    0.0000 </r>
       <r>    7.0258    0.0000 </r>
       <r>    7.3530    0.0000 </r>
       <r>    7.4363    0.0000 </r>
       <r>    7.5519    0.0000 </r>
       <r>    7.6610    0.0000 </r>
       <r>    8.1425    0.0000 </r>
       <r>    8.2146    0.0000 </r>
       <r>    8.6911    0.0000 </r>
       <r>    8.7892    0.0000 </r>
       <r>    9.4596    0.0000 </r>
       <r>   10.2463    0.0000 </r>
       <r>   10.6392    0.0000 </r>
       <r>   10.7737    0.0000 </r>
       <r>   10.8508    0.0000 </r>
      </set>
     </set>
    </set>
   </array>
  </eigenvalues>
  <separator name="orbital magnetization" >
   <v name="MAGDIPOLOUT">      0.00000000      0.00000000      0.00000000</v>
  </separator>
  <dos>
   <i name="efermi">      1.88763225 </i>
   <total>
    <array>
     <dimension dim="1">gridpoints</dimension>
     <dimension dim="2">spin</dimension>
     <field>energy</field>
     <field>total</field>
     <field>integrated</field>
     <set>
      <set comment="spin 1">
       <r>   -58.5992     0.0000     0.0000 </r>
       <r>   -58.3526     0.0000     0.0000 </r>
       <r>   -58.1059     0.0000     0.0000 </r>
       <r>   -57.8592     0.0000     0.0000 </r>
       <r>   -57.6125     0.0000     0.0000 </r>
       <r>   -57.3658     0.0000     0.0000 </r>
       <r>   -57.1192     0.0000     0.0000 </r>
       <r>   -56.8725     0.0000     0.0000 </r>
       <r>   -56.6258     0.0000     0.0000 </r>
       <r>   -56.3791     0.0000     0.0000 </r>
       <r>   -56.1324    -0.0000    -0.0000 </r>
       <r>   -55.8858    -0.0000    -0.0000 </r>
       <r>   -55.6391    -0.0000    -0.0000 </r>
       <r>   -55.3924    -0.1114    -0.0275 </r>
       <r>   -55.1457     7.4771     1.8170 </r>
       <r>   -54.8991     2.9030     2.5331 </r>
       <r>   -54.6524    16.6151     6.6316 </r>
       <r>   -54.4057     5.5629     8.0039 </r>
       <r>   -54.1590    -0.0157     8.0000 </r>
       <r>   -53.9123    -0.0000     8.0000 </r>
       <r>   -53.6657     0.0000     8.0000 </r>
       <r>   -53.4190     0.0000     8.0000 </r>
       <r>   -53.1723     0.0000     8.0000 </r>
       <r>   -52.9256     0.0000     8.0000 </r>
       <r>   -52.6790     0.0000     8.0000 </r>
       <r>   -52.4323     0.0000     8.0000 </r>
       <r>   -52.1856     0.0000     8.0000 </r>
       <r>   -51.9389     0.0000     8.0000 </r>
       <r>   -51.6922     0.0000     8.0000 </r>
       <r>   -51.4456     0.0000     8.0000 </r>
       <r>   -51.1989     0.0000     8.0000 </r>
       <r>   -50.9522     0.0000     8.0000 </r>
       <r>   -50.7055     0.0000     8.0000 </r>
       <r>   -50.4589     0.0000     8.0000 </r>
       <r>   -50.2122     0.0000     8.0000 </r>
       <r>   -49.9655     0.0000     8.0000 </r>
       <r>   -49.7188     0.0000     8.0000 </r>
       <r>   -49.4721     0.0000     8.0000 </r>
       <r>   -49.2255     0.0000     8.0000 </r>
       <r>   -48.9788     0.0000     8.0000 </r>
       <r>   -48.7321     0.0000     8.0000 </r>
       <r>   -48.4854     0.0000     8.0000 </r>
       <r>   -48.2387     0.0000     8.0000 </r>
       <r>   -47.9921     0.0000     8.0000 </r>
       <r>   -47.7454     0.0000     8.0000 </r>
       <r>   -47.4987     0.0000     8.0000 </r>
       <r>   -47.2520     0.0000     8.0000 </r>
       <r>   -47.0054     0.0000     8.0000 </r>
       <r>   -46.7587     0.0000     8.0000 </r>
       <r>   -46.5120     0.0000     8.0000 </r>
       <r>   -46.2653     0.0000     8.0000 </r>
       <r>   -46.0186     0.0000     8.0000 </r>
       <r>   -45.7720     0.0000     8.0000 </r>
       <r>   -45.5253     0.0000     8.0000 </r>
       <r>   -45.2786     0.0000     8.0000 </r>
       <r>   -45.0319     0.0000     8.0000 </r>
       <r>   -44.7853     0.0000     8.0000 </r>
       <r>   -44.5386     0.0000     8.0000 </r>
       <r>   -44.2919     0.0000     8.0000 </r>
       <r>   -44.0452     0.0000     8.0000 </r>
       <r>   -43.7985     0.0000     8.0000 </r>
       <r>   -43.5519     0.0000     8.0000 </r>
       <r>   -43.3052     0.0000     8.0000 </r>
       <r>   -43.0585     0.0000     8.0000 </r>
       <r>   -42.8118     0.0000     8.0000 </r>
       <r>   -42.5652     0.0000     8.0000 </r>
       <r>   -42.3185     0.0000     8.0000 </r>
       <r>   -42.0718     0.0000     8.0000 </r>
       <r>   -41.8251     0.0000     8.0000 </r>
       <r>   -41.5784     0.0000     8.0000 </r>
       <r>   -41.3318     0.0000     8.0000 </r>
       <r>   -41.0851     0.0000     8.0000 </r>
       <r>   -40.8384     0.0000     8.0000 </r>
       <r>   -40.5917     0.0000     8.0000 </r>
       <r>   -40.3450     0.0000     8.0000 </r>
       <r>   -40.0984     0.0000     8.0000 </r>
       <r>   -39.8517     0.0000     8.0000 </r>
       <r>   -39.6050     0.0000     8.0000 </r>
       <r>   -39.3583     0.0000     8.0000 </r>
       <r>   -39.1117     0.0000     8.0000 </r>
       <r>   -38.8650     0.0000     8.0000 </r>
       <r>   -38.6183     0.0000     8.0000 </r>
       <r>   -38.3716     0.0000     8.0000 </r>
       <r>   -38.1249     0.0000     8.0000 </r>
       <r>   -37.8783     0.0000     8.0000 </r>
       <r>   -37.6316     0.0000     8.0000 </r>
       <r>   -37.3849     0.0000     8.0000 </r>
       <r>   -37.1382     0.0000     8.0000 </r>
       <r>   -36.8916     0.0000     8.0000 </r>
       <r>   -36.6449     0.0000     8.0000 </r>
       <r>   -36.3982     0.0000     8.0000 </r>
       <r>   -36.1515     0.0000     8.0000 </r>
       <r>   -35.9048     0.0000     8.0000 </r>
       <r>   -35.6582     0.0000     8.0000 </r>
       <r>   -35.4115     0.0000     8.0000 </r>
       <r>   -35.1648     0.0000     8.0000 </r>
       <r>   -34.9181     0.0000     8.0000 </r>
       <r>   -34.6715     0.0000     8.0000 </r>
       <r>   -34.4248     0.0000     8.0000 </r>
       <r>   -34.1781     0.0000     8.0000 </r>
       <r>   -33.9314     0.0000     8.0000 </r>
       <r>   -33.6847     0.0000     8.0000 </r>
       <r>   -33.4381     0.0000     8.0000 </r>
       <r>   -33.1914     0.0000     8.0000 </r>
       <r>   -32.9447     0.0000     8.0000 </r>
       <r>   -32.6980     0.0000     8.0000 </r>
       <r>   -32.4513    -0.0000     8.0000 </r>
       <r>   -32.2047    -0.0000     8.0000 </r>
       <r>   -31.9580    -0.0000     8.0000 </r>
       <r>   -31.7113    -0.3377     7.9167 </r>
       <r>   -31.4646    18.0279    12.3638 </r>
       <r>   -31.2180    13.0860    15.5918 </r>
       <r>   -30.9713    41.1381    25.7397 </r>
       <r>   -30.7246    19.8693    30.6410 </r>
       <r>   -30.4779     5.5404    32.0077 </r>
       <r>   -30.2312    -0.0312    32.0000 </r>
       <r>   -29.9846    -0.0000    32.0000 </r>
       <r>   -29.7379     0.0000    32.0000 </r>
       <r>   -29.4912     0.0000    32.0000 </r>
       <r>   -29.2445     0.0000    32.0000 </r>
       <r>   -28.9979     0.0000    32.0000 </r>
       <r>   -28.7512     0.0000    32.0000 </r>
       <r>   -28.5045     0.0000    32.0000 </r>
       <r>   -28.2578     0.0000    32.0000 </r>
       <r>   -28.0111     0.0000    32.0000 </r>
       <r>   -27.7645     0.0000    32.0000 </r>
       <r>   -27.5178     0.0000    32.0000 </r>
       <r>   -27.2711     0.0000    32.0000 </r>
       <r>   -27.0244     0.0000    32.0000 </r>
       <r>   -26.7777     0.0000    32.0000 </r>
       <r>   -26.5311     0.0000    32.0000 </r>
       <r>   -26.2844     0.0000    32.0000 </r>
       <r>   -26.0377     0.0000    32.0000 </r>
       <r>   -25.7910     0.0000    32.0000 </r>
       <r>   -25.5444     0.0000    32.0000 </r>
       <r>   -25.2977     0.0000    32.0000 </r>
       <r>   -25.0510     0.0000    32.0000 </r>
       <r>   -24.8043     0.0000    32.0000 </r>
       <r>   -24.5576     0.0000    32.0000 </r>
       <r>   -24.3110     0.0000    32.0000 </r>
       <r>   -24.0643     0.0000    32.0000 </r>
       <r>   -23.8176     0.0000    32.0000 </r>
       <r>   -23.5709     0.0000    32.0000 </r>
       <r>   -23.3243     0.0000    32.0000 </r>
       <r>   -23.0776     0.0000    32.0000 </r>
       <r>   -22.8309     0.0000    32.0000 </r>
       <r>   -22.5842     0.0000    32.0000 </r>
       <r>   -22.3375     0.0000    32.0000 </r>
       <r>   -22.0909     0.0000    32.0000 </r>
       <r>   -21.8442     0.0000    32.0000 </r>
       <r>   -21.5975     0.0000    32.0000 </r>
       <r>   -21.3508     0.0000    32.0000 </r>
       <r>   -21.1042     0.0000    32.0000 </r>
       <r>   -20.8575     0.0000    32.0000 </r>
       <r>   -20.6108     0.0000    32.0000 </r>
       <r>   -20.3641     0.0000    32.0000 </r>
       <r>   -20.1174     0.0000    32.0000 </r>
       <r>   -19.8708     0.0000    32.0000 </r>
       <r>   -19.6241     0.0000    32.0000 </r>
       <r>   -19.3774     0.0000    32.0000 </r>
       <r>   -19.1307     0.0000    32.0000 </r>
       <r>   -18.8840     0.0000    32.0000 </r>
       <r>   -18.6374     0.0000    32.0000 </r>
       <r>   -18.3907     0.0000    32.0000 </r>
       <r>   -18.1440     0.0000    32.0000 </r>
       <r>   -17.8973     0.0000    32.0000 </r>
       <r>   -17.6507     0.0000    32.0000 </r>
       <r>   -17.4040     0.0000    32.0000 </r>
       <r>   -17.1573     0.0000    32.0000 </r>
       <r>   -16.9106     0.0000    32.0000 </r>
       <r>   -16.6639     0.0000    32.0000 </r>
       <r>   -16.4173     0.0000    32.0000 </r>
       <r>   -16.1706     0.0000    32.0000 </r>
       <r>   -15.9239     0.0000    32.0000 </r>
       <r>   -15.6772     0.0000    32.0000 </r>
       <r>   -15.4306     0.0000    32.0000 </r>
       <r>   -15.1839     0.0000    32.0000 </r>
       <r>   -14.9372     0.0000    32.0000 </r>
       <r>   -14.6905     0.0000    32.0000 </r>
       <r>   -14.4438     0.0000    32.0000 </r>
       <r>   -14.1972     0.0000    32.0000 </r>
       <r>   -13.9505     0.0000    32.0000 </r>
       <r>   -13.7038     0.0000    32.0000 </r>
       <r>   -13.4571     0.0000    32.0000 </r>
       <r>   -13.2105     0.0000    32.0000 </r>
       <r>   -12.9638     0.0000    32.0000 </r>
       <r>   -12.7171     0.0000    32.0000 </r>
       <r>   -12.4704     0.0000    32.0000 </r>
       <r>   -12.2237     0.0000    32.0000 </r>
       <r>   -11.9771     0.0000    32.0000 </r>
       <r>   -11.7304     0.0000    32.0000 </r>
       <r>   -11.4837     0.0000    32.0000 </r>
       <r>   -11.2370     0.0000    32.0000 </r>
       <r>   -10.9903     0.0000    32.0000 </r>
       <r>   -10.7437     0.0000    32.0000 </r>
       <r>   -10.4970     0.0000    32.0000 </r>
       <r>   -10.2503     0.0000    32.0000 </r>
       <r>   -10.0036     0.0000    32.0000 </r>
       <r>    -9.7570     0.0000    32.0000 </r>
       <r>    -9.5103     0.0000    32.0000 </r>
       <r>    -9.2636     0.0000    32.0000 </r>
       <r>    -9.0169     0.0000    32.0000 </r>
       <r>    -8.7702     0.0000    32.0000 </r>
       <r>    -8.5236     0.0000    32.0000 </r>
       <r>    -8.2769     0.0000    32.0000 </r>
       <r>    -8.0302     0.0000    32.0000 </r>
       <r>    -7.7835    -0.0000    32.0000 </r>
       <r>    -7.5369    -0.0000    32.0000 </r>
       <r>    -7.2902    -0.0000    32.0000 </r>
       <r>    -7.0435    -0.0053    31.9987 </r>
       <r>    -6.7968     0.1401    32.0333 </r>
       <r>    -6.5501     0.6195    32.1861 </r>
       <r>    -6.3035     0.6104    32.3366 </r>
       <r>    -6.0568     0.2131    32.3892 </r>
       <r>    -5.8101     1.5895    32.7813 </r>
       <r>    -5.5634     1.3786    33.1214 </r>
       <r>    -5.3168     0.5269    33.2513 </r>
       <r>    -5.0701     1.8721    33.7131 </r>
       <r>    -4.8234     1.1164    33.9885 </r>
       <r>    -4.5767     2.1729    34.5245 </r>
       <r>    -4.3300     0.8533    34.7350 </r>
       <r>    -4.0834     2.0398    35.2382 </r>
       <r>    -3.8367     2.0530    35.7447 </r>
       <r>    -3.5900     0.5980    35.8922 </r>
       <r>    -3.3433     1.5993    36.2867 </r>
       <r>    -3.0966     3.0964    37.0505 </r>
       <r>    -2.8500     2.3937    37.6410 </r>
       <r>    -2.6033     2.0941    38.1575 </r>
       <r>    -2.3566     2.5381    38.7836 </r>
       <r>    -2.1099     0.9118    39.0085 </r>
       <r>    -1.8633     1.3678    39.3460 </r>
       <r>    -1.6166     2.1307    39.8715 </r>
       <r>    -1.3699     4.7093    41.0332 </r>
       <r>    -1.1232     1.2180    41.3337 </r>
       <r>    -0.8765     2.9287    42.0561 </r>
       <r>    -0.6299     4.7383    43.2249 </r>
       <r>    -0.3832     3.1254    43.9959 </r>
       <r>    -0.1365     5.4288    45.3351 </r>
       <r>     0.1102     5.4819    46.6873 </r>
       <r>     0.3568     6.7318    48.3479 </r>
       <r>     0.6035     7.7180    50.2518 </r>
       <r>     0.8502     6.0316    51.7397 </r>
       <r>     1.0969     5.7349    53.1543 </r>
       <r>     1.3436     8.3525    55.2147 </r>
       <r>     1.5902     8.8480    57.3973 </r>
       <r>     1.8369     9.4107    59.7187 </r>
       <r>     2.0836     9.8552    62.1498 </r>
       <r>     2.3303     7.2609    63.9409 </r>
       <r>     2.5769     7.9717    65.9073 </r>
       <r>     2.8236     7.0775    67.6532 </r>
       <r>     3.0703     9.4571    69.9860 </r>
       <r>     3.3170     9.5374    72.3387 </r>
       <r>     3.5637    10.4402    74.9141 </r>
       <r>     3.8103    13.7481    78.3054 </r>
       <r>     4.0570    12.4478    81.3760 </r>
       <r>     4.3037     9.8827    83.8139 </r>
       <r>     4.5504     6.6101    85.4444 </r>
       <r>     4.7971     7.0126    87.1743 </r>
       <r>     5.0437     3.3841    88.0091 </r>
       <r>     5.2904     4.6691    89.1608 </r>
       <r>     5.5371     5.0077    90.3961 </r>
       <r>     5.7838     7.1455    92.1588 </r>
       <r>     6.0304     6.4202    93.7425 </r>
       <r>     6.2771     6.2043    95.2730 </r>
       <r>     6.5238     6.5885    96.8982 </r>
       <r>     6.7705     4.2351    97.9429 </r>
       <r>     7.0172     6.4638    99.5374 </r>
       <r>     7.2638     4.5223   100.6529 </r>
       <r>     7.5105     5.9942   102.1316 </r>
       <r>     7.7572     8.2576   104.1685 </r>
       <r>     8.0039     6.2045   105.6991 </r>
       <r>     8.2505     5.7551   107.1187 </r>
       <r>     8.4972     6.9890   108.8428 </r>
       <r>     8.7439     8.2988   110.8899 </r>
       <r>     8.9906     7.3921   112.7134 </r>
       <r>     9.2373     6.2420   114.2531 </r>
       <r>     9.4839     8.3203   116.3056 </r>
       <r>     9.7306     7.0363   118.0413 </r>
       <r>     9.9773     4.7209   119.2058 </r>
       <r>    10.2240     8.2357   121.2374 </r>
       <r>    10.4706     4.9071   122.4478 </r>
       <r>    10.7173     7.7939   124.3704 </r>
       <r>    10.9640     5.9476   125.8375 </r>
       <r>    11.2107     4.5362   126.9565 </r>
       <r>    11.4574     3.3399   127.7804 </r>
       <r>    11.7040     0.2863   127.8510 </r>
       <r>    11.9507     0.3594   127.9397 </r>
       <r>    12.1974     0.2483   128.0010 </r>
       <r>    12.4441    -0.0039   128.0000 </r>
       <r>    12.6908    -0.0000   128.0000 </r>
       <r>    12.9374     0.0000   128.0000 </r>
       <r>    13.1841     0.0000   128.0000 </r>
       <r>    13.4308     0.0000   128.0000 </r>
       <r>    13.6775     0.0000   128.0000 </r>
       <r>    13.9241     0.0000   128.0000 </r>
       <r>    14.1708     0.0000   128.0000 </r>
       <r>    14.4175     0.0000   128.0000 </r>
       <r>    14.6642     0.0000   128.0000 </r>
       <r>    14.9109     0.0000   128.0000 </r>
       <r>    15.1575     0.0000   128.0000 </r>
       <r>    15.4042     0.0000   128.0000 </r>
      </set>
     </set>
    </array>
   </total>
  </dos>
 </calculation>
 <structure name="finalpos" >
  <crystal>
   <varray name="basis" >
    <v>       2.82380009       0.00000000       0.00000000 </v>
    <v>       0.00000000       4.07030010       0.00000000 </v>
    <v>       0.00000000       0.00000000      24.88339996 </v>
   </varray>
   <i name="volume">    286.00267712 </i>
   <varray name="rec_basis" >
    <v>       0.35413272       0.00000000       0.00000000 </v>
    <v>       0.00000000       0.24568213       0.00000000 </v>
    <v>       0.00000000       0.00000000       0.04018743 </v>
   </varray>
  </crystal>
  <varray name="positions" >
   <v>       0.00000000       0.00000000       0.33805001 </v>
   <v>       0.00000000       0.00000000       0.45153999 </v>
   <v>       0.00000000       0.00000000       0.56502003 </v>
   <v>       0.00000000       0.00000000       0.67850000 </v>
   <v>       0.50000000       0.50000000       0.28130999 </v>
   <v>       0.50000000       0.50000000       0.39478999 </v>
   <v>       0.50000000       0.50000000       0.50827998 </v>
   <v>       0.50000000       0.50000000       0.62176001 </v>
  </varray>
 </structure>
</modeling>
