unknown system                          
           1
     2.823800    0.000000    0.000000
     0.000000    4.070300    0.000000
     0.000000    0.000000   24.883400
   Ti   Al
     4     4
Direct configuration=     1
   0.00000000  0.00000000  0.33805001
   0.00000000  0.00000000  0.45153999
   0.00000000  0.00000000  0.56502003
   0.00000000  0.00000000  0.67850000
   0.50000000  0.50000000  0.28130999
   0.50000000  0.50000000  0.39478999
   0.50000000  0.50000000  0.50827998
   0.50000000  0.50000000  0.62176001
