  16  16   0   0
  0.1621382E+02  0.5650682E-09  0.5650682E-09  0.8124629E-09  0.1500000E-16
  1.000000000000000E-004
  CAR 
 unknown system                          
     25.40518599    -51.82923066  301      8.31363549      1.00000000
    -51.829  0.0000E+00  0.0000E+00
    -51.572  0.0000E+00  0.0000E+00
    -51.314  0.0000E+00  0.0000E+00
    -51.057  0.0000E+00  0.0000E+00
    -50.799  0.0000E+00  0.0000E+00
    -50.542  0.0000E+00  0.0000E+00
    -50.285  0.0000E+00  0.0000E+00
    -50.027 -0.8539E-33 -0.2198E-33
    -49.770 -0.6109E-24 -0.1573E-24
    -49.512 -0.1607E-16 -0.4137E-17
    -49.255 -0.1490E-10 -0.3835E-11
    -48.997 -0.5075E-06 -0.1307E-06
    -48.740 -0.5617E-03 -0.1447E-03
    -48.482 -0.7198E-02 -0.1998E-02
    -48.225  0.1816E+00  0.4475E-01
    -47.968  0.1053E+00  0.7186E-01
    -47.710 -0.7626E-02  0.6990E-01
    -47.453 -0.1195E-03  0.6987E-01
    -47.195 -0.4155E-07  0.6987E-01
    -46.938 -0.4887E-12  0.6987E-01
    -46.680  0.0000E+00  0.6987E-01
    -46.423  0.0000E+00  0.6987E-01
    -46.165  0.0000E+00  0.6987E-01
    -45.908  0.0000E+00  0.6987E-01
    -45.650  0.0000E+00  0.6987E-01
    -45.393  0.0000E+00  0.6987E-01
    -45.136  0.0000E+00  0.6987E-01
    -44.878  0.0000E+00  0.6987E-01
    -44.621  0.0000E+00  0.6987E-01
    -44.363  0.0000E+00  0.6987E-01
    -44.106  0.0000E+00  0.6987E-01
    -43.848  0.0000E+00  0.6987E-01
    -43.591  0.0000E+00  0.6987E-01
    -43.333  0.0000E+00  0.6987E-01
    -43.076  0.0000E+00  0.6987E-01
    -42.819  0.0000E+00  0.6987E-01
    -42.561  0.0000E+00  0.6987E-01
    -42.304  0.0000E+00  0.6987E-01
    -42.046  0.0000E+00  0.6987E-01
    -41.789  0.0000E+00  0.6987E-01
    -41.531  0.0000E+00  0.6987E-01
    -41.274  0.0000E+00  0.6987E-01
    -41.016  0.0000E+00  0.6987E-01
    -40.759  0.0000E+00  0.6987E-01
    -40.502  0.0000E+00  0.6987E-01
    -40.244  0.0000E+00  0.6987E-01
    -39.987  0.0000E+00  0.6987E-01
    -39.729  0.0000E+00  0.6987E-01
    -39.472  0.0000E+00  0.6987E-01
    -39.214  0.0000E+00  0.6987E-01
    -38.957  0.0000E+00  0.6987E-01
    -38.699  0.0000E+00  0.6987E-01
    -38.442  0.0000E+00  0.6987E-01
    -38.184  0.0000E+00  0.6987E-01
    -37.927  0.0000E+00  0.6987E-01
    -37.670  0.0000E+00  0.6987E-01
    -37.412  0.0000E+00  0.6987E-01
    -37.155  0.0000E+00  0.6987E-01
    -36.897  0.0000E+00  0.6987E-01
    -36.640  0.0000E+00  0.6987E-01
    -36.382  0.0000E+00  0.6987E-01
    -36.125  0.0000E+00  0.6987E-01
    -35.867  0.0000E+00  0.6987E-01
    -35.610  0.0000E+00  0.6987E-01
    -35.353  0.0000E+00  0.6987E-01
    -35.095  0.0000E+00  0.6987E-01
    -34.838  0.0000E+00  0.6987E-01
    -34.580  0.0000E+00  0.6987E-01
    -34.323  0.0000E+00  0.6987E-01
    -34.065  0.0000E+00  0.6987E-01
    -33.808  0.0000E+00  0.6987E-01
    -33.550  0.0000E+00  0.6987E-01
    -33.293  0.0000E+00  0.6987E-01
    -33.036  0.0000E+00  0.6987E-01
    -32.778  0.0000E+00  0.6987E-01
    -32.521  0.0000E+00  0.6987E-01
    -32.263  0.0000E+00  0.6987E-01
    -32.006  0.0000E+00  0.6987E-01
    -31.748  0.0000E+00  0.6987E-01
    -31.491  0.0000E+00  0.6987E-01
    -31.233  0.0000E+00  0.6987E-01
    -30.976  0.0000E+00  0.6987E-01
    -30.718  0.0000E+00  0.6987E-01
    -30.461  0.0000E+00  0.6987E-01
    -30.204  0.0000E+00  0.6987E-01
    -29.946  0.0000E+00  0.6987E-01
    -29.689  0.0000E+00  0.6987E-01
    -29.431  0.0000E+00  0.6987E-01
    -29.174  0.0000E+00  0.6987E-01
    -28.916  0.0000E+00  0.6987E-01
    -28.659  0.0000E+00  0.6987E-01
    -28.401  0.0000E+00  0.6987E-01
    -28.144  0.0000E+00  0.6987E-01
    -27.887  0.0000E+00  0.6987E-01
    -27.629  0.0000E+00  0.6987E-01
    -27.372  0.0000E+00  0.6987E-01
    -27.114  0.0000E+00  0.6987E-01
    -26.857  0.0000E+00  0.6987E-01
    -26.599 -0.1959E-39  0.6987E-01
    -26.342 -0.6250E-29  0.6987E-01
    -26.084 -0.1127E-20  0.6987E-01
    -25.827 -0.7394E-14  0.6987E-01
    -25.570 -0.1851E-08  0.6987E-01
    -25.312 -0.1683E-04  0.6986E-01
    -25.055 -0.4715E-02  0.6865E-01
    -24.797  0.3108E-01  0.7665E-01
    -24.540  0.4379E+00  0.1894E+00
    -24.282  0.2685E+00  0.2585E+00
    -24.025  0.8793E-01  0.2812E+00
    -23.767 -0.6356E-02  0.2795E+00
    -23.510 -0.1678E-03  0.2795E+00
    -23.252 -0.9262E-07  0.2795E+00
    -22.995 -0.1709E-11  0.2795E+00
    -22.738  0.0000E+00  0.2795E+00
    -22.480  0.0000E+00  0.2795E+00
    -22.223  0.0000E+00  0.2795E+00
    -21.965  0.0000E+00  0.2795E+00
    -21.708  0.0000E+00  0.2795E+00
    -21.450  0.0000E+00  0.2795E+00
    -21.193  0.0000E+00  0.2795E+00
    -20.935  0.0000E+00  0.2795E+00
    -20.678  0.0000E+00  0.2795E+00
    -20.421  0.0000E+00  0.2795E+00
    -20.163  0.0000E+00  0.2795E+00
    -19.906  0.0000E+00  0.2795E+00
    -19.648  0.0000E+00  0.2795E+00
    -19.391  0.0000E+00  0.2795E+00
    -19.133  0.0000E+00  0.2795E+00
    -18.876  0.0000E+00  0.2795E+00
    -18.618  0.0000E+00  0.2795E+00
    -18.361  0.0000E+00  0.2795E+00
    -18.104  0.0000E+00  0.2795E+00
    -17.846  0.0000E+00  0.2795E+00
    -17.589  0.0000E+00  0.2795E+00
    -17.331  0.0000E+00  0.2795E+00
    -17.074  0.0000E+00  0.2795E+00
    -16.816  0.0000E+00  0.2795E+00
    -16.559  0.0000E+00  0.2795E+00
    -16.301  0.0000E+00  0.2795E+00
    -16.044  0.0000E+00  0.2795E+00
    -15.787  0.0000E+00  0.2795E+00
    -15.529  0.0000E+00  0.2795E+00
    -15.272  0.0000E+00  0.2795E+00
    -15.014  0.0000E+00  0.2795E+00
    -14.757  0.0000E+00  0.2795E+00
    -14.499  0.0000E+00  0.2795E+00
    -14.242  0.0000E+00  0.2795E+00
    -13.984  0.0000E+00  0.2795E+00
    -13.727  0.0000E+00  0.2795E+00
    -13.469  0.0000E+00  0.2795E+00
    -13.212  0.0000E+00  0.2795E+00
    -12.955  0.0000E+00  0.2795E+00
    -12.697  0.0000E+00  0.2795E+00
    -12.440  0.0000E+00  0.2795E+00
    -12.182  0.0000E+00  0.2795E+00
    -11.925  0.0000E+00  0.2795E+00
    -11.667  0.0000E+00  0.2795E+00
    -11.410  0.0000E+00  0.2795E+00
    -11.152  0.0000E+00  0.2795E+00
    -10.895  0.0000E+00  0.2795E+00
    -10.638  0.0000E+00  0.2795E+00
    -10.380  0.0000E+00  0.2795E+00
    -10.123  0.0000E+00  0.2795E+00
     -9.865  0.0000E+00  0.2795E+00
     -9.608  0.0000E+00  0.2795E+00
     -9.350  0.0000E+00  0.2795E+00
     -9.093  0.0000E+00  0.2795E+00
     -8.835  0.0000E+00  0.2795E+00
     -8.578  0.0000E+00  0.2795E+00
     -8.321  0.0000E+00  0.2795E+00
     -8.063  0.0000E+00  0.2795E+00
     -7.806  0.0000E+00  0.2795E+00
     -7.548  0.0000E+00  0.2795E+00
     -7.291  0.0000E+00  0.2795E+00
     -7.033  0.0000E+00  0.2795E+00
     -6.776  0.0000E+00  0.2795E+00
     -6.518  0.0000E+00  0.2795E+00
     -6.261  0.0000E+00  0.2795E+00
     -6.003  0.0000E+00  0.2795E+00
     -5.746  0.0000E+00  0.2795E+00
     -5.489  0.0000E+00  0.2795E+00
     -5.231  0.0000E+00  0.2795E+00
     -4.974  0.0000E+00  0.2795E+00
     -4.716  0.0000E+00  0.2795E+00
     -4.459  0.0000E+00  0.2795E+00
     -4.201  0.0000E+00  0.2795E+00
     -3.944  0.0000E+00  0.2795E+00
     -3.686  0.0000E+00  0.2795E+00
     -3.429  0.0000E+00  0.2795E+00
     -3.172  0.0000E+00  0.2795E+00
     -2.914  0.0000E+00  0.2795E+00
     -2.657  0.0000E+00  0.2795E+00
     -2.399 -0.5092E-34  0.2795E+00
     -2.142 -0.2336E-25  0.2795E+00
     -1.884 -0.3644E-18  0.2795E+00
     -1.627 -0.2025E-12  0.2795E+00
     -1.369 -0.3773E-08  0.2795E+00
     -1.112 -0.2398E-05  0.2795E+00
     -0.855 -0.5027E-04  0.2795E+00
     -0.597  0.7605E-03  0.2797E+00
     -0.340  0.3826E-02  0.2806E+00
     -0.082  0.4680E-02  0.2818E+00
      0.175  0.8680E-02  0.2841E+00
      0.433  0.5987E-02  0.2856E+00
      0.690  0.1235E-01  0.2888E+00
      0.948  0.1188E-01  0.2919E+00
      1.205  0.1353E-01  0.2953E+00
      1.463  0.1131E-01  0.2983E+00
      1.720  0.1559E-01  0.3023E+00
      1.977  0.1535E-01  0.3062E+00
      2.235  0.1155E-01  0.3092E+00
      2.492  0.1228E-01  0.3124E+00
      2.750  0.1750E-01  0.3169E+00
      3.007  0.1645E-01  0.3211E+00
      3.265  0.1750E-01  0.3256E+00
      3.522  0.1499E-01  0.3295E+00
      3.780  0.2041E-01  0.3347E+00
      4.037  0.2046E-01  0.3400E+00
      4.294  0.1653E-01  0.3442E+00
      4.552  0.2095E-01  0.3496E+00
      4.809  0.1419E-01  0.3533E+00
      5.067  0.2129E-01  0.3588E+00
      5.324  0.3046E-01  0.3666E+00
      5.582  0.2923E-01  0.3741E+00
      5.839  0.3067E-01  0.3820E+00
      6.097  0.4313E-01  0.3931E+00
      6.354  0.5123E-01  0.4063E+00
      6.611  0.5478E-01  0.4204E+00
      6.869  0.7493E-01  0.4397E+00
      7.126  0.6264E-01  0.4558E+00
      7.384  0.3287E-01  0.4643E+00
      7.641  0.3423E-01  0.4731E+00
      7.899  0.6716E-01  0.4904E+00
      8.156  0.8696E-01  0.5128E+00
      8.414  0.6496E-01  0.5295E+00
      8.671  0.5195E-01  0.5429E+00
      8.929  0.3698E-01  0.5524E+00
      9.186  0.6378E-01  0.5688E+00
      9.443  0.5198E-01  0.5822E+00
      9.701  0.6939E-01  0.6001E+00
      9.958  0.8469E-01  0.6219E+00
     10.216  0.1190E+00  0.6525E+00
     10.473  0.1162E+00  0.6824E+00
     10.731  0.8373E-01  0.7040E+00
     10.988  0.5338E-01  0.7177E+00
     11.246  0.4196E-01  0.7285E+00
     11.503  0.3344E-01  0.7372E+00
     11.760  0.3210E-01  0.7454E+00
     12.018  0.3984E-01  0.7557E+00
     12.275  0.6966E-01  0.7736E+00
     12.533  0.6466E-01  0.7903E+00
     12.790  0.4526E-01  0.8019E+00
     13.048  0.3383E-01  0.8106E+00
     13.305  0.1938E-01  0.8156E+00
     13.563  0.3872E-01  0.8256E+00
     13.820  0.2675E-01  0.8325E+00
     14.077  0.3968E-01  0.8427E+00
     14.335  0.4551E-01  0.8544E+00
     14.592  0.5124E-01  0.8676E+00
     14.850  0.3124E-01  0.8756E+00
     15.107  0.4223E-01  0.8865E+00
     15.365  0.5113E-01  0.8997E+00
     15.622  0.4472E-01  0.9112E+00
     15.880  0.4282E-01  0.9222E+00
     16.137  0.2203E-01  0.9279E+00
     16.395  0.4616E-01  0.9398E+00
     16.652  0.3545E-01  0.9489E+00
     16.909  0.4729E-01  0.9611E+00
     17.167  0.3545E-01  0.9702E+00
     17.424  0.3386E-01  0.9789E+00
     17.682  0.5009E-01  0.9918E+00
     17.939  0.3985E-01  0.1002E+01
     18.197  0.4151E-01  0.1013E+01
     18.454  0.3274E-01  0.1021E+01
     18.712  0.2647E-01  0.1028E+01
     18.969  0.2735E-01  0.1035E+01
     19.226  0.3880E-01  0.1045E+01
     19.484  0.4297E-01  0.1056E+01
     19.741  0.2812E-01  0.1063E+01
     19.999  0.3120E-01  0.1071E+01
     20.256  0.2795E-01  0.1079E+01
     20.514  0.3507E-01  0.1088E+01
     20.771  0.3621E-01  0.1097E+01
     21.029  0.4106E-01  0.1107E+01
     21.286  0.2034E-01  0.1113E+01
     21.543  0.1007E-01  0.1115E+01
     21.801  0.7533E-02  0.1117E+01
     22.058  0.2752E-02  0.1118E+01
     22.316 -0.1617E-03  0.1118E+01
     22.573 -0.7401E-05  0.1118E+01
     22.831 -0.8115E-08  0.1118E+01
     23.088 -0.3131E-12  0.1118E+01
     23.346 -0.5231E-18  0.1118E+01
     23.603  0.0000E+00  0.1118E+01
     23.860  0.0000E+00  0.1118E+01
     24.118  0.0000E+00  0.1118E+01
     24.375  0.0000E+00  0.1118E+01
     24.633  0.0000E+00  0.1118E+01
     24.890  0.0000E+00  0.1118E+01
     25.148  0.0000E+00  0.1118E+01
     25.405  0.0000E+00  0.1118E+01
