   16   16  229    1
  0.1621382E+02  0.5650682E-09  0.5650682E-09  0.8124629E-09  0.1500000E-16
  1.000000000000000E-004
  CAR 
 unknown system                          
    120     30    128
 
  0.1276756E-14  0.1276756E-14  0.1276756E-14  0.6944444E-02
      1        -48.318575   1.000000
      2        -48.314696   1.000000
      3        -48.261153   1.000000
      4        -48.261153   1.000000
      5        -48.257268   1.000000
      6        -48.257268   1.000000
      7        -48.205812   1.000000
      8        -48.201902   1.000000
      9        -24.743663   1.000000
     10        -24.743429   1.000000
     11        -24.739509   1.000000
     12        -24.739268   1.000000
     13        -24.727671   1.000000
     14        -24.710001   1.000000
     15        -24.676892   1.000000
     16        -24.676892   1.000000
     17        -24.673360   1.000000
     18        -24.673360   1.000000
     19        -24.665767   1.000000
     20        -24.665767   1.000000
     21        -24.652751   1.000000
     22        -24.652751   1.000000
     23        -24.611048   1.000000
     24        -24.599895   1.000000
     25        -24.273138   1.000000
     26        -24.273138   1.000000
     27        -24.269630   1.000000
     28        -24.269630   1.000000
     29        -24.231673   1.000000
     30        -24.231547   1.000000
     31        -24.228125   1.000000
     32        -24.227998   1.000000
     33         -0.708303   1.000000
     34          0.771180   1.000000
     35          3.059912   1.000000
     36          3.412915   1.000000
     37          3.413044   1.000000
     38          3.759820   1.000000
     39          3.759873   1.000000
     40          3.798265   1.000000
     41          3.798265   1.000000
     42          5.131053   1.000000
     43          5.399342   1.000000
     44          5.399342   1.000000
     45          5.810929   1.000000
     46          6.059841   1.000000
     47          6.059841   1.000000
     48          6.463540   1.000000
     49          6.632839   1.000000
     50          6.632993   1.000000
     51          7.125465   1.000000
     52          7.125465   1.000000
     53          7.170313   1.000000
     54          7.170407   1.000000
     55          7.481944   1.000000
     56          7.652327   1.000015
     57          7.854845   1.002765
     58          7.854845   1.002765
     59          7.914298   1.008081
     60          7.990574   1.022359
     61          8.071621   1.035424
     62          8.071621   1.035424
     63          8.114922   1.024447
     64          8.114922   1.024447
     65          8.968869  -0.000018
     66          9.699646  -0.000000
     67          9.699646  -0.000000
     68         10.044817  -0.000000
     69         10.044817  -0.000000
     70         10.084606  -0.000000
     71         10.097346  -0.000000
     72         10.097346  -0.000000
     73         10.110839  -0.000000
     74         10.110839  -0.000000
     75         10.443695  -0.000000
     76         10.466618  -0.000000
     77         10.466618  -0.000000
     78         10.595793  -0.000000
     79         10.595802  -0.000000
     80         10.820767  -0.000000
     81         10.820838  -0.000000
     82         11.041807  -0.000000
     83         11.598345  -0.000000
     84         11.612005  -0.000000
     85         12.126975  -0.000000
     86         12.127071  -0.000000
     87         12.492570   0.000000
     88         12.492570   0.000000
     89         12.503773   0.000000
     90         12.507583   0.000000
     91         12.635749   0.000000
     92         12.635749   0.000000
     93         13.276764   0.000000
     94         13.344437   0.000000
     95         13.344437   0.000000
     96         13.450115   0.000000
     97         13.450115   0.000000
     98         13.655087   0.000000
     99         13.655627   0.000000
    100         13.975845   0.000000
    101         13.975845   0.000000
    102         14.321258   0.000000
    103         14.511573   0.000000
    104         14.661485   0.000000
    105         16.243397   0.000000
    106         16.309224   0.000000
    107         16.309504   0.000000
    108         16.589261   0.000000
    109         16.677820   0.000000
    110         16.677820   0.000000
    111         17.426659   0.000000
    112         17.723873   0.000000
    113         18.663156   0.000000
    114         18.663156   0.000000
    115         19.060374   0.000000
    116         19.060374   0.000000
    117         19.387964   0.000000
    118         19.387964   0.000000
    119         19.943554   0.000000
    120         20.550229   0.000000
    121         20.550229   0.000000
    122         20.582013   0.000000
    123         20.582013   0.000000
    124         20.972904   0.000000
    125         20.981623   0.000000
    126         20.981626   0.000000
    127         21.023412   0.000000
    128         21.023412   0.000000
 
  0.1666667E+00  0.1276756E-14  0.1276756E-14  0.2777778E-01
      1        -48.314747   1.000000
      2        -48.310867   1.000000
      3        -48.265031   1.000000
      4        -48.261148   1.000000
      5        -48.257471   1.000000
      6        -48.253582   1.000000
      7        -48.209556   1.000000
      8        -48.205648   1.000000
      9        -24.739108   1.000000
     10        -24.735002   1.000000
     11        -24.723550   1.000000
     12        -24.712826   1.000000
     13        -24.708752   1.000000
     14        -24.706188   1.000000
     15        -24.681384   1.000000
     16        -24.677827   1.000000
     17        -24.669944   1.000000
     18        -24.662124   1.000000
     19        -24.656607   1.000000
     20        -24.649233   1.000000
     21        -24.647780   1.000000
     22        -24.644247   1.000000
     23        -24.614740   1.000000
     24        -24.603480   1.000000
     25        -24.305474   1.000000
     26        -24.301955   1.000000
     27        -24.270365   1.000000
     28        -24.266850   1.000000
     29        -24.262169   1.000000
     30        -24.258624   1.000000
     31        -24.234393   1.000000
     32        -24.230844   1.000000
     33         -0.571686   1.000000
     34          0.871494   1.000000
     35          2.495490   1.000000
     36          2.996648   1.000000
     37          3.212211   1.000000
     38          3.524854   1.000000
     39          3.837123   1.000000
     40          3.932647   1.000000
     41          5.023664   1.000000
     42          5.168474   1.000000
     43          5.448042   1.000000
     44          5.730030   1.000000
     45          5.886576   1.000000
     46          5.927540   1.000000
     47          6.025545   1.000000
     48          6.198623   1.000000
     49          6.574156   1.000000
     50          6.706338   1.000000
     51          6.708952   1.000000
     52          6.792496   1.000000
     53          7.054159   1.000000
     54          7.334202   1.000000
     55          7.532155   1.000000
     56          7.725706   1.000130
     57          7.857262   1.002901
     58          7.868010   1.003574
     59          7.928405   1.010074
     60          7.968556   1.017455
     61          7.979846   1.019920
     62          8.221330   0.848241
     63          8.228028   0.828053
     64          8.891281  -0.000172
     65          9.021138  -0.000003
     66          9.684583  -0.000000
     67          9.746448  -0.000000
     68          9.779686  -0.000000
     69          9.831787  -0.000000
     70         10.129663  -0.000000
     71         10.141145  -0.000000
     72         10.182720  -0.000000
     73         10.231030  -0.000000
     74         10.382703  -0.000000
     75         10.453915  -0.000000
     76         10.489324  -0.000000
     77         10.532017  -0.000000
     78         10.543847  -0.000000
     79         10.561195  -0.000000
     80         10.621028  -0.000000
     81         10.795734  -0.000000
     82         10.807754  -0.000000
     83         11.365904  -0.000000
     84         11.465422  -0.000000
     85         11.488320  -0.000000
     86         12.131064  -0.000000
     87         12.238255  -0.000000
     88         12.242438  -0.000000
     89         12.297214  -0.000000
     90         12.358185   0.000000
     91         12.610498   0.000000
     92         13.059597   0.000000
     93         13.296594   0.000000
     94         13.411633   0.000000
     95         13.611335   0.000000
     96         13.910321   0.000000
     97         13.927972   0.000000
     98         13.939637   0.000000
     99         13.973439   0.000000
    100         14.003774   0.000000
    101         14.190245   0.000000
    102         14.488245   0.000000
    103         14.524009   0.000000
    104         14.764464   0.000000
    105         15.066652   0.000000
    106         15.706709   0.000000
    107         16.230285   0.000000
    108         16.854562   0.000000
    109         16.882186   0.000000
    110         17.013063   0.000000
    111         17.717054   0.000000
    112         18.155213   0.000000
    113         18.601438   0.000000
    114         18.629853   0.000000
    115         18.816946   0.000000
    116         19.113891   0.000000
    117         19.123877   0.000000
    118         19.238249   0.000000
    119         19.504418   0.000000
    120         19.603230   0.000000
    121         19.755371   0.000000
    122         19.959796   0.000000
    123         20.049042   0.000000
    124         20.256711   0.000000
    125         20.355905   0.000000
    126         20.396339   0.000000
    127         20.425387   0.000000
    128         20.700112   0.000000
 
  0.3333333E+00  0.1276756E-14  0.1276756E-14  0.2777778E-01
      1        -48.304293   1.000000
      2        -48.300412   1.000000
      3        -48.275588   1.000000
      4        -48.271708   1.000000
      5        -48.247385   1.000000
      6        -48.243491   1.000000
      7        -48.219739   1.000000
      8        -48.215835   1.000000
      9        -24.726948   1.000000
     10        -24.722984   1.000000
     11        -24.712265   1.000000
     12        -24.695776   1.000000
     13        -24.693636   1.000000
     14        -24.689975   1.000000
     15        -24.681330   1.000000
     16        -24.667140   1.000000
     17        -24.652148   1.000000
     18        -24.639599   1.000000
     19        -24.628344   1.000000
     20        -24.624795   1.000000
     21        -24.624449   1.000000
     22        -24.613171   1.000000
     23        -24.567717   1.000000
     24        -24.564193   1.000000
     25        -24.393211   1.000000
     26        -24.389633   1.000000
     27        -24.345109   1.000000
     28        -24.341577   1.000000
     29        -24.262787   1.000000
     30        -24.259263   1.000000
     31        -24.242021   1.000000
     32        -24.238483   1.000000
     33         -0.166826   1.000000
     34          1.168813   1.000000
     35          1.388332   1.000000
     36          2.288617   1.000000
     37          3.653474   1.000000
     38          3.854744   1.000000
     39          4.057450   1.000000
     40          4.326761   1.000000
     41          4.740460   1.000000
     42          5.053436   1.000000
     43          5.219823   1.000000
     44          5.580568   1.000000
     45          5.792710   1.000000
     46          5.920395   1.000000
     47          6.100870   1.000000
     48          6.483161   1.000000
     49          6.764798   1.000000
     50          6.865522   1.000000
     51          6.914925   1.000000
     52          6.928248   1.000000
     53          6.955696   1.000000
     54          7.571750   1.000001
     55          7.615463   1.000005
     56          7.648121   1.000013
     57          7.699082   1.000062
     58          7.911865   1.007768
     59          7.940314   1.012006
     60          8.153521   0.990194
     61          8.180907   0.946533
     62          8.559476  -0.035455
     63          8.634254  -0.022923
     64          9.088017  -0.000000
     65          9.172233  -0.000000
     66          9.210218  -0.000000
     67          9.401786  -0.000000
     68          9.593255  -0.000000
     69          9.756729  -0.000000
     70          9.877590  -0.000000
     71         10.022305  -0.000000
     72         10.225961  -0.000000
     73         10.307020  -0.000000
     74         10.371550  -0.000000
     75         10.424427  -0.000000
     76         10.433705  -0.000000
     77         10.468224  -0.000000
     78         10.494566  -0.000000
     79         10.552089  -0.000000
     80         10.589628  -0.000000
     81         10.729051  -0.000000
     82         11.031173  -0.000000
     83         11.132383  -0.000000
     84         11.171691  -0.000000
     85         11.410795  -0.000000
     86         11.690575  -0.000000
     87         11.759536  -0.000000
     88         12.116532  -0.000000
     89         12.205511  -0.000000
     90         12.328525   0.000000
     91         12.521581   0.000000
     92         12.799589   0.000000
     93         13.183265   0.000000
     94         13.718039   0.000000
     95         13.769663   0.000000
     96         13.957255   0.000000
     97         14.274905   0.000000
     98         14.521252   0.000000
     99         14.523671   0.000000
    100         14.638952   0.000000
    101         14.819869   0.000000
    102         14.946561   0.000000
    103         14.964608   0.000000
    104         15.011579   0.000000
    105         15.205581   0.000000
    106         15.232937   0.000000
    107         15.982552   0.000000
    108         16.557851   0.000000
    109         17.139357   0.000000
    110         17.340430   0.000000
    111         17.618763   0.000000
    112         17.720445   0.000000
    113         17.917224   0.000000
    114         18.027074   0.000000
    115         18.075025   0.000000
    116         18.078157   0.000000
    117         18.157628   0.000000
    118         18.871428   0.000000
    119         18.966763   0.000000
    120         19.118439   0.000000
    121         19.278838   0.000000
    122         19.411689   0.000000
    123         19.449467   0.000000
    124         19.556296   0.000000
    125         19.717577   0.000000
    126         19.934432   0.000000
    127         21.035917   0.000000
    128         21.181229   0.000000
 
  0.5000000E+00  0.1276756E-14  0.1276756E-14  0.1388889E-01
      1        -48.289971   1.000000
      2        -48.289936   1.000000
      3        -48.286092   1.000000
      4        -48.286056   1.000000
      5        -48.233616   1.000000
      6        -48.233581   1.000000
      7        -48.229719   1.000000
      8        -48.229684   1.000000
      9        -24.710342   1.000000
     10        -24.710296   1.000000
     11        -24.706554   1.000000
     12        -24.706508   1.000000
     13        -24.696849   1.000000
     14        -24.696814   1.000000
     15        -24.681504   1.000000
     16        -24.681469   1.000000
     17        -24.638518   1.000000
     18        -24.638483   1.000000
     19        -24.626421   1.000000
     20        -24.626386   1.000000
     21        -24.511626   1.000000
     22        -24.511537   1.000000
     23        -24.507921   1.000000
     24        -24.507829   1.000000
     25        -24.457182   1.000000
     26        -24.457106   1.000000
     27        -24.453670   1.000000
     28        -24.453591   1.000000
     29        -24.252424   1.000000
     30        -24.252387   1.000000
     31        -24.248892   1.000000
     32        -24.248855   1.000000
     33          0.492854   1.000000
     34          0.492870   1.000000
     35          1.650873   1.000000
     36          1.650915   1.000000
     37          4.339794   1.000000
     38          4.343070   1.000000
     39          4.381792   1.000000
     40          4.381947   1.000000
     41          4.382840   1.000000
     42          4.385883   1.000000
     43          4.957168   1.000000
     44          4.957198   1.000000
     45          5.756920   1.000000
     46          5.756953   1.000000
     47          6.415432   1.000000
     48          6.415536   1.000000
     49          7.169596   1.000000
     50          7.170171   1.000000
     51          7.223413   1.000000
     52          7.223967   1.000000
     53          7.261771   1.000000
     54          7.261968   1.000000
     55          7.502228   1.000000
     56          7.502252   1.000000
     57          8.069297   1.035456
     58          8.069372   1.035456
     59          8.108466   1.027606
     60          8.108550   1.027569
     61          8.627530  -0.024479
     62          8.627542  -0.024476
     63          8.882963  -0.000215
     64          8.883068  -0.000214
     65          9.085556  -0.000000
     66          9.085700  -0.000000
     67          9.160614  -0.000000
     68          9.160731  -0.000000
     69          9.391956  -0.000000
     70          9.391997  -0.000000
     71         10.066486  -0.000000
     72         10.066530  -0.000000
     73         10.345024  -0.000000
     74         10.345058  -0.000000
     75         10.377902  -0.000000
     76         10.377915  -0.000000
     77         10.639464  -0.000000
     78         10.639517  -0.000000
     79         10.730274  -0.000000
     80         10.730304  -0.000000
     81         10.779889  -0.000000
     82         10.779922  -0.000000
     83         11.099781  -0.000000
     84         11.099884  -0.000000
     85         11.618678  -0.000000
     86         11.618808  -0.000000
     87         11.960204  -0.000000
     88         11.960321  -0.000000
     89         11.967483  -0.000000
     90         11.967517  -0.000000
     91         12.347445   0.000000
     92         12.347489   0.000000
     93         13.604632   0.000000
     94         13.604669   0.000000
     95         13.895618   0.000000
     96         13.895646   0.000000
     97         14.453696   0.000000
     98         14.453933   0.000000
     99         14.833743   0.000000
    100         14.833747   0.000000
    101         15.543249   0.000000
    102         15.543753   0.000000
    103         15.556695   0.000000
    104         15.557396   0.000000
    105         16.224610   0.000000
    106         16.225078   0.000000
    107         16.298266   0.000000
    108         16.298589   0.000000
    109         16.301281   0.000000
    110         16.301679   0.000000
    111         16.365024   0.000000
    112         16.365269   0.000000
    113         16.893806   0.000000
    114         16.893865   0.000000
    115         18.059428   0.000000
    116         18.059562   0.000000
    117         18.626249   0.000000
    118         18.626464   0.000000
    119         19.368324   0.000000
    120         19.368548   0.000000
    121         19.522637   0.000000
    122         19.522724   0.000000
    123         19.554749   0.000000
    124         19.554868   0.000000
    125         19.727483   0.000000
    126         19.728429   0.000000
    127         19.765362   0.000000
    128         19.766368   0.000000
 
  0.1666667E+00  0.1666667E+00  0.1276756E-14  0.2777778E-01
      1        -48.310932   1.000000
      2        -48.307056   1.000000
      3        -48.261336   1.000000
      4        -48.261335   1.000000
      5        -48.257449   1.000000
      6        -48.257448   1.000000
      7        -48.213300   1.000000
      8        -48.209393   1.000000
      9        -24.719467   1.000000
     10        -24.708615   1.000000
     11        -24.708384   1.000000
     12        -24.704583   1.000000
     13        -24.704344   1.000000
     14        -24.702391   1.000000
     15        -24.666254   1.000000
     16        -24.666254   1.000000
     17        -24.653889   1.000000
     18        -24.653073   1.000000
     19        -24.653073   1.000000
     20        -24.650439   1.000000
     21        -24.650300   1.000000
     22        -24.646909   1.000000
     23        -24.618462   1.000000
     24        -24.607036   1.000000
     25        -24.304394   1.000000
     26        -24.300859   1.000000
     27        -24.300776   1.000000
     28        -24.297276   1.000000
     29        -24.265139   1.000000
     30        -24.265004   1.000000
     31        -24.261593   1.000000
     32        -24.261457   1.000000
     33         -0.435894   1.000000
     34          0.971931   1.000000
     35          2.610722   1.000000
     36          2.610773   1.000000
     37          3.102900   1.000000
     38          3.103015   1.000000
     39          3.362280   1.000000
     40          4.735787   1.000000
     41          5.251102   1.000000
     42          5.261097   1.000000
     43          5.261124   1.000000
     44          5.942811   1.000000
     45          5.976326   1.000000
     46          5.976378   1.000000
     47          6.253500   1.000000
     48          6.264093   1.000000
     49          6.264880   1.000000
     50          6.677498   1.000000
     51          6.681710   1.000000
     52          6.779642   1.000000
     53          6.779902   1.000000
     54          7.588002   1.000002
     55          7.785391   1.000602
     56          7.804213   1.000936
     57          7.921761   1.009096
     58          7.922172   1.009154
     59          7.940955   1.012116
     60          7.952643   1.014242
     61          8.102470   1.029993
     62          8.102483   1.029988
     63          8.251710   0.748622
     64          9.071634  -0.000001
     65          9.186191  -0.000000
     66          9.703793  -0.000000
     67          9.704082  -0.000000
     68          9.721229  -0.000000
     69          9.902320  -0.000000
     70          9.902323  -0.000000
     71         10.020963  -0.000000
     72         10.268575  -0.000000
     73         10.268588  -0.000000
     74         10.284948  -0.000000
     75         10.313493  -0.000000
     76         10.417500  -0.000000
     77         10.417562  -0.000000
     78         10.497095  -0.000000
     79         10.497099  -0.000000
     80         10.609525  -0.000000
     81         10.906634  -0.000000
     82         10.965438  -0.000000
     83         11.157484  -0.000000
     84         11.318504  -0.000000
     85         11.356840  -0.000000
     86         11.480685  -0.000000
     87         12.211863  -0.000000
     88         12.262062  -0.000000
     89         12.262092  -0.000000
     90         12.309854  -0.000000
     91         12.309940  -0.000000
     92         13.425084   0.000000
     93         13.500745   0.000000
     94         13.500792   0.000000
     95         13.738116   0.000000
     96         13.948250   0.000000
     97         14.196994   0.000000
     98         14.197732   0.000000
     99         14.230441   0.000000
    100         14.230700   0.000000
    101         14.452949   0.000000
    102         14.498578   0.000000
    103         14.676324   0.000000
    104         14.740878   0.000000
    105         15.008716   0.000000
    106         15.491364   0.000000
    107         15.954207   0.000000
    108         16.854343   0.000000
    109         16.854600   0.000000
    110         17.135002   0.000000
    111         17.233681   0.000000
    112         17.612298   0.000000
    113         18.282695   0.000000
    114         18.282717   0.000000
    115         18.352765   0.000000
    116         18.352783   0.000000
    117         18.674371   0.000000
    118         19.244755   0.000000
    119         19.305655   0.000000
    120         19.814137   0.000000
    121         19.978843   0.000000
    122         19.979054   0.000000
    123         20.088457   0.000000
    124         20.263914   0.000000
    125         20.604462   0.000000
    126         20.630092   0.000000
    127         20.962932   0.000000
    128         21.283102   0.000000
 
  0.3333333E+00  0.1666667E+00  0.1276756E-14  0.5555556E-01
      1        -48.300509   1.000000
      2        -48.296630   1.000000
      3        -48.271865   1.000000
      4        -48.267980   1.000000
      5        -48.251236   1.000000
      6        -48.247345   1.000000
      7        -48.223497   1.000000
      8        -48.219596   1.000000
      9        -24.708273   1.000000
     10        -24.696660   1.000000
     11        -24.692746   1.000000
     12        -24.692029   1.000000
     13        -24.677550   1.000000
     14        -24.664201   1.000000
     15        -24.663547   1.000000
     16        -24.660561   1.000000
     17        -24.656202   1.000000
     18        -24.643382   1.000000
     19        -24.628614   1.000000
     20        -24.624330   1.000000
     21        -24.620463   1.000000
     22        -24.616802   1.000000
     23        -24.571701   1.000000
     24        -24.568161   1.000000
     25        -24.390105   1.000000
     26        -24.386533   1.000000
     27        -24.348327   1.000000
     28        -24.344793   1.000000
     29        -24.294585   1.000000
     30        -24.291060   1.000000
     31        -24.273002   1.000000
     32        -24.269462   1.000000
     33         -0.033514   1.000000
     34          1.269671   1.000000
     35          1.511612   1.000000
     36          2.391513   1.000000
     37          2.946170   1.000000
     38          3.416056   1.000000
     39          3.796288   1.000000
     40          4.114980   1.000000
     41          4.558732   1.000000
     42          5.323016   1.000000
     43          5.524541   1.000000
     44          6.090543   1.000000
     45          6.104651   1.000000
     46          6.337185   1.000000
     47          6.339404   1.000000
     48          6.344709   1.000000
     49          6.554915   1.000000
     50          6.960287   1.000000
     51          6.978291   1.000000
     52          6.988974   1.000000
     53          6.993227   1.000000
     54          7.560310   1.000001
     55          7.669356   1.000026
     56          7.690453   1.000048
     57          7.817728   1.001268
     58          8.005338   1.025770
     59          8.147934   0.996985
     60          8.238064   0.795868
     61          8.256536   0.731038
     62          8.421924   0.107995
     63          8.539260  -0.033823
     64          9.060095  -0.000001
     65          9.217618  -0.000000
     66          9.461508  -0.000000
     67          9.529858  -0.000000
     68          9.610778  -0.000000
     69          9.717677  -0.000000
     70          9.796857  -0.000000
     71          9.963883  -0.000000
     72         10.070028  -0.000000
     73         10.188959  -0.000000
     74         10.208550  -0.000000
     75         10.258505  -0.000000
     76         10.325254  -0.000000
     77         10.351879  -0.000000
     78         10.357486  -0.000000
     79         10.368137  -0.000000
     80         10.374008  -0.000000
     81         10.483083  -0.000000
     82         10.960412  -0.000000
     83         11.024887  -0.000000
     84         11.080554  -0.000000
     85         11.470787  -0.000000
     86         11.682983  -0.000000
     87         11.789571  -0.000000
     88         12.037842  -0.000000
     89         12.252844  -0.000000
     90         12.318714   0.000000
     91         12.764648   0.000000
     92         12.835110   0.000000
     93         13.236335   0.000000
     94         13.684112   0.000000
     95         14.122793   0.000000
     96         14.335189   0.000000
     97         14.343555   0.000000
     98         14.422283   0.000000
     99         14.432631   0.000000
    100         14.536308   0.000000
    101         14.681954   0.000000
    102         14.836268   0.000000
    103         14.979605   0.000000
    104         15.068758   0.000000
    105         15.709831   0.000000
    106         15.719519   0.000000
    107         16.043217   0.000000
    108         16.295854   0.000000
    109         16.541063   0.000000
    110         16.807961   0.000000
    111         16.967765   0.000000
    112         17.002112   0.000000
    113         17.391012   0.000000
    114         17.719399   0.000000
    115         17.725642   0.000000
    116         17.828420   0.000000
    117         18.173423   0.000000
    118         18.268432   0.000000
    119         19.336347   0.000000
    120         19.384710   0.000000
    121         19.749571   0.000000
    122         19.775274   0.000000
    123         19.990735   0.000000
    124         20.639937   0.000000
    125         20.750890   0.000000
    126         20.897783   0.000000
    127         20.922658   0.000000
    128         20.986250   0.000000
 
  0.5000000E+00  0.1666667E+00  0.1276756E-14  0.2777778E-01
      1        -48.286230   1.000000
      2        -48.286195   1.000000
      3        -48.282350   1.000000
      4        -48.282315   1.000000
      5        -48.237418   1.000000
      6        -48.237382   1.000000
      7        -48.233523   1.000000
      8        -48.233488   1.000000
      9        -24.692958   1.000000
     10        -24.692924   1.000000
     11        -24.680473   1.000000
     12        -24.680428   1.000000
     13        -24.677831   1.000000
     14        -24.677796   1.000000
     15        -24.676708   1.000000
     16        -24.676661   1.000000
     17        -24.642450   1.000000
     18        -24.642415   1.000000
     19        -24.630137   1.000000
     20        -24.630102   1.000000
     21        -24.508057   1.000000
     22        -24.507969   1.000000
     23        -24.504372   1.000000
     24        -24.504280   1.000000
     25        -24.460795   1.000000