       N       E                     dE             d eps       ncg     rms          rms(c)
DAV:   1     0.877972126023E+03    0.87797E+03   -0.56907E+04  7680   0.999E+02
DAV:   2    -0.407933518591E+02   -0.91877E+03   -0.88129E+03  8000   0.278E+02
DAV:   3    -0.109808259792E+03   -0.69015E+02   -0.67586E+02 15040   0.652E+01
DAV:   4    -0.111927372715E+03   -0.21191E+01   -0.21182E+01  8000   0.103E+01
DAV:   5    -0.111981891131E+03   -0.54518E-01   -0.54517E-01 11968   0.159E+00    0.273E+01
DAV:   6    -0.100549899988E+03    0.11432E+02   -0.37193E+01  9344   0.265E+01    0.965E+00
DAV:   7    -0.992812498215E+02    0.12687E+01   -0.46172E+00  8832   0.863E+00    0.555E+00
DAV:   8    -0.991969896310E+02    0.84260E-01   -0.95299E-01  9984   0.401E+00    0.237E+00
DAV:   9    -0.991422494532E+02    0.54740E-01   -0.28535E-01  9408   0.272E+00    0.958E-01
DAV:  10    -0.991348127621E+02    0.74367E-02   -0.16195E-02 10304   0.530E-01    0.343E-01
DAV:  11    -0.991334141210E+02    0.13986E-02   -0.79420E-03 10432   0.378E-01    0.180E-01
DAV:  12    -0.991333048957E+02    0.10923E-03   -0.53231E-04  9344   0.903E-02    0.693E-02
DAV:  13    -0.991332830116E+02    0.21884E-04   -0.20092E-05 10816   0.160E-02    0.397E-02
DAV:  14    -0.991332753397E+02    0.76719E-05   -0.27207E-05  9280   0.218E-02    0.796E-03
DAV:  15    -0.991332745978E+02    0.74186E-06   -0.19251E-06  9216   0.425E-03
   1 F= -.99133275E+02 E0= -.99139632E+02  d E =0.190734E-01
 Found     4 degrees of freedom:
 Adding 6 more for cell shape distortion
       N       E                     dE             d eps       ncg     rms          rms(c)
DAV:   1    -0.996236537645E+02   -0.49038E+00   -0.10386E+01 16256   0.149E+01    0.618E+00
DAV:   2    -0.991918140677E+02    0.43184E+00   -0.17450E+00 15424   0.617E+00    0.196E+00
DAV:   3    -0.990951459326E+02    0.96668E-01   -0.23246E-01 15872   0.179E+00    0.752E-01
DAV:   4    -0.990915487625E+02    0.35972E-02   -0.56517E-02 16640   0.674E-01    0.396E-01
DAV:   5    -0.990956078944E+02   -0.40591E-02   -0.55961E-03 14272   0.185E-01    0.249E-01
DAV:   6    -0.990982955973E+02   -0.26877E-02   -0.55165E-03 20160   0.118E-01    0.131E-01
DAV:   7    -0.990985265367E+02   -0.23094E-03   -0.51920E-04 13120   0.622E-02    0.201E-02
DAV:   8    -0.990985337717E+02   -0.72350E-05   -0.59352E-05 16640   0.184E-02    0.133E-02
DAV:   9    -0.990985315718E+02    0.21999E-05   -0.21171E-06 15424   0.491E-03    0.382E-03
DAV:  10    -0.990985308413E+02    0.73045E-06   -0.32382E-07 10240   0.164E-03
   2 F= -.99098531E+02 E0= -.99104652E+02  d E =0.183643E-01
       N       E                     dE             d eps       ncg     rms          rms(c)
DAV:   1    -0.101071598067E+03   -0.19731E+01   -0.36371E+01 16320   0.276E+01    0.116E+01
DAV:   2    -0.993835506418E+02    0.16880E+01   -0.51523E+00 14912   0.108E+01    0.373E+00
DAV:   3    -0.990941075190E+02    0.28944E+00   -0.83635E-01 15104   0.302E+00    0.168E+00
DAV:   4    -0.990693648830E+02    0.24743E-01   -0.26099E-01 17216   0.157E+00    0.883E-01
DAV:   5    -0.990861462331E+02   -0.16781E-01   -0.31779E-02 14016   0.577E-01    0.346E-01
DAV:   6    -0.990938777774E+02   -0.77315E-02   -0.22312E-02 18304   0.273E-01    0.264E-01
DAV:   7    -0.990938295759E+02    0.48202E-04   -0.12550E-03 13888   0.136E-01    0.163E-02
DAV:   8    -0.990938407112E+02   -0.11135E-04   -0.29530E-05 16320   0.174E-02    0.946E-03
DAV:   9    -0.990938405260E+02    0.18522E-06   -0.39430E-06 15168   0.702E-03
   3 F= -.99093841E+02 E0= -.99099655E+02  d E =0.174421E-01
       N       E                     dE             d eps       ncg     rms          rms(c)
DAV:   1    -0.100738314394E+03   -0.16445E+01   -0.31744E+01 16704   0.260E+01    0.116E+01
DAV:   2    -0.994565963262E+02    0.12817E+01   -0.71461E+00 15680   0.122E+01    0.358E+00
DAV:   3    -0.990589260324E+02    0.39767E+00   -0.92916E-01 15872   0.371E+00    0.107E+00
DAV:   4    -0.990663441609E+02   -0.74181E-02   -0.17078E-01 16960   0.106E+00    0.656E-01
DAV:   5    -0.990926409284E+02   -0.26297E-01   -0.34420E-02 18240   0.354E-01    0.367E-01
DAV:   6    -0.990981215093E+02   -0.54806E-02   -0.15407E-02 19392   0.219E-01    0.178E-01
DAV:   7    -0.990985338905E+02   -0.41238E-03   -0.16076E-03 13184   0.108E-01    0.766E-02
DAV:   8    -0.990985277098E+02    0.61807E-05   -0.16890E-04 13696   0.389E-02    0.116E-02
DAV:   9    -0.990985330495E+02   -0.53397E-05   -0.15122E-05 17088   0.100E-02    0.131E-02
DAV:  10    -0.990985315444E+02    0.15052E-05   -0.76734E-06 16640   0.533E-03    0.251E-03
DAV:  11    -0.990985314505E+02    0.93887E-07   -0.35387E-07 10368   0.148E-03
   4 F= -.99098531E+02 E0= -.99104653E+02  d E =0.183639E-01
       N       E                     dE             d eps       ncg     rms          rms(c)
DAV:   1    -0.101064899959E+03   -0.19664E+01   -0.36464E+01 16768   0.277E+01    0.116E+01
DAV:   2    -0.993842424578E+02    0.16807E+01   -0.52206E+00 15680   0.108E+01    0.375E+00
DAV:   3    -0.990940466006E+02    0.29020E+00   -0.85367E-01 15488   0.303E+00    0.167E+00
DAV:   4    -0.990694435765E+02    0.24603E-01   -0.25708E-01 17472   0.156E+00    0.881E-01
DAV:   5    -0.990867705922E+02   -0.17327E-01   -0.32142E-02 14272   0.582E-01    0.326E-01
DAV:   6    -0.990939069435E+02   -0.71364E-02   -0.22005E-02 18560   0.276E-01    0.261E-01
DAV:   7    -0.990938304868E+02    0.76457E-04   -0.12141E-03 13248   0.134E-01    0.149E-02
DAV:   8    -0.990938406342E+02   -0.10147E-04   -0.29618E-05 16448   0.170E-02    0.967E-03
DAV:   9    -0.990938405092E+02    0.12494E-06   -0.37077E-06 15488   0.667E-03
   5 F= -.99093841E+02 E0= -.99099655E+02  d E =0.174427E-01
       N       E                     dE             d eps       ncg     rms          rms(c)
DAV:   1    -0.100906564009E+03   -0.18127E+01   -0.29128E+01 12800   0.248E+01    0.124E+01
DAV:   2    -0.995460063273E+02    0.13606E+01   -0.91548E+00 10432   0.128E+01    0.408E+00
DAV:   3    -0.990133121324E+02    0.53269E+00   -0.99490E-01  9792   0.427E+00    0.117E+00
DAV:   4    -0.990384710539E+02   -0.25159E-01   -0.16364E-01 10304   0.984E-01    0.686E-01
DAV:   5    -0.990874759054E+02   -0.49005E-01   -0.54970E-02 11584   0.494E-01    0.497E-01
DAV:   6    -0.990982355596E+02   -0.10760E-01   -0.93114E-03 10752   0.269E-01    0.175E-01
DAV:   7    -0.991012448449E+02   -0.30093E-02   -0.10452E-03  9472   0.906E-02    0.321E-02
DAV:   8    -0.991016785289E+02   -0.43368E-03   -0.66311E-05 10624   0.197E-02    0.118E-02
DAV:   9    -0.991019147117E+02   -0.23618E-03   -0.59933E-06  9792   0.661E-03    0.601E-03
DAV:  10    -0.991019449578E+02   -0.30246E-04   -0.78429E-07  9024   0.245E-03    0.909E-04
DAV:  11    -0.991019545971E+02   -0.96393E-05   -0.47737E-08  5056   0.666E-04    0.231E-04
DAV:  12    -0.991019569359E+02   -0.23388E-05   -0.94156E-09  4032   0.269E-04    0.127E-04
DAV:  13    -0.991019564312E+02    0.50474E-06   -0.17366E-09  4224   0.122E-04
   6 F= -.99101956E+02 E0= -.99107437E+02  d E =0.164422E-01
       N       E                     dE             d eps       ncg     rms          rms(c)
DAV:   1    -0.101161727514E+03   -0.20598E+01   -0.37744E+01 10816   0.292E+01    0.117E+01
DAV:   2    -0.994421793228E+02    0.17195E+01   -0.61505E+00  9792   0.118E+01    0.410E+00
DAV:   3    -0.991105291832E+02    0.33165E+00   -0.79798E-01  9728   0.359E+00    0.183E+00
DAV:   4    -0.990796454216E+02    0.30884E-01   -0.25626E-01 10880   0.140E+00    0.850E-01
DAV:   5    -0.990993348650E+02   -0.19689E-01   -0.42623E-02  9024   0.700E-01    0.278E-01
DAV:   6    -0.990998352294E+02   -0.50036E-03   -0.12849E-02 10944   0.301E-01    0.135E-01
DAV:   7    -0.991000064363E+02   -0.17121E-03   -0.10265E-03  8192   0.100E-01    0.224E-02
DAV:   8    -0.991000019559E+02    0.44804E-05   -0.21359E-05 11136   0.139E-02    0.727E-03
DAV:   9    -0.991000026554E+02   -0.69945E-06   -0.10577E-06  8960   0.328E-03
   7 F= -.99100003E+02 E0= -.99106128E+02  d E =0.183755E-01
       N       E                     dE             d eps       ncg     rms          rms(c)
DAV:   1    -0.997462545142E+02   -0.64625E+00   -0.12616E+01 21440   0.170E+01    0.663E+00
DAV:   2    -0.992692897427E+02    0.47696E+00   -0.23620E+00 20288   0.687E+00    0.245E+00
DAV:   3    -0.991314842270E+02    0.13781E+00   -0.26105E-01 19392   0.217E+00    0.106E+00
DAV:   4    -0.991196979699E+02    0.11786E-01   -0.65186E-02 22720   0.721E-01    0.430E-01
DAV:   5    -0.991251409542E+02   -0.54430E-02   -0.12031E-02 19200   0.286E-01    0.124E-01
DAV:   6    -0.991251912742E+02   -0.50320E-04   -0.22471E-03 22080   0.113E-01    0.617E-02
DAV:   7    -0.991251770925E+02    0.14182E-04   -0.30444E-04 16128   0.544E-02    0.664E-02
DAV:   8    -0.991252090265E+02   -0.31934E-04   -0.58571E-05 16640   0.264E-02    0.553E-03
DAV:   9    -0.991252090706E+02   -0.44087E-07   -0.97130E-07 21120   0.337E-03
   8 F= -.99125209E+02 E0= -.99131278E+02  d E =0.182054E-01
       N       E                     dE             d eps       ncg     rms          rms(c)
DAV:   1    -0.993730086921E+02   -0.24780E+00   -0.58759E+00 19776   0.929E+00    0.378E+00
DAV:   2    -0.991940809308E+02    0.17893E+00   -0.21102E-01 17152   0.168E+00    0.197E+00
DAV:   3    -0.991254113680E+02    0.68670E-01   -0.46190E-02 21952   0.126E+00    0.131E-01
DAV:   4    -0.991254909224E+02   -0.79554E-04   -0.76516E-03 15360   0.286E-01    0.663E-02
DAV:   5    -0.991252301994E+02    0.26072E-03   -0.20938E-04 26496   0.840E-02    0.314E-02
DAV:   6    -0.991252109627E+02    0.19237E-04   -0.49300E-05 17920   0.314E-02    0.792E-03
DAV:   7    -0.991252090760E+02    0.18867E-05   -0.55376E-06 17152   0.764E-03    0.305E-03
DAV:   8    -0.991252085807E+02    0.49526E-06   -0.20199E-07 13440   0.203E-03
   9 F= -.99125209E+02 E0= -.99131278E+02  d E =0.182081E-01
       N       E                     dE             d eps       ncg     rms          rms(c)
DAV:   1    -0.992460917754E+02   -0.12088E+00   -0.54345E+00 18816   0.109E+01    0.254E+00
DAV:   2    -0.991584899870E+02    0.87602E-01   -0.23955E-01 15232   0.173E+00    0.137E+00
DAV:   3    -0.991135886491E+02    0.44901E-01   -0.34121E-02 22144   0.102E+00    0.227E-01
DAV:   4    -0.991128293851E+02    0.75926E-03   -0.68681E-03 15232   0.337E-01    0.912E-02
DAV:   5    -0.991126737486E+02    0.15564E-03   -0.39343E-04 24064   0.988E-02    0.216E-02
DAV:   6    -0.991126798390E+02   -0.60904E-05   -0.40412E-05 17088   0.266E-02    0.825E-03
DAV:   7    -0.991126780337E+02    0.18053E-05   -0.24539E-06 19648   0.452E-03    0.113E-03
DAV:   8    -0.991126777266E+02    0.30710E-06   -0.70362E-08 10432   0.123E-03
  10 F= -.99112678E+02 E0= -.99118987E+02  d E =0.189266E-01
       N       E                     dE             d eps       ncg     rms          rms(c)
DAV:   1    -0.994377435562E+02   -0.32507E+00   -0.88454E+00 19008   0.130E+01    0.410E+00
DAV:   2    -0.991963382835E+02    0.24141E+00   -0.45999E-01 15104   0.233E+00    0.200E+00
DAV:   3    -0.991131766180E+02    0.83162E-01   -0.85637E-02 21376   0.131E+00    0.209E-01
DAV:   4    -0.991130836465E+02    0.92972E-04   -0.10644E-02 14976   0.360E-01    0.120E-01
DAV:   5    -0.991126925628E+02    0.39108E-03   -0.35780E-04 25728   0.115E-01    0.484E-02
DAV:   6    -0.991126824613E+02    0.10101E-04   -0.73611E-05 16640   0.303E-02    0.109E-02
DAV:   7    -0.991126782732E+02    0.41882E-05   -0.53789E-06 17088   0.788E-03    0.316E-03
DAV:   8    -0.991126777029E+02    0.57025E-06   -0.28642E-07 12096   0.252E-03
  11 F= -.99112678E+02 E0= -.99118987E+02  d E =0.189267E-01
       N       E                     dE             d eps       ncg     rms          rms(c)
DAV:   1    -0.992756059136E+02   -0.16293E+00   -0.41240E+00 18304   0.813E+00    0.256E+00
DAV:   2    -0.991693085184E+02    0.10630E+00   -0.21483E-01 16192   0.158E+00    0.138E+00
DAV:   3    -0.991144421981E+02    0.54866E-01   -0.40555E-02 20800   0.107E+00    0.242E-01
DAV:   4    -0.991131291028E+02    0.13131E-02   -0.73436E-03 15680   0.331E-01    0.115E-01
DAV:   5    -0.991126854151E+02    0.44369E-03   -0.62849E-04 23488   0.135E-01    0.228E-02
DAV:   6    -0.991126866023E+02   -0.11872E-05   -0.97125E-05 16384   0.372E-02    0.885E-03
DAV:   7    -0.991126820655E+02    0.45367E-05   -0.46559E-06 20672   0.633E-03    0.147E-03
DAV:   8    -0.991126810702E+02    0.99533E-06   -0.13376E-07  9600   0.154E-03
  12 F= -.99112681E+02 E0= -.99118990E+02  d E =0.189273E-01
       N       E                     dE             d eps       ncg     rms          rms(c)
DAV:   1    -0.994383255573E+02   -0.32564E+00   -0.90341E+00 18880   0.130E+01    0.411E+00
DAV:   2    -0.991961748488E+02    0.24215E+00   -0.45844E-01 15040   0.232E+00    0.200E+00
DAV:   3    -0.991131816907E+02    0.82993E-01   -0.85931E-02 21312   0.131E+00    0.209E-01
DAV:   4    -0.991130845882E+02    0.97102E-04   -0.10540E-02 15424   0.359E-01    0.120E-01
DAV:   5    -0.991126942991E+02    0.39029E-03   -0.36130E-04 25280   0.115E-01    0.481E-02
DAV:   6    -0.991126857592E+02    0.85399E-05   -0.72975E-05 16064   0.297E-02    0.111E-02
DAV:   7    -0.991126813060E+02    0.44532E-05   -0.51405E-06 16768   0.779E-03    0.308E-03
DAV:   8    -0.991126807763E+02    0.52971E-06   -0.27385E-07 12736   0.247E-03
  13 F= -.99112681E+02 E0= -.99118990E+02  d E =0.189273E-01
       N       E                     dE             d eps       ncg     rms          rms(c)
DAV:   1    -0.992015402476E+02   -0.88859E-01   -0.34750E+00 16320   0.103E+01    0.154E+00
DAV:   2    -0.991682782876E+02    0.33262E-01   -0.22500E-01 12672   0.146E+00    0.949E-01
DAV:   3    -0.991323770027E+02    0.35901E-01   -0.29781E-02 18752   0.874E-01    0.165E-01
DAV:   4    -0.991329623767E+02   -0.58537E-03   -0.10701E-02 16192   0.446E-01    0.226E-01
DAV:   5    -0.991322868513E+02    0.67553E-03   -0.28713E-03 19264   0.247E-01    0.345E-02
DAV:   6    -0.991322880270E+02   -0.11758E-05   -0.16332E-04 18752   0.751E-02    0.319E-02
DAV:   7    -0.991322774614E+02    0.10566E-04   -0.66098E-05 17600   0.465E-02    0.157E-02
DAV:   8    -0.991322778198E+02   -0.35835E-06   -0.45150E-05 17664   0.271E-02    0.164E-02
DAV:   9    -0.991322739373E+02    0.38825E-05   -0.15450E-05 15616   0.191E-02    0.347E-03
DAV:  10    -0.991322743105E+02   -0.37324E-06   -0.38962E-06 12864   0.968E-03
  14 F= -.99132274E+02 E0= -.99138628E+02  d E =0.190610E-01
       N       E                     dE             d eps       ncg     rms          rms(c)
DAV:   1    -0.991295940857E+02    0.26799E-02   -0.22389E+00 12352   0.106E+01    0.259E-01
DAV:   2    -0.991323785323E+02   -0.27844E-02   -0.34931E-02 12608   0.524E-01    0.158E-01
DAV:   3    -0.991330848673E+02   -0.70634E-03   -0.47089E-03 18368   0.304E-01    0.252E-01
DAV:   4    -0.991322810458E+02    0.80382E-03   -0.31586E-03 15936   0.221E-01    0.431E-02
DAV:   5    -0.991323014896E+02   -0.20444E-04   -0.26257E-04 20160   0.904E-02    0.481E-02
DAV:   6    -0.991322791740E+02    0.22316E-04   -0.15930E-04 17664   0.540E-02    0.204E-02
DAV:   7    -0.991322748293E+02    0.43447E-05   -0.39432E-05 16576   0.321E-02    0.997E-03
DAV:   8    -0.991322737648E+02    0.10645E-05   -0.42614E-06 14400   0.129E-02    0.318E-03
DAV:   9    -0.991322739315E+02   -0.16668E-06   -0.16970E-06  8960   0.670E-03
  15 F= -.99132274E+02 E0= -.99138628E+02  d E =0.190613E-01
       N       E                     dE             d eps       ncg     rms          rms(c)
DAV:   1    -0.991310157108E+02    0.12581E-02   -0.13289E+00  7680   0.850E+00    0.160E-01
DAV:   2    -0.991325964442E+02   -0.15807E-02   -0.18598E-02  7936   0.399E-01    0.989E-02
DAV:   3    -0.991327861965E+02   -0.18975E-03   -0.17277E-03 11648   0.172E-01    0.146E-01
DAV:   4    -0.991324814654E+02    0.30473E-03   -0.12296E-03  9792   0.130E-01    0.260E-02
DAV:   5    -0.991324853914E+02   -0.39260E-05   -0.15192E-04 12800   0.577E-02    0.371E-02
DAV:   6    -0.991324635427E+02    0.21849E-04   -0.91562E-05 10496   0.413E-02    0.889E-03
DAV:   7    -0.991324617743E+02    0.17684E-05   -0.98028E-06 10496   0.189E-02    0.702E-03
DAV:   8    -0.991324595340E+02    0.22403E-05   -0.22910E-06  8768   0.103E-02    0.208E-03
DAV:   9    -0.991324587313E+02    0.80275E-06   -0.10701E-06  7232   0.486E-03
  16 F= -.99132459E+02 E0= -.99138796E+02  d E =0.190111E-01
       N       E                     dE             d eps       ncg     rms          rms(c)
DAV:   1    -0.991287194186E+02    0.37401E-02   -0.26009E+00  7680   0.115E+01    0.210E-01
DAV:   2    -0.991325687717E+02   -0.38494E-02   -0.45150E-02  8064   0.566E-01    0.125E-01
DAV:   3    -0.991329426245E+02   -0.37385E-03   -0.28516E-03 12288   0.235E-01    0.192E-01
DAV:   4    -0.991324673510E+02    0.47527E-03   -0.19908E-03 10240   0.180E-01    0.439E-02
DAV:   5    -0.991324924362E+02   -0.25085E-04   -0.24239E-04 11520   0.859E-02    0.511E-02
DAV:   6    -0.991324604427E+02    0.31994E-04   -0.15371E-04 10048   0.618E-02    0.153E-02
DAV:   7    -0.991324591705E+02    0.12721E-05   -0.31470E-05 10496   0.275E-02    0.113E-02
DAV:   8    -0.991324576889E+02    0.14816E-05   -0.58291E-06  9536   0.145E-02    0.271E-03
DAV:   9    -0.991324577653E+02   -0.76352E-07   -0.10891E-06  5824   0.529E-03
  17 F= -.99132458E+02 E0= -.99138795E+02  d E =0.190112E-01
       N       E                     dE             d eps       ncg     rms          rms(c)
DAV:   1    -0.991311609821E+02    0.12967E-02   -0.66155E-01 12480   0.583E+00    0.137E-01
DAV:   2    -0.991340742552E+02   -0.29133E-02   -0.26985E-02 12992   0.612E-01    0.330E-01
DAV:   3    -0.991325956341E+02    0.14786E-02   -0.65769E-03 18304   0.342E-01    0.612E-02
DAV:   4    -0.991325449887E+02    0.50645E-04   -0.15634E-04 13696   0.393E-02    0.225E-02
DAV:   5    -0.991325351863E+02    0.98024E-05   -0.17326E-05 17792   0.131E-02    0.538E-03
DAV:   6    -0.991325337001E+02    0.14863E-05   -0.21539E-06 15488   0.566E-03    0.192E-03
DAV:   7    -0.991325333555E+02    0.34454E-06   -0.30088E-07 11968   0.198E-03
  18 F= -.99132533E+02 E0= -.99138888E+02  d E =0.190625E-01
       N       E                     dE             d eps       ncg     rms          rms(c)
DAV:   1    -0.991336403537E+02   -0.11067E-02   -0.69865E-02 12288   0.425E-01    0.191E-01
DAV:   2    -0.991382971648E+02   -0.46568E-02   -0.36015E-02 17856   0.846E-01    0.633E-01
DAV:   3    -0.991325807624E+02    0.57164E-02   -0.21957E-02 16640   0.538E-01    0.481E-02
DAV:   4    -0.991325305023E+02    0.50260E-04   -0.26993E-04 14208   0.400E-02    0.156E-02
DAV:   5    -0.991325327417E+02   -0.22394E-05   -0.13758E-05 17664   0.152E-02    0.713E-03
DAV:   6    -0.991325330832E+02   -0.34159E-06   -0.12693E-06 13568   0.527E-03
  19 F= -.99132533E+02 E0= -.99138887E+02  d E =0.190626E-01
       N       E                     dE             d eps       ncg     rms          rms(c)
DAV:   1    -0.991328923889E+02   -0.35965E-03   -0.43552E-02  7680   0.343E-01    0.115E-01
DAV:   2    -0.991349920434E+02   -0.20997E-02   -0.17507E-02 10816   0.310E-01    0.390E-01
DAV:   3    -0.991325049668E+02    0.24871E-02   -0.11191E-02  9856   0.191E-01    0.364E-02
DAV:   4    -0.991324029716E+02    0.10200E-03   -0.14880E-04  9088   0.308E-02    0.120E-02
DAV:   5    -0.991323687856E+02    0.34186E-04   -0.27479E-05 10688   0.180E-02    0.495E-03
DAV:   6    -0.991323548431E+02    0.13942E-04   -0.12806E-05 10240   0.123E-02    0.163E-03
DAV:   7    -0.991323513701E+02    0.34730E-05   -0.39530E-06 10304   0.703E-03    0.905E-04
DAV:   8    -0.991323504272E+02    0.94285E-06   -0.88974E-07  6784   0.347E-03
  20 F= -.99132350E+02 E0= -.99138708E+02  d E =0.190738E-01
       N       E                     dE             d eps       ncg     rms          rms(c)
DAV:   1    -0.991335041612E+02   -0.11528E-02   -0.92044E-02  8000   0.484E-01    0.217E-01
DAV:   2    -0.991423272618E+02   -0.88231E-02   -0.69751E-02 10496   0.528E-01    0.779E-01
DAV:   3    -0.991324262351E+02    0.99010E-02   -0.43556E-02 10112   0.358E-01    0.577E-02
DAV:   4    -0.991323485088E+02    0.77726E-04   -0.36168E-04  8896   0.403E-02    0.192E-02
DAV:   5    -0.991323494540E+02   -0.94513E-06   -0.14427E-05 11072   0.164E-02    0.978E-03
DAV:   6    -0.991323498548E+02   -0.40082E-06   -0.13082E-06  7808   0.418E-03
  21 F= -.99132350E+02 E0= -.99138708E+02  d E =0.190739E-01
