<?xml version="1.0" encoding="ISO-8859-1"?>
<modeling>
 <generator>
  <i name="program" type="string">vasp </i>
  <i name="version" type="string">6.5.0  </i>
  <i name="subversion" type="string">16Dec24 (build Apr 17 2025 17:55:45) complex                          parallel </i>
  <i name="platform" type="string">LinuxIFC </i>
  <i name="date" type="string">2025 06 07 </i>
  <i name="time" type="string">12:35:31 </i>
 </generator>
 <incar>
  <i type="int" name="ISTART">     0</i>
  <i type="string" name="PREC">N</i>
  <i type="string" name="ALGO">N</i>
  <i type="int" name="ICHARG">     2</i>
  <i type="int" name="NELM">   500</i>
  <i type="int" name="IBRION">     6</i>
  <i type="int" name="NFREE">     2</i>
  <i name="EDIFF">      0.00000100</i>
  <i name="EDIFFG">     -0.00100000</i>
  <i type="int" name="NSW">     1</i>
  <i type="int" name="ISIF">     3</i>
  <i name="SYMPREC">      0.00000100</i>
  <i name="ENCUT">    500.00000000</i>
  <i name="POTIM">      0.01500000</i>
  <i type="logical" name="LREAL"> F  </i>
  <i type="int" name="ISMEAR">     1</i>
  <i name="SIGMA">      0.20000000</i>
 </incar>
 <primitive_cell>
  <structure name="primitive_cell" >
   <crystal>
    <varray name="basis" >
     <v>       2.82534089       0.00000000       0.00000000 </v>
     <v>       0.00000000       2.82534089       0.00000000 </v>
     <v>       0.00000000       0.00000000       4.06231459 </v>
    </varray>
    <i name="volume">     32.42763392 </i>
    <varray name="rec_basis" >
     <v>       0.35393959       0.00000000       0.00000000 </v>
     <v>       0.00000000       0.35393959       0.00000000 </v>
     <v>       0.00000000       0.00000000       0.24616508 </v>
    </varray>
   </crystal>
   <varray name="positions" >
    <v>       0.00000000       0.00000000       0.00000000 </v>
    <v>       0.50000000       0.50000000       0.50000000 </v>
   </varray>
  </structure>
  <varray name="primitive_index" >
   <v type="int" >        1 </v>
   <v type="int" >        9 </v>
  </varray>
 </primitive_cell>
 <kpoints>
  <generation param="Gamma">
   <v type="int" name="divisions">       6        6        4 </v>
   <v name="usershift">      0.00000000       0.00000000       0.00000000 </v>
   <v name="genvec1">      0.16666667       0.00000000       0.00000000 </v>
   <v name="genvec2">      0.00000000       0.16666667       0.00000000 </v>
   <v name="genvec3">      0.00000000       0.00000000       0.25000000 </v>
   <v name="shift">      0.00000000       0.00000000       0.00000000 </v>
  </generation>
  <varray name="kpointlist" >
   <v>       0.00000000       0.00000000       0.00000000 </v>
   <v>       0.16666667       0.00000000       0.00000000 </v>
   <v>       0.33333333       0.00000000       0.00000000 </v>
   <v>       0.50000000       0.00000000       0.00000000 </v>
   <v>       0.16666667       0.16666667       0.00000000 </v>
   <v>       0.33333333       0.16666667       0.00000000 </v>
   <v>       0.50000000       0.16666667       0.00000000 </v>
   <v>       0.33333333       0.33333333       0.00000000 </v>
   <v>       0.50000000       0.33333333       0.00000000 </v>
   <v>       0.50000000       0.50000000       0.00000000 </v>
   <v>       0.00000000       0.00000000       0.25000000 </v>
   <v>       0.16666667       0.00000000       0.25000000 </v>
   <v>       0.33333333       0.00000000       0.25000000 </v>
   <v>       0.50000000       0.00000000       0.25000000 </v>
   <v>       0.16666667       0.16666667       0.25000000 </v>
   <v>       0.33333333       0.16666667       0.25000000 </v>
   <v>       0.50000000       0.16666667       0.25000000 </v>
   <v>       0.33333333       0.33333333       0.25000000 </v>
   <v>       0.50000000       0.33333333       0.25000000 </v>
   <v>       0.50000000       0.50000000       0.25000000 </v>
   <v>       0.00000000       0.00000000       0.50000000 </v>
   <v>       0.16666667       0.00000000       0.50000000 </v>
   <v>       0.33333333       0.00000000       0.50000000 </v>
   <v>       0.50000000       0.00000000       0.50000000 </v>
   <v>       0.16666667       0.16666667       0.50000000 </v>
   <v>       0.33333333       0.16666667       0.50000000 </v>
   <v>       0.50000000       0.16666667       0.50000000 </v>
   <v>       0.33333333       0.33333333       0.50000000 </v>
   <v>       0.50000000       0.33333333       0.50000000 </v>
   <v>       0.50000000       0.50000000       0.50000000 </v>
  </varray>
  <varray name="weights" >
   <v>       0.00694444 </v>
   <v>       0.02777778 </v>
   <v>       0.02777778 </v>
   <v>       0.01388889 </v>
   <v>       0.02777778 </v>
   <v>       0.05555556 </v>
   <v>       0.02777778 </v>
   <v>       0.02777778 </v>
   <v>       0.02777778 </v>
   <v>       0.00694444 </v>
   <v>       0.01388889 </v>
   <v>       0.05555556 </v>
   <v>       0.05555556 </v>
   <v>       0.02777778 </v>
   <v>       0.05555556 </v>
   <v>       0.11111111 </v>
   <v>       0.05555556 </v>
   <v>       0.05555556 </v>
   <v>       0.05555556 </v>
   <v>       0.01388889 </v>
   <v>       0.00694444 </v>
   <v>       0.02777778 </v>
   <v>       0.02777778 </v>
   <v>       0.01388889 </v>
   <v>       0.02777778 </v>
   <v>       0.05555556 </v>
   <v>       0.02777778 </v>
   <v>       0.02777778 </v>
   <v>       0.02777778 </v>
   <v>       0.00694444 </v>
  </varray>
 </kpoints>
 <parameters>
  <separator name="general" >
   <i type="string" name="SYSTEM">unknown system</i>
   <i type="logical" name="LCOMPAT"> F  </i>
  </separator>
  <separator name="electronic" >
   <i type="string" name="PREC">n</i>
   <i name="ENMAX">    500.00000000</i>
   <i name="ENAUG">    482.84800000</i>
   <i name="EDIFF">      0.00000100</i>
   <i type="int" name="IALGO">    38</i>
   <i type="int" name="IWAVPR">    11</i>
   <i type="int" name="NBANDS">   128</i>
   <i type="int" name="NBANDSLOW">    -1</i>
   <i type="int" name="NBANDSHIGH">    -1</i>
   <i name="NELECT">    120.00000000</i>
   <i type="int" name="TURBO">     0</i>
   <i type="int" name="IRESTART">     0</i>
   <i type="int" name="NREBOOT">     0</i>
   <i type="int" name="NMIN">     0</i>
   <i name="EREF">      0.00000000</i>
   <separator name="electronic smearing" >
    <i type="int" name="ISMEAR">     1</i>
    <i name="SIGMA">      0.20000000</i>
    <i name="KSPACING">      0.50000000</i>
    <i type="logical" name="KGAMMA"> T  </i>
    <i type="logical" name="KBLOWUP"> T  </i>
   </separator>
   <separator name="electronic projectors" >
    <i type="logical" name="LREAL"> F  </i>
    <v name="ROPT">      0.00000000      0.00000000</v>
    <i type="int" name="LMAXPAW">  -100</i>
    <i type="int" name="LMAXMIX">     2</i>
    <i type="logical" name="NLSPLINE"> F  </i>
   </separator>
   <separator name="electronic startup" >
    <i type="int" name="ISTART">     0</i>
    <i type="int" name="ICHARG">     2</i>
    <i type="int" name="INIWAV">     1</i>
   </separator>
   <separator name="electronic spin" >
    <i type="int" name="ISPIN">     1</i>
    <i type="logical" name="LNONCOLLINEAR"> F  </i>
    <v name="MAGMOM">      1.00000000      1.00000000      1.00000000      1.00000000      1.00000000      1.00000000      1.00000000      1.00000000      1.00000000      1.00000000      1.00000000      1.00000000      1.00000000      1.00000000      1.00000000      1.00000000</v>
    <i name="NUPDOWN">     -1.00000000</i>
    <i type="logical" name="LSORBIT"> F  </i>
    <v name="SAXIS">      0.00000000      0.00000000      1.00000000</v>
    <i type="logical" name="LSPIRAL"> F  </i>
    <v name="QSPIRAL">      0.00000000      0.00000000      0.00000000</v>
    <i type="logical" name="LZEROZ"> F  </i>
   </separator>
   <separator name="electronic exchange-correlation" >
    <i type="logical" name="LASPH"> F  </i>
   </separator>
   <separator name="electronic convergence" >
    <i type="int" name="NELM">   500</i>
    <i type="int" name="NELMDL">    -5</i>
    <i type="int" name="NELMIN">     2</i>
    <i name="ENINI">    500.00000000</i>
    <separator name="electronic convergence detail" >
     <i type="logical" name="LDIAG"> T  </i>
     <i type="logical" name="LSUBROT"> F  </i>
     <i name="WEIMIN">      0.00100000</i>
     <i name="EBREAK">      0.00000000</i>
     <i name="DEPER">      0.30000000</i>
     <i type="int" name="NRMM">     4</i>
     <i name="TIME">      0.40000000</i>
    </separator>
   </separator>
   <separator name="electronic mixer" >
    <i name="AMIX">      0.40000000</i>
    <i name="BMIX">      1.00000000</i>
    <i name="AMIN">      0.10000000</i>
    <i name="AMIX_MAG">      1.60000000</i>
    <i name="BMIX_MAG">      1.00000000</i>
    <separator name="electronic mixer details" >
     <i type="int" name="IMIX">     4</i>
     <i type="logical" name="MIXFIRST"> F  </i>
     <i type="int" name="MAXMIX">   -45</i>
     <i name="WC">    100.00000000</i>
     <i type="int" name="INIMIX">     1</i>
     <i type="int" name="MIXPRE">     1</i>
     <i type="int" name="MREMOVE">     5</i>
    </separator>
   </separator>
   <separator name="electronic dipolcorrection" >
    <i type="logical" name="LDIPOL"> F  </i>
    <i type="logical" name="LMONO"> F  </i>
    <i type="int" name="IDIPOL">     0</i>
    <i name="EPSILON">      1.00000000</i>
    <v name="DIPOL">   -100.00000000   -100.00000000   -100.00000000</v>
    <i name="EFIELD">      0.00000000</i>
    <i type="logical" name="LVACPOTAV"> F  </i>
   </separator>
  </separator>
  <separator name="grids" >
   <i type="int" name="NGX">    32</i>
   <i type="int" name="NGY">    32</i>
   <i type="int" name="NGZ">    48</i>
   <i type="int" name="NGXF">    64</i>
   <i type="int" name="NGYF">    64</i>
   <i type="int" name="NGZF">    96</i>
   <i type="logical" name="ADDGRID"> F  </i>
  </separator>
  <separator name="ionic" >
   <i type="int" name="NSW">   229</i>
   <i type="int" name="IBRION">     6</i>
   <i type="int" name="MDALGO">     0</i>
   <i type="int" name="ISIF">     3</i>
   <i name="PSTRESS">      0.00000000</i>
   <i name="EDIFFG">     -0.00100000</i>
   <i type="int" name="NFREE">     2</i>
   <i name="POTIM">      0.01500000</i>
   <i name="SMASS">     -3.00000000</i>
   <i name="SCALEE">      1.00000000</i>
  </separator>
  <separator name="ionic md" >
   <i name="TEBEG">      0.00010000</i>
   <i name="TEEND">      0.00010000</i>
   <i type="int" name="NBLOCK">     1</i>
   <i type="int" name="KBLOCK">   229</i>
   <i type="int" name="NPACO">   256</i>
   <i name="APACO">     10.00000000</i>
  </separator>
  <separator name="symmetry" >
   <i type="int" name="ISYM">     2</i>
   <i name="SYMPREC">      0.00000100</i>
  </separator>
  <separator name="dos" >
   <i type="int" name="LORBIT">     0</i>
   <v name="RWIGS">     -1.00000000     -1.00000000</v>
   <i type="int" name="NEDOS">   301</i>
   <i name="EMIN">     10.00000000</i>
   <i name="EMAX">    -10.00000000</i>
   <i name="EFERMI">      0.00000000</i>
  </separator>
  <separator name="writing" >
   <i type="int" name="NWRITE">     2</i>
   <i type="logical" name="LWAVE"> T  </i>
   <i type="logical" name="LDOWNSAMPLE"> F  </i>
   <i type="logical" name="LCHARG"> T  </i>
   <i type="logical" name="LPARD"> F  </i>
   <i type="logical" name="LVTOT"> F  </i>
   <i type="logical" name="LVHAR"> F  </i>
   <i type="logical" name="LELF"> F  </i>
   <i type="logical" name="LOPTICS"> F  </i>
   <v name="STM">      0.00000000      0.00000000      0.00000000      0.00000000      0.00000000      0.00000000      0.00000000</v>
  </separator>
  <separator name="performance" >
   <i type="int" name="NPAR">    64</i>
   <i type="int" name="NSIM">     4</i>
   <i type="int" name="NBLK">    -1</i>
   <i type="logical" name="LPLANE"> T  </i>
   <i type="logical" name="LSCALAPACK"> T  </i>
   <i type="logical" name="LSCAAWARE"> T  </i>
   <i type="logical" name="LSCALU"> F  </i>
   <i type="logical" name="LASYNC"> F  </i>
   <i type="logical" name="LORBITALREAL"> F  </i>
  </separator>
  <separator name="miscellaneous" >
   <i type="int" name="IDIOT">     3</i>
   <i type="int" name="PHON_NSTRUCT">    -1</i>
   <i type="logical" name="LMUSIC"> F  </i>
   <v name="POMASS">     47.88000000     26.98100000</v>
   <v name="DARWINR">      0.00000000      0.00000000</v>
   <v name="DARWINV">      1.00000000      1.00000000</v>
   <i type="logical" name="LCORR"> T  </i>
  </separator>
  <i type="logical" name="GGA_COMPAT"> T  </i>
  <i type="logical" name="LBERRY"> F  </i>
  <i type="int" name="ICORELEVEL">     0</i>
  <i type="logical" name="LDAU"> F  </i>
  <i type="int" name="I_CONSTRAINED_M">     0</i>
  <separator name="electronic exchange-correlation" >
   <i type="string" name="GGA    ">PE</i>
   <i type="string" name="XC_C">1</i>
   <i type="int" name="VOSKOWN">     0</i>
   <i type="logical" name="LHFCALC"> F  </i>
   <i type="string" name="PRECFOCK"></i>
   <i type="logical" name="LSYMGRAD"> F  </i>
   <i type="logical" name="LHFONE"> F  </i>
   <i type="logical" name="LRHFCALC"> F  </i>
   <i type="logical" name="LTHOMAS"> F  </i>
   <i type="logical" name="LMODELHF"> F  </i>
   <i type="logical" name="LFOCKACE"> F  </i>
   <i name="ENCUT4O">     -1.00000000</i>
   <i type="int" name="EXXOEP">     0</i>
   <i type="int" name="FOURORBIT">     0</i>
   <i name="AEXX">      0.00000000</i>
   <i name="HFALPHA">      0.00000000</i>
   <i name="MCALPHA">      0.00000000</i>
   <i name="ALDAX">      1.00000000</i>
   <i name="AGGAX">      1.00000000</i>
   <i name="AMGGAX">      1.00000000</i>
   <i name="ALDAC">      1.00000000</i>
   <i name="AGGAC">      1.00000000</i>
   <i name="AMGGAC">      1.00000000</i>
   <i type="int" name="NKREDX">     1</i>
   <i type="int" name="NKREDY">     1</i>
   <i type="int" name="NKREDZ">     1</i>
   <i type="logical" name="SHIFTRED"> F  </i>
   <i type="logical" name="ODDONLY"> F  </i>
   <i type="logical" name="EVENONLY"> F  </i>
   <i type="int" name="LMAXFOCK">     0</i>
   <i type="int" name="NMAXFOCKAE">     0</i>
   <i type="logical" name="LFOCKAEDFT"> F  </i>
   <i name="HFSCREEN">      0.00000000</i>
   <i name="HFSCREENC">      0.00000000</i>
   <i type="int" name="NBANDSGWLOW">     0</i>
  </separator>
  <separator name="vdW DFT" >
   <i type="logical" name="LUSE_VDW"> F  </i>
   <i type="int" name="IVDW_NL">    -1</i>
   <i type="logical" name="LSPIN_VDW"> F  </i>
   <i name="ZAB_VDW">     -0.84910000</i>
   <i name="GAMMA_VDW">      1.39626340</i>
   <i name="ALPHA_VDW">      0.00000000</i>
   <i name="PARAM1">      0.12340000</i>
   <i name="PARAM2">      1.00000000</i>
   <i name="BPARAM">      6.30000000</i>
   <i name="CPARAM">      0.00930000</i>
  </separator>
  <separator name="model GW" >
   <i type="int" name="MODEL_GW">     0</i>
   <i name="MODEL_EPS0">      9.72829018</i>
   <i name="MODEL_ALPHA">      1.00000000</i>
  </separator>
  <separator name="linear response parameters" >
   <i type="logical" name="LEPSILON"> F  </i>
   <i type="logical" name="LRPA"> F  </i>
   <i type="logical" name="LNABLA"> F  </i>
   <i type="logical" name="LVEL"> F  </i>
   <i name="CSHIFT">      0.10000000</i>
   <i name="OMEGAMAX">     -1.00000000</i>
   <i name="DEG_THRESHOLD">      0.00200000</i>
   <i name="RTIME">     -0.10000000</i>
   <i name="WPLASMAI">      0.00000000</i>
   <v name="DFIELD">      0.00000000      0.00000000      0.00000000</v>
   <v name="WPLASMA">      0.00000000      0.00000000      0.00000000      0.00000000      0.00000000      0.00000000      0.00000000      0.00000000      0.00000000</v>
  </separator>
  <separator name="orbital magnetization" >
   <i type="logical" name="NUCIND"> F  </i>
   <v name="MAGPOS">      0.00000000      0.00000000      0.00000000</v>
   <i type="logical" name="LNICSALL"> T  </i>
   <i type="logical" name="ORBITALMAG"> F  </i>
   <i type="logical" name="LMAGBLOCH"> F  </i>
   <i type="logical" name="LCHIMAG"> F  </i>
   <i type="logical" name="LGAUGE"> T  </i>
   <i type="int" name="MAGATOM">     0</i>
   <v name="MAGDIPOL">      0.00000000      0.00000000      0.00000000</v>
   <v name="AVECCONST">      0.00000000      0.00000000      0.00000000</v>
  </separator>
  <separator name="response functions" >
   <i type="logical" name="LALL_IN_ONE"> F  </i>
   <i type="int" name="IALL_IN_ONE">    -1</i>
   <i type="int" name="NBANDS_WAVE">    -1</i>
   <i type="logical" name="LFINITE_TEMPERATURE"> F  </i>
   <i type="logical" name="LADDER"> F  </i>
   <i type="logical" name="LRPAFORCE"> F  </i>
   <i type="logical" name="LFXC"> F  </i>
   <i type="logical" name="LHARTREE"> T  </i>
   <i type="int" name="IBSE">     2</i>
   <v type="int" name="KPOINT">    -1     0     0     0</v>
   <i type="logical" name="LTCTC"> F  </i>
   <i type="logical" name="LTCTE"> F  </i>
   <i type="logical" name="LTETE"> F  </i>
   <i type="logical" name="LTRIPLET"> F  </i>
   <i type="logical" name="LFXCEPS"> F  </i>
   <i type="logical" name="LFXHEG"> F  </i>
   <i type="int" name="NATURALO">     2</i>
   <i type="logical" name="LHOLEGF"> F  </i>
   <i type="logical" name="L2ORDER"> F  </i>
   <i type="logical" name="LDMP1"> F  </i>
   <i type="logical" name="LMP2LT"> F  </i>
   <i type="logical" name="LSMP2LT"> F  </i>
   <i type="logical" name="LGWLF"> F  </i>
   <i name="ENCUTGW">     -1.60000002</i>
   <i name="ENCUTGWSOFT">     -1.60000002</i>
   <i name="ENCUTLF">     -1.00000000</i>
   <i type="logical" name="ESF_SPLINES"> F  </i>
   <i name="ESF_CONV">      0.01000000</i>
   <i type="int" name="ESF_NINTER">    15</i>
   <i type="int" name="LMAXMP2">    -1</i>
   <i name="SCISSOR">      0.00000000</i>
   <i type="int" name="NOMEGA">     0</i>
   <i type="int" name="NOMEGAR">     0</i>
   <i type="int" name="NBANDSGW">    -1</i>
   <i type="int" name="NBANDSO">    -1</i>
   <i type="int" name="NBANDSV">    -1</i>
   <i type="int" name="NELMGW">     1</i>
   <i type="int" name="NELMHF">     1</i>
   <i type="int" name="DIM">     3</i>
   <i type="int" name="IESPILON">     4</i>
   <i type="int" name="ANTIRES">     0</i>
   <i name="OMEGAMAX">    -30.00000000</i>
   <i name="OMEGAMIN">    -30.00000000</i>
   <i name="OMEGATL">   -200.00000000</i>
   <i type="int" name="OMEGAGRID">     0</i>
   <i name="CSHIFT">     -0.10000000</i>
   <i type="logical" name="LSELFENERGY"> F  </i>
   <i type="logical" name="LSPECTRAL"> F  </i>
   <i type="logical" name="LSPECTRALGW"> F  </i>
   <i type="logical" name="LSINGLES"> F  </i>
   <i type="logical" name="LFERMIGW"> F  </i>
   <i type="logical" name="ODDONLYGW"> F  </i>
   <i type="logical" name="EVENONLYGW"> F  </i>
   <i type="int" name="NKREDLFX">     1</i>
   <i type="int" name="NKREDLFY">     1</i>
   <i type="int" name="NKREDLFZ">     1</i>
   <i type="int" name="MAXMEM">  2800</i>
   <i type="int" name="TELESCOPE">     0</i>
   <i type="int" name="NTAUPAR">    -1</i>
   <i type="int" name="NOMEGAPAR">    -1</i>
   <i name="DAMP_NEWTON">      0.80000001</i>
   <i name="LAMBDA">      1.00000000</i>
  </separator>
  <separator name="External order field" >
   <i name="OFIELD_KAPPA">      0.00000000</i>
   <v name="OFIELD_K">      0.00000000      0.00000000      0.00000000</v>
   <i name="OFIELD_Q6_NEAR">      0.00000000</i>
   <i name="OFIELD_Q6_FAR">      0.00000000</i>
   <i name="OFIELD_A">      0.00000000</i>
  </separator>
  <separator name="optional k-points parameters" >
   <i type="int" name="KPOINTS_OPT_MODE">     1</i>
   <i type="logical" name="LKPOINTS_OPT"> F  </i>
  </separator>
 </parameters>
 <atominfo>
  <atoms>      16 </atoms>
  <types>       2 </types>
  <array name="atoms" >
   <dimension dim="1">ion</dimension>
   <field type="string">element</field>
   <field type="int">atomtype</field>
   <set>
    <rc><c>Ti</c><c>   1</c></rc>
    <rc><c>Ti</c><c>   1</c></rc>
    <rc><c>Ti</c><c>   1</c></rc>
    <rc><c>Ti</c><c>   1</c></rc>
    <rc><c>Ti</c><c>   1</c></rc>
    <rc><c>Ti</c><c>   1</c></rc>
    <rc><c>Ti</c><c>   1</c></rc>
    <rc><c>Ti</c><c>   1</c></rc>
    <rc><c>Al</c><c>   2</c></rc>
    <rc><c>Al</c><c>   2</c></rc>
    <rc><c>Al</c><c>   2</c></rc>
    <rc><c>Al</c><c>   2</c></rc>
    <rc><c>Al</c><c>   2</c></rc>
    <rc><c>Al</c><c>   2</c></rc>
    <rc><c>Al</c><c>   2</c></rc>
    <rc><c>Al</c><c>   2</c></rc>
   </set>
  </array>
  <array name="atomtypes" >
   <dimension dim="1">type</dimension>
   <field type="int">atomspertype</field>
   <field type="string">element</field>
   <field>mass</field>
   <field>valence</field>
   <field type="string">pseudopotential</field>
   <set>
    <rc><c>   8</c><c>Ti</c><c>     47.88000000</c><c>     12.00000000</c><c>  PAW_PBE Ti_sv 26Sep2005               </c></rc>
    <rc><c>   8</c><c>Al</c><c>     26.98100000</c><c>      3.00000000</c><c>  PAW_PBE Al 04Jan2001                  </c></rc>
   </set>
  </array>
 </atominfo>
 <structure name="initialpos" >
  <crystal>
   <varray name="basis" >
    <v>       5.65068177       0.00000000       0.00000000 </v>
    <v>       0.00000000       5.65068177       0.00000000 </v>
    <v>       0.00000000       0.00000000       8.12462919 </v>
   </varray>
   <i name="volume">    259.42107139 </i>
   <varray name="rec_basis" >
    <v>       0.17696980       0.00000000       0.00000000 </v>
    <v>       0.00000000       0.17696980       0.00000000 </v>
    <v>       0.00000000       0.00000000       0.12308254 </v>
   </varray>
  </crystal>
  <varray name="positions" >
   <v>       0.00000000       0.00000000       0.00000000 </v>
   <v>       0.00000000       0.00000000       0.50000000 </v>
   <v>       0.00000000       0.50000000       0.00000000 </v>
   <v>       0.00000000       0.50000000       0.50000000 </v>
   <v>       0.50000000       0.00000000       0.00000000 </v>
   <v>       0.50000000       0.00000000       0.50000000 </v>
   <v>       0.50000000       0.50000000       0.00000000 </v>
   <v>       0.50000000       0.50000000       0.50000000 </v>
   <v>       0.25000000       0.25000000       0.25000000 </v>
   <v>       0.25000000       0.25000000       0.75000000 </v>
   <v>       0.25000000       0.75000000       0.25000000 </v>
   <v>       0.25000000       0.75000000       0.75000000 </v>
   <v>       0.75000000       0.25000000       0.25000000 </v>
   <v>       0.75000000       0.25000000       0.75000000 </v>
   <v>       0.75000000       0.75000000       0.25000000 </v>
   <v>       0.75000000       0.75000000       0.75000000 </v>
  </varray>
 </structure>
 <calculation>
  <scstep>
   <time name="dav">    3.67    3.67</time>
   <time name="total">    3.68    3.68</time>
   <energy>
    <i name="alphaZ">    302.45033193 </i>
    <i name="ewald">  -8685.12768637 </i>
    <i name="hartreedc">  -4146.52216532 </i>
    <i name="XCdc">    287.27892037 </i>
    <i name="pawpsdc">  10646.12278294 </i>
    <i name="pawaedc"> -10233.80738393 </i>
    <i name="eentropy">      0.00286050 </i>
    <i name="bandstr">   -425.40942198 </i>
    <i name="atom">  13132.98388788 </i>
    <i name="e_fr_energy">    877.97212602 </i>
    <i name="e_wo_entrp">    877.96926552 </i>
    <i name="e_0_energy">    877.97117252 </i>
   </energy>
  </scstep>
  <scstep>
   <time name="dav">    3.84    3.84</time>
   <time name="total">    3.84    3.84</time>
   <energy>
    <i name="e_fr_energy">    -40.79335186 </i>
    <i name="e_wo_entrp">    -40.78548228 </i>
    <i name="e_0_energy">    -40.79072867 </i>
   </energy>
  </scstep>
  <scstep>
   <time name="dav">   10.94   10.94</time>
   <time name="total">   10.94   10.94</time>
   <energy>
    <i name="e_fr_energy">   -109.80825979 </i>
    <i name="e_wo_entrp">   -109.78047604 </i>
    <i name="e_0_energy">   -109.79899854 </i>
   </energy>
  </scstep>
  <scstep>
   <time name="dav">    3.93    3.93</time>
   <time name="total">    3.93    3.93</time>
   <energy>
    <i name="e_fr_energy">   -111.92737272 </i>
    <i name="e_wo_entrp">   -111.90393069 </i>
    <i name="e_0_energy">   -111.91955871 </i>
   </energy>
  </scstep>
  <scstep>
   <time name="dav">    7.83    7.83</time>
   <time name="total">    7.87    7.87</time>
   <energy>
    <i name="e_fr_energy">   -111.98189113 </i>
    <i name="e_wo_entrp">   -111.95856310 </i>
    <i name="e_0_energy">   -111.97411512 </i>
   </energy>
  </scstep>
  <scstep>
   <time name="dav">    5.20    5.20</time>
   <time name="total">    5.25    5.25</time>
   <energy>
    <i name="e_fr_energy">   -100.54989999 </i>
    <i name="e_wo_entrp">   -100.52468859 </i>
    <i name="e_0_energy">   -100.54149619 </i>
   </energy>
  </scstep>
  <scstep>
   <time name="dav">    4.63    4.63</time>
   <time name="total">    4.68    4.68</time>
   <energy>
    <i name="e_fr_energy">    -99.28124982 </i>
    <i name="e_wo_entrp">    -99.30358840 </i>
    <i name="e_0_energy">    -99.28869601 </i>
   </energy>
  </scstep>
  <scstep>
   <time name="dav">    5.77    5.77</time>
   <time name="total">    5.82    5.83</time>
   <energy>
    <i name="e_fr_energy">    -99.19698963 </i>
    <i name="e_wo_entrp">    -99.21319411 </i>
    <i name="e_0_energy">    -99.20239112 </i>
   </energy>
  </scstep>
  <scstep>
   <time name="dav">    5.17    5.17</time>
   <time name="total">    5.22    5.22</time>
   <energy>
    <i name="e_fr_energy">    -99.14224945 </i>
    <i name="e_wo_entrp">    -99.16059437 </i>
    <i name="e_0_energy">    -99.14836442 </i>
   </energy>
  </scstep>
  <scstep>
   <time name="dav">    6.07    6.08</time>
   <time name="total">    6.12    6.13</time>
   <energy>
    <i name="e_fr_energy">    -99.13481276 </i>
    <i name="e_wo_entrp">    -99.15421820 </i>
    <i name="e_0_energy">    -99.14128124 </i>
   </energy>
  </scstep>
  <scstep>
   <time name="dav">    6.28    6.29</time>
   <time name="total">    6.34    6.34</time>
   <energy>
    <i name="e_fr_energy">    -99.13341412 </i>
    <i name="e_wo_entrp">    -99.15247095 </i>
    <i name="e_0_energy">    -99.13976640 </i>
   </energy>
  </scstep>
  <scstep>
   <time name="dav">    5.50    5.50</time>
   <time name="total">    5.55    5.55</time>
   <energy>
    <i name="e_fr_energy">    -99.13330490 </i>
    <i name="e_wo_entrp">    -99.15235517 </i>
    <i name="e_0_energy">    -99.13965499 </i>
   </energy>
  </scstep>
  <scstep>
   <time name="dav">    7.05    7.06</time>
   <time name="total">    7.10    7.10</time>
   <energy>
    <i name="e_fr_energy">    -99.13328301 </i>
    <i name="e_wo_entrp">    -99.15233703 </i>
    <i name="e_0_energy">    -99.13963435 </i>
   </energy>
  </scstep>
  <scstep>
   <time name="dav">    5.45    5.45</time>
   <time name="total">    5.50    5.50</time>
   <energy>
    <i name="e_fr_energy">    -99.13327534 </i>
    <i name="e_wo_entrp">    -99.15234733 </i>
    <i name="e_0_energy">    -99.13963267 </i>
   </energy>
  </scstep>
  <scstep>
   <time name="dav">    5.38    5.38</time>
   <time name="total">    5.39    5.39</time>
   <energy>
    <i name="alphaZ">    302.45033193 </i>
    <i name="ewald">  -8685.12768637 </i>
    <i name="hartreedc">  -3928.85513621 </i>
    <i name="XCdc">    279.26730314 </i>
    <i name="pawpsdc">  13273.60872754 </i>
    <i name="pawaedc"> -12834.74618233 </i>
    <i name="eentropy">      0.01907340 </i>
    <i name="bandstr">  -1638.73359358 </i>
    <i name="atom">  13132.98388788 </i>
    <i name="e_fr_energy">    -99.13327460 </i>
    <i name="e_wo_entrp">    -99.15234800 </i>
    <i name="e_0_energy">    -99.13963240 </i>
   </energy>
  </scstep>
  <structure>
   <crystal>
    <varray name="basis" >
     <v>       5.65068177       0.00000000       0.00000000 </v>
     <v>       0.00000000       5.65068177       0.00000000 </v>
     <v>       0.00000000       0.00000000       8.12462919 </v>
    </varray>
    <i name="volume">    259.42107139 </i>
    <varray name="rec_basis" >
     <v>       0.17696980       0.00000000       0.00000000 </v>
     <v>       0.00000000       0.17696980       0.00000000 </v>
     <v>       0.00000000       0.00000000       0.12308254 </v>
    </varray>
   </crystal>
   <varray name="positions" >
    <v>       0.00000000       0.00000000       0.00000000 </v>
    <v>       0.00000000       0.00000000       0.50000000 </v>
    <v>       0.00000000       0.50000000       0.00000000 </v>
    <v>       0.00000000       0.50000000       0.50000000 </v>
    <v>       0.50000000       0.00000000       0.00000000 </v>
    <v>       0.50000000       0.00000000       0.50000000 </v>
    <v>       0.50000000       0.50000000       0.00000000 </v>
    <v>       0.50000000       0.50000000       0.50000000 </v>
    <v>       0.25000000       0.25000000       0.25000000 </v>
    <v>       0.25000000       0.25000000       0.75000000 </v>
    <v>       0.25000000       0.75000000       0.25000000 </v>
    <v>       0.25000000       0.75000000       0.75000000 </v>
    <v>       0.75000000       0.25000000       0.25000000 </v>
    <v>       0.75000000       0.25000000       0.75000000 </v>
    <v>       0.75000000       0.75000000       0.25000000 </v>
    <v>       0.75000000       0.75000000       0.75000000 </v>
   </varray>
  </structure>
  <varray name="forces" >
   <v>      -0.00000000       0.00000000       0.00000000 </v>
   <v>       0.00000000      -0.00000000      -0.00000000 </v>
   <v>      -0.00000000       0.00000000      -0.00000000 </v>
   <v>      -0.00000000       0.00000000      -0.00000000 </v>
   <v>      -0.00000000      -0.00000000       0.00000000 </v>
   <v>       0.00000000       0.00000000      -0.00000000 </v>
   <v>      -0.00000000       0.00000000       0.00000000 </v>
   <v>       0.00000000       0.00000000      -0.00000000 </v>
   <v>       0.00000000      -0.00000000      -0.00000000 </v>
   <v>       0.00000000       0.00000000      -0.00000000 </v>
   <v>      -0.00000000      -0.00000000       0.00000000 </v>
   <v>       0.00000000      -0.00000000      -0.00000000 </v>
   <v>      -0.00000000       0.00000000       0.00000000 </v>
   <v>       0.00000000      -0.00000000      -0.00000000 </v>
   <v>      -0.00000000      -0.00000000      -0.00000000 </v>
   <v>       0.00000000      -0.00000000      -0.00000000 </v>
  </varray>
  <varray name="stress" >
   <v>       0.46670435       0.00000000       0.00000000 </v>
   <v>       0.00000000       0.46670435      -0.00000000 </v>
   <v>       0.00000000      -0.00000000       0.43815509 </v>
  </varray>
  <energy>
   <i name="e_fr_energy">    -99.13327460 </i>
   <i name="e_wo_entrp">    -99.15234800 </i>
   <i name="e_0_energy">    -99.13963240 </i>
  </energy>
  <kpoints>
   <generation param="Gamma">
    <v type="int" name="divisions">       6        6        4 </v>
    <v name="usershift">      0.00000000       0.00000000       0.00000000 </v>
    <v name="genvec1">      0.16666667       0.00000000       0.00000000 </v>
    <v name="genvec2">      0.00000000       0.16666667       0.00000000 </v>
    <v name="genvec3">      0.00000000       0.00000000       0.25000000 </v>
    <v name="shift">      0.00000000       0.00000000       0.00000000 </v>
   </generation>
   <varray name="kpointlist" >
    <v>       0.00000000       0.00000000       0.00000000 </v>
    <v>       0.16666667       0.00000000       0.00000000 </v>
    <v>       0.33333333       0.00000000       0.00000000 </v>
    <v>       0.50000000       0.00000000       0.00000000 </v>
    <v>       0.00000000       0.16666667       0.00000000 </v>
    <v>       0.16666667       0.16666667       0.00000000 </v>
    <v>       0.33333333       0.16666667       0.00000000 </v>
    <v>       0.50000000       0.16666667       0.00000000 </v>
    <v>       0.00000000       0.33333333       0.00000000 </v>
    <v>       0.16666667       0.33333333       0.00000000 </v>
    <v>       0.33333333       0.33333333       0.00000000 </v>
    <v>       0.50000000       0.33333333       0.00000000 </v>
    <v>       0.00000000       0.50000000       0.00000000 </v>
    <v>       0.16666667       0.50000000       0.00000000 </v>
    <v>       0.33333333       0.50000000       0.00000000 </v>
    <v>       0.50000000       0.50000000       0.00000000 </v>
    <v>       0.00000000       0.00000000       0.25000000 </v>
    <v>       0.16666667       0.00000000       0.25000000 </v>
    <v>       0.33333333       0.00000000       0.25000000 </v>
    <v>       0.50000000       0.00000000       0.25000000 </v>
    <v>       0.00000000       0.16666667       0.25000000 </v>
    <v>       0.16666667       0.16666667       0.25000000 </v>
    <v>       0.33333333       0.16666667       0.25000000 </v>
    <v>       0.50000000       0.16666667       0.25000000 </v>
    <v>       0.00000000       0.33333333       0.25000000 </v>
    <v>       0.16666667       0.33333333       0.25000000 </v>
    <v>       0.33333333       0.33333333       0.25000000 </v>
    <v>       0.50000000       0.33333333       0.25000000 </v>
    <v>       0.00000000       0.50000000       0.25000000 </v>
    <v>       0.16666667       0.50000000       0.25000000 </v>
    <v>       0.33333333       0.50000000       0.25000000 </v>
    <v>       0.50000000       0.50000000       0.25000000 </v>
    <v>       0.00000000       0.00000000       0.50000000 </v>
    <v>       0.16666667       0.00000000       0.50000000 </v>
    <v>       0.33333333       0.00000000       0.50000000 </v>
    <v>       0.50000000       0.00000000       0.50000000 </v>
    <v>       0.00000000       0.16666667       0.50000000 </v>
    <v>       0.16666667       0.16666667       0.50000000 </v>
    <v>       0.33333333       0.16666667       0.50000000 </v>
    <v>       0.50000000       0.16666667       0.50000000 </v>
    <v>       0.00000000       0.33333333       0.50000000 </v>
    <v>       0.16666667       0.33333333       0.50000000 </v>
    <v>       0.33333333       0.33333333       0.50000000 </v>
    <v>       0.50000000       0.33333333       0.50000000 </v>
    <v>       0.00000000       0.50000000       0.50000000 </v>
    <v>       0.16666667       0.50000000       0.50000000 </v>
    <v>       0.33333333       0.50000000       0.50000000 </v>
    <v>       0.50000000       0.50000000       0.50000000 </v>
   </varray>
   <varray name="weights" >
    <v>       0.00694444 </v>
    <v>       0.01388889 </v>
    <v>       0.01388889 </v>
    <v>       0.00694444 </v>
    <v>       0.01388889 </v>
    <v>       0.02777778 </v>
    <v>       0.02777778 </v>
    <v>       0.01388889 </v>
    <v>       0.01388889 </v>
    <v>       0.02777778 </v>
    <v>       0.02777778 </v>
    <v>       0.01388889 </v>
    <v>       0.00694444 </v>
    <v>       0.01388889 </v>
    <v>       0.01388889 </v>
    <v>       0.00694444 </v>
    <v>       0.01388889 </v>
    <v>       0.02777778 </v>
    <v>       0.02777778 </v>
    <v>       0.01388889 </v>
    <v>       0.02777778 </v>
    <v>       0.05555556 </v>
    <v>       0.05555556 </v>
    <v>       0.02777778 </v>
    <v>       0.02777778 </v>
    <v>       0.05555556 </v>
    <v>       0.05555556 </v>
    <v>       0.02777778 </v>
    <v>       0.01388889 </v>
    <v>       0.02777778 </v>
    <v>       0.02777778 </v>
    <v>       0.01388889 </v>
    <v>       0.00694444 </v>
    <v>       0.01388889 </v>
    <v>       0.01388889 </v>
    <v>       0.00694444 </v>
    <v>       0.01388889 </v>
    <v>       0.02777778 </v>
    <v>       0.02777778 </v>
    <v>       0.01388889 </v>
    <v>       0.01388889 </v>
    <v>       0.02777778 </v>
    <v>       0.02777778 </v>
    <v>       0.01388889 </v>
    <v>       0.00694444 </v>
    <v>       0.01388889 </v>
    <v>       0.01388889 </v>
    <v>       0.00694444 </v>
   </varray>
  </kpoints>
  <time name="totalsc">   90.44   90.46</time>
 </calculation>
 <calculation>
  <scstep>
   <time name="dav">    9.66    9.66</time>
   <time name="total">    9.73    9.73</time>
   <energy>
    <i name="alphaZ">    297.98062259 </i>
    <i name="ewald">  -8650.24670399 </i>
    <i name="hartreedc">  -3902.00176771 </i>
    <i name="XCdc">    276.75997258 </i>
    <i name="pawpsdc">  13273.35789867 </i>
    <i name="pawaedc"> -12834.50012825 </i>
    <i name="eentropy">     -0.00839355 </i>
    <i name="bandstr">  -1693.94904198 </i>
    <i name="atom">  13132.98388788 </i>
    <i name="e_fr_energy">    -99.62365376 </i>
    <i name="e_wo_entrp">    -99.61526022 </i>
    <i name="e_0_energy">    -99.62085592 </i>
   </energy>
  </scstep>
  <scstep>
   <time name="dav">    8.98    8.99</time>
   <time name="total">    9.05    9.06</time>
   <energy>
    <i name="e_fr_energy">    -99.19181407 </i>
    <i name="e_wo_entrp">    -99.20017933 </i>
    <i name="e_0_energy">    -99.19460249 </i>
   </energy>
  </scstep>
  <scstep>
   <time name="dav">    9.15    9.15</time>
   <time name="total">    9.21    9.22</time>
   <energy>
    <i name="e_fr_energy">    -99.09514593 </i>
    <i name="e_wo_entrp">    -99.11093171 </i>
    <i name="e_0_energy">    -99.10040786 </i>
   </energy>
  </scstep>
  <scstep>
   <time name="dav">   10.35   10.35</time>
   <time name="total">   10.42   10.42</time>
   <energy>
    <i name="e_fr_energy">    -99.09154876 </i>
    <i name="e_wo_entrp">    -99.10967343 </i>
    <i name="e_0_energy">    -99.09759032 </i>
   </energy>
  </scstep>
  <scstep>
   <time name="dav">    8.03    8.03</time>
   <time name="total">    8.10    8.10</time>
   <energy>
    <i name="e_fr_energy">    -99.09560789 </i>
    <i name="e_wo_entrp">    -99.11364606 </i>
    <i name="e_0_energy">    -99.10162062 </i>
   </energy>
  </scstep>
  <scstep>
   <time name="dav">   13.38   13.39</time>
   <time name="total">   13.45   13.45</time>
   <energy>
    <i name="e_fr_energy">    -99.09829560 </i>
    <i name="e_wo_entrp">    -99.11662950 </i>
    <i name="e_0_energy">    -99.10440690 </i>
   </energy>
  </scstep>
  <scstep>
   <time name="dav">    7.00    7.00</time>
   <time name="total">    7.06    7.06</time>
   <energy>
    <i name="e_fr_energy">    -99.09852654 </i>
    <i name="e_wo_entrp">    -99.11687373 </i>
    <i name="e_0_energy">    -99.10464227 </i>
   </energy>
  </scstep>
  <scstep>
   <time name="dav">   10.36   10.36</time>
   <time name="total">   10.42   10.43</time>
   <energy>
    <i name="e_fr_energy">    -99.09853377 </i>
    <i name="e_wo_entrp">    -99.11689552 </i>
    <i name="e_0_energy">    -99.10465435 </i>
   </energy>
  </scstep>
  <scstep>
   <time name="dav">    9.04    9.05</time>
   <time name="total">    9.11    9.11</time>
   <energy>
    <i name="e_fr_energy">    -99.09853157 </i>
    <i name="e_wo_entrp">    -99.11689487 </i>
    <i name="e_0_energy">    -99.10465267 </i>
   </energy>
  </scstep>
  <scstep>
   <time name="dav">    5.93    5.93</time>
   <time name="total">    5.93    5.94</time>
   <energy>
    <i name="alphaZ">    297.98062259 </i>
    <i name="ewald">  -8650.24670399 </i>
    <i name="hartreedc">  -3937.52738939 </i>
    <i name="XCdc">    278.51596549 </i>
    <i name="pawpsdc">  13129.22694457 </i>
    <i name="pawaedc"> -12691.98220598 </i>
    <i name="eentropy">      0.01836430 </i>
    <i name="bandstr">  -1658.06801631 </i>
    <i name="atom">  13132.98388788 </i>
    <i name="e_fr_energy">    -99.09853084 </i>
    <i name="e_wo_entrp">    -99.11689514 </i>
    <i name="e_0_energy">    -99.10465227 </i>
   </energy>
  </scstep>
  <structure>
   <crystal>
    <varray name="basis" >
     <v>       5.73544200       0.00000000       0.00000000 </v>
     <v>       0.00000000       5.65068177       0.00000000 </v>
     <v>       0.00000000       0.00000000       8.12462919 </v>
    </varray>
    <i name="volume">    263.31238747 </i>
    <varray name="rec_basis" >
     <v>       0.17435448       0.00000000       0.00000000 </v>
     <v>       0.00000000       0.17696980       0.00000000 </v>
     <v>       0.00000000       0.00000000       0.12308254 </v>
    </varray>
   </crystal>
   <varray name="positions" >
    <v>       0.00000000       0.00000000       0.00000000 </v>
    <v>       0.00000000       0.00000000       0.50000000 </v>
    <v>       0.00000000       0.50000000       0.00000000 </v>
    <v>       0.00000000       0.50000000       0.50000000 </v>
    <v>       0.50000000       0.00000000       0.00000000 </v>
    <v>       0.50000000       0.00000000       0.50000000 </v>
    <v>       0.50000000       0.50000000       0.00000000 </v>
    <v>       0.50000000       0.50000000       0.50000000 </v>
    <v>       0.25000000       0.25000000       0.25000000 </v>
    <v>       0.25000000       0.25000000       0.75000000 </v>
    <v>       0.25000000       0.75000000       0.25000000 </v>
    <v>       0.25000000       0.75000000       0.75000000 </v>
    <v>       0.75000000       0.25000000       0.25000000 </v>
    <v>       0.75000000       0.25000000       0.75000000 </v>
    <v>       0.75000000       0.75000000       0.25000000 </v>
    <v>       0.75000000       0.75000000       0.75000000 </v>
   </varray>
  </structure>
  <varray name="forces" >
   <v>      -0.00000000      -0.00000000       0.00000000 </v>
   <v>       0.00000000       0.00000000      -0.00000000 </v>
   <v>       0.00000000       0.00000000       0.00000000 </v>
   <v>      -0.00000000      -0.00000000       0.00000000 </v>
   <v>      -0.00000000       0.00000000       0.00000000 </v>
   <v>      -0.00000000      -0.00000000      -0.00000000 </v>
   <v>      -0.00000000      -0.00000000       0.00000000 </v>
   <v>       0.00000000       0.00000000      -0.00000000 </v>
   <v>       0.00000000       0.00000000       0.00000000 </v>
   <v>       0.00000000       0.00000000       0.00000000 </v>
   <v>       0.00000000      -0.00000000      -0.00000000 </v>
   <v>       0.00000000      -0.00000000      -0.00000000 </v>
   <v>      -0.00000000       0.00000000       0.00000000 </v>
   <v>      -0.00000000      -0.00000000      -0.00000000 </v>
   <v>      -0.00000000       0.00000000       0.00000000 </v>
   <v>       0.00000000      -0.00000000      -0.00000000 </v>
  </varray>
  <varray name="stress" >
   <v>     -28.44273008       0.00000000       0.00000000 </v>
   <v>      -0.00000000      -8.06222761       0.00000000 </v>
   <v>       0.00000000       0.00000000     -11.61896910 </v>
  </varray>
  <energy>
   <i name="e_fr_energy">    -99.09853084 </i>
   <i name="e_wo_entrp">    -99.11689514 </i>
   <i name="e_0_energy">    -99.10465227 </i>
  </energy>
  <kpoints>
   <generation param="Gamma">
    <v type="int" name="divisions">       6        6        4 </v>
    <v name="usershift">      0.00000000       0.00000000       0.00000000 </v>
    <v name="genvec1">      0.16666667       0.00000000       0.00000000 </v>
    <v name="genvec2">      0.00000000       0.16666667       0.00000000 </v>
    <v name="genvec3">      0.00000000       0.00000000       0.25000000 </v>
    <v name="shift">      0.00000000       0.00000000       0.00000000 </v>
   </generation>
   <varray name="kpointlist" >
    <v>       0.00000000       0.00000000       0.00000000 </v>
    <v>       0.16666667       0.00000000       0.00000000 </v>
    <v>       0.33333333       0.00000000       0.00000000 </v>
    <v>       0.50000000       0.00000000       0.00000000 </v>
    <v>       0.00000000       0.16666667       0.00000000 </v>
    <v>       0.16666667       0.16666667       0.00000000 </v>
    <v>       0.33333333       0.16666667       0.00000000 </v>
    <v>       0.50000000       0.16666667       0.00000000 </v>
    <v>       0.00000000       0.33333333       0.00000000 </v>
    <v>       0.16666667       0.33333333       0.00000000 </v>
    <v>       0.33333333       0.33333333       0.00000000 </v>
    <v>       0.50000000       0.33333333       0.00000000 </v>
    <v>       0.00000000       0.50000000       0.00000000 </v>
    <v>       0.16666667       0.50000000       0.00000000 </v>
    <v>       0.33333333       0.50000000       0.00000000 </v>
    <v>       0.50000000       0.50000000       0.00000000 </v>
    <v>       0.00000000       0.00000000       0.25000000 </v>
    <v>       0.16666667       0.00000000       0.25000000 </v>
    <v>       0.33333333       0.00000000       0.25000000 </v>
    <v>       0.50000000       0.00000000       0.25000000 </v>
    <v>       0.00000000       0.16666667       0.25000000 </v>
    <v>       0.16666667       0.16666667       0.25000000 </v>
    <v>       0.33333333       0.16666667       0.25000000 </v>
    <v>       0.50000000       0.16666667       0.25000000 </v>
    <v>       0.00000000       0.33333333       0.25000000 </v>
    <v>       0.16666667       0.33333333       0.25000000 </v>
    <v>       0.33333333       0.33333333       0.25000000 </v>
    <v>       0.50000000       0.33333333       0.25000000 </v>
    <v>       0.00000000       0.50000000       0.25000000 </v>
    <v>       0.16666667       0.50000000       0.25000000 </v>
    <v>       0.33333333       0.50000000       0.25000000 </v>
    <v>       0.50000000       0.50000000       0.25000000 </v>
    <v>       0.00000000       0.00000000       0.50000000 </v>
    <v>       0.16666667       0.00000000       0.50000000 </v>
    <v>       0.33333333       0.00000000       0.50000000 </v>
    <v>       0.50000000       0.00000000       0.50000000 </v>
    <v>       0.00000000       0.16666667       0.50000000 </v>
    <v>       0.16666667       0.16666667       0.50000000 </v>
    <v>       0.33333333       0.16666667       0.50000000 </v>
    <v>       0.50000000       0.16666667       0.50000000 </v>
    <v>       0.00000000       0.33333333       0.50000000 </v>
    <v>       0.16666667       0.33333333       0.50000000 </v>
    <v>       0.33333333       0.33333333       0.50000000 </v>
    <v>       0.50000000       0.33333333       0.50000000 </v>
    <v>       0.00000000       0.50000000       0.50000000 </v>
    <v>       0.16666667       0.50000000       0.50000000 </v>
    <v>       0.33333333       0.50000000       0.50000000 </v>
    <v>       0.50000000       0.50000000       0.50000000 </v>
   </varray>
   <varray name="weights" >
    <v>       0.00694444 </v>
    <v>       0.01388889 </v>
    <v>       0.01388889 </v>
    <v>       0.00694444 </v>
    <v>       0.01388889 </v>
    <v>       0.02777778 </v>
    <v>       0.02777778 </v>
    <v>       0.01388889 </v>
    <v>       0.01388889 </v>
    <v>       0.02777778 </v>
    <v>       0.02777778 </v>
    <v>       0.01388889 </v>
    <v>       0.00694444 </v>
    <v>       0.01388889 </v>
    <v>       0.01388889 </v>
    <v>       0.00694444 </v>
    <v>       0.01388889 </v>
    <v>       0.02777778 </v>
    <v>       0.02777778 </v>
    <v>       0.01388889 </v>
    <v>       0.02777778 </v>
    <v>       0.05555556 </v>
    <v>       0.05555556 </v>
    <v>       0.02777778 </v>
    <v>       0.02777778 </v>
    <v>       0.05555556 </v>
    <v>       0.05555556 </v>
    <v>       0.02777778 </v>
    <v>       0.01388889 </v>
    <v>       0.02777778 </v>
    <v>       0.02777778 </v>
    <v>       0.01388889 </v>
    <v>       0.00694444 </v>
    <v>       0.01388889 </v>
    <v>       0.01388889 </v>
    <v>       0.00694444 </v>
    <v>       0.01388889 </v>
    <v>       0.02777778 </v>
    <v>       0.02777778 </v>
    <v>       0.01388889 </v>
    <v>       0.01388889 </v>
    <v>       0.02777778 </v>
    <v>       0.02777778 </v>
    <v>       0.01388889 </v>
    <v>       0.00694444 </v>
    <v>       0.01388889 </v>
    <v>       0.01388889 </v>
    <v>       0.00694444 </v>
   </varray>
  </kpoints>
  <time name="totalsc">   96.66   96.68</time>
 </calculation>
 <calculation>
  <scstep>
   <time name="dav">    9.86    9.86</time>
   <time name="total">    9.93    9.93</time>
   <energy>
    <i name="alphaZ">    307.05617454 </i>
    <i name="ewald">  -8719.72518847 </i>
    <i name="hartreedc">  -3991.54818084 </i>
    <i name="XCdc">    283.59144192 </i>
    <i name="pawpsdc">  13129.22338354 </i>
    <i name="pawaedc"> -12691.97357311 </i>
    <i name="eentropy">     -0.01319757 </i>
    <i name="bandstr">  -1550.66634595 </i>
    <i name="atom">  13132.98388788 </i>
    <i name="e_fr_energy">   -101.07159807 </i>
    <i name="e_wo_entrp">   -101.05840049 </i>
    <i name="e_0_energy">   -101.06719888 </i>
   </energy>
  </scstep>
  <scstep>
   <time name="dav">    8.67    8.68</time>
   <time name="total">    8.75    8.75</time>
   <energy>
    <i name="e_fr_energy">    -99.38355064 </i>
    <i name="e_wo_entrp">    -99.37985532 </i>
    <i name="e_0_energy">    -99.38231887 </i>
   </energy>
  </scstep>
  <scstep>
   <time name="dav">    8.62    8.63</time>
   <time name="total">    8.69    8.70</time>
   <energy>
    <i name="e_fr_energy">    -99.09410752 </i>
    <i name="e_wo_entrp">    -99.11090773 </i>
    <i name="e_0_energy">    -99.09970759 </i>
   </energy>
  </scstep>
  <scstep>
   <time name="dav">   11.04   11.04</time>
   <time name="total">   11.11   11.11</time>
   <energy>
    <i name="e_fr_energy">    -99.06936488 </i>
    <i name="e_wo_entrp">    -99.08749153 </i>
    <i name="e_0_energy">    -99.07540710 </i>
   </energy>
  </scstep>
  <scstep>
   <time name="dav">    7.65    7.65</time>
   <time name="total">    7.72    7.72</time>
   <energy>
    <i name="e_fr_energy">    -99.08614623 </i>
    <i name="e_wo_entrp">    -99.10377612 </i>
    <i name="e_0_energy">    -99.09202286 </i>
   </energy>
  </scstep>
  <scstep>
   <time name="dav">   11.43   11.43</time>
   <time name="total">   11.50   11.50</time>
   <energy>
    <i name="e_fr_energy">    -99.09387778 </i>
    <i name="e_wo_entrp">    -99.11133402 </i>
    <i name="e_0_energy">    -99.09969652 </i>
   </energy>
  </scstep>
  <scstep>
   <time name="dav">    7.62    7.62</time>
   <time name="total">    7.69    7.69</time>
   <energy>
    <i name="e_fr_energy">    -99.09382958 </i>
    <i name="e_wo_entrp">    -99.11130274 </i>
    <i name="e_0_energy">    -99.09965396 </i>
   </energy>
  </scstep>
  <scstep>
   <time name="dav">    9.93    9.93</time>
   <time name="total">   10.00   10.00</time>
   <energy>
    <i name="e_fr_energy">    -99.09384071 </i>
    <i name="e_wo_entrp">    -99.11129190 </i>
    <i name="e_0_energy">    -99.09965777 </i>
   </energy>
  </scstep>
  <scstep>
   <time name="dav">    8.83    8.83</time>
   <time name="total">    8.84    8.84</time>
   <energy>
    <i name="alphaZ">    307.05617454 </i>
    <i name="ewald">  -8719.72518847 </i>
    <i name="hartreedc">  -3921.17532177 </i>
    <i name="XCdc">    280.05159376 </i>
    <i name="pawpsdc">  13428.19041301 </i>
    <i name="pawaedc"> -12987.65565564 </i>
    <i name="eentropy">      0.01744209 </i>
    <i name="bandstr">  -1618.83718593 </i>
    <i name="atom">  13132.98388788 </i>
    <i name="e_fr_energy">    -99.09384053 </i>
    <i name="e_wo_entrp">    -99.11128262 </i>
    <i name="e_0_energy">    -99.09965456 </i>
   </energy>
  </scstep>
  <structure>
   <crystal>
    <varray name="basis" >
     <v>       5.56592155       0.00000000       0.00000000 </v>
     <v>       0.00000000       5.65068177       0.00000000 </v>
     <v>       0.00000000       0.00000000       8.12462919 </v>
    </varray>
    <i name="volume">    255.52975532 </i>
    <varray name="rec_basis" >
     <v>       0.17966477       0.00000000       0.00000000 </v>
     <v>       0.00000000       0.17696980       0.00000000 </v>
     <v>       0.00000000       0.00000000       0.12308254 </v>
    </varray>
   </crystal>
   <varray name="positions" >
    <v>       0.00000000       0.00000000       0.00000000 </v>
    <v>       0.00000000       0.00000000       0.50000000 </v>
    <v>       0.00000000       0.50000000       0.00000000 </v>
    <v>       0.00000000       0.50000000       0.50000000 </v>
    <v>       0.50000000       0.00000000       0.00000000 </v>
    <v>       0.50000000       0.00000000       0.50000000 </v>
    <v>       0.50000000       0.50000000       0.00000000 </v>
    <v>       0.50000000       0.50000000       0.50000000 </v>
    <v>       0.25000000       0.25000000       0.25000000 </v>
    <v>       0.25000000       0.25000000       0.75000000 </v>
    <v>       0.25000000       0.75000000       0.25000000 </v>
    <v>       0.25000000       0.75000000       0.75000000 </v>
    <v>       0.75000000       0.25000000       0.25000000 </v>
    <v>       0.75000000       0.25000000       0.75000000 </v>
    <v>       0.75000000       0.75000000       0.25000000 </v>
    <v>       0.75000000       0.75000000       0.75000000 </v>
   </varray>
  </structure>
  <varray name="forces" >
   <v>      -0.00000000      -0.00000000      -0.00000000 </v>
   <v>      -0.00000000      -0.00000000       0.00000000 </v>
   <v>      -0.00000000       0.00000000      -0.00000000 </v>
   <v>       0.00000000      -0.00000000      -0.00000000 </v>
   <v>      -0.00000000       0.00000000       0.00000000 </v>
   <v>      -0.00000000       0.00000000       0.00000000 </v>
   <v>      -0.00000000      -0.00000000       0.00000000 </v>
   <v>       0.00000000       0.00000000      -0.00000000 </v>
   <v>       0.00000000       0.00000000      -0.00000000 </v>
   <v>       0.00000000       0.00000000      -0.00000000 </v>
   <v>       0.00000000      -0.00000000      -0.00000000 </v>
   <v>       0.00000000      -0.00000000       0.00000000 </v>
   <v>       0.00000000      -0.00000000       0.00000000 </v>
   <v>      -0.00000000       0.00000000       0.00000000 </v>
   <v>       0.00000000      -0.00000000       0.00000000 </v>
   <v>       0.00000000      -0.00000000       0.00000000 </v>
  </varray>
  <varray name="stress" >
   <v>      32.42887684      -0.00000000       0.00000000 </v>
   <v>      -0.00000000       9.23485199       0.00000000 </v>
   <v>       0.00000000       0.00000000      13.03038243 </v>
  </varray>
  <energy>
   <i name="e_fr_energy">    -99.09384053 </i>
   <i name="e_wo_entrp">    -99.11128262 </i>
   <i name="e_0_energy">    -99.09965456 </i>
  </energy>
  <kpoints>
   <generation param="Gamma">
    <v type="int" name="divisions">       6        6        4 </v>
    <v name="usershift">      0.00000000       0.00000000       0.00000000 </v>
    <v name="genvec1">      0.16666667       0.00000000       0.00000000 </v>
    <v name="genvec2">      0.00000000       0.16666667       0.00000000 </v>
    <v name="genvec3">      0.00000000       0.00000000       0.25000000 </v>
    <v name="shift">      0.00000000       0.00000000       0.00000000 </v>
   </generation>
   <varray name="kpointlist" >
    <v>       0.00000000       0.00000000       0.00000000 </v>
    <v>       0.16666667       0.00000000       0.00000000 </v>
    <v>       0.33333333       0.00000000       0.00000000 </v>
    <v>       0.50000000       0.00000000       0.00000000 </v>
    <v>       0.00000000       0.16666667       0.00000000 </v>
    <v>       0.16666667       0.16666667       0.00000000 </v>
    <v>       0.33333333       0.16666667       0.00000000 </v>
    <v>       0.50000000       0.16666667       0.00000000 </v>
    <v>       0.00000000       0.33333333       0.00000000 </v>
    <v>       0.16666667       0.33333333       0.00000000 </v>
    <v>       0.33333333       0.33333333       0.00000000 </v>
    <v>       0.50000000       0.33333333       0.00000000 </v>
    <v>       0.00000000       0.50000000       0.00000000 </v>
    <v>       0.16666667       0.50000000       0.00000000 </v>
    <v>       0.33333333       0.50000000       0.00000000 </v>
    <v>       0.50000000       0.50000000       0.00000000 </v>
    <v>       0.00000000       0.00000000       0.25000000 </v>
    <v>       0.16666667       0.00000000       0.25000000 </v>
    <v>       0.33333333       0.00000000       0.25000000 </v>
    <v>       0.50000000       0.00000000       0.25000000 </v>
    <v>       0.00000000       0.16666667       0.25000000 </v>
    <v>       0.16666667       0.16666667       0.25000000 </v>
    <v>       0.33333333       0.16666667       0.25000000 </v>
    <v>       0.50000000       0.16666667       0.25000000 </v>
    <v>       0.00000000       0.33333333       0.25000000 </v>
    <v>       0.16666667       0.33333333       0.25000000 </v>
    <v>       0.33333333       0.33333333       0.25000000 </v>
    <v>       0.50000000       0.33333333       0.25000000 </v>
    <v>       0.00000000       0.50000000       0.25000000 </v>
    <v>       0.16666667       0.50000000       0.25000000 </v>
    <v>       0.33333333       0.50000000       0.25000000 </v>
    <v>       0.50000000       0.50000000       0.25000000 </v>
    <v>       0.00000000       0.00000000       0.50000000 </v>
    <v>       0.16666667       0.00000000       0.50000000 </v>
    <v>       0.33333333       0.00000000       0.50000000 </v>
    <v>       0.50000000       0.00000000       0.50000000 </v>
    <v>       0.00000000       0.16666667       0.50000000 </v>
    <v>       0.16666667       0.16666667       0.50000000 </v>
    <v>       0.33333333       0.16666667       0.50000000 </v>
    <v>       0.50000000       0.16666667       0.50000000 </v>
    <v>       0.00000000       0.33333333       0.50000000 </v>
    <v>       0.16666667       0.33333333       0.50000000 </v>
    <v>       0.33333333       0.33333333       0.50000000 </v>
    <v>       0.50000000       0.33333333       0.50000000 </v>
    <v>       0.00000000       0.50000000       0.50000000 </v>
    <v>       0.16666667       0.50000000       0.50000000 </v>
    <v>       0.33333333       0.50000000       0.50000000 </v>
    <v>       0.50000000       0.50000000       0.50000000 </v>
   </varray>
   <varray name="weights" >
    <v>       0.00694444 </v>
    <v>       0.01388889 </v>
    <v>       0.01388889 </v>
    <v>       0.00694444 </v>
    <v>       0.01388889 </v>
    <v>       0.02777778 </v>
    <v>       0.02777778 </v>
    <v>       0.01388889 </v>
    <v>       0.01388889 </v>
    <v>       0.02777778 </v>
    <v>       0.02777778 </v>
    <v>       0.01388889 </v>
    <v>       0.00694444 </v>
    <v>       0.01388889 </v>
    <v>       0.01388889 </v>
    <v>       0.00694444 </v>
    <v>       0.01388889 </v>
    <v>       0.02777778 </v>
    <v>       0.02777778 </v>
    <v>       0.01388889 </v>
    <v>       0.02777778 </v>
    <v>       0.05555556 </v>
    <v>       0.05555556 </v>
    <v>       0.02777778 </v>
    <v>       0.02777778 </v>
    <v>       0.05555556 </v>
    <v>       0.05555556 </v>
    <v>       0.02777778 </v>
    <v>       0.01388889 </v>
    <v>       0.02777778 </v>
    <v>       0.02777778 </v>
    <v>       0.01388889 </v>
    <v>       0.00694444 </v>
    <v>       0.01388889 </v>
    <v>       0.01388889 </v>
    <v>       0.00694444 </v>
    <v>       0.01388889 </v>
    <v>       0.02777778 </v>
    <v>       0.02777778 </v>
    <v>       0.01388889 </v>
    <v>       0.01388889 </v>
    <v>       0.02777778 </v>
    <v>       0.02777778 </v>
    <v>       0.01388889 </v>
    <v>       0.00694444 </v>
    <v>       0.01388889 </v>
    <v>       0.01388889 </v>
    <v>       0.00694444 </v>
   </varray>
  </kpoints>
  <time name="totalsc">   88.31   88.32</time>
 </calculation>
 <calculation>
  <scstep>
   <time name="dav">   10.02   10.02</time>
   <time name="total">   10.08   10.09</time>
   <energy>
    <i name="alphaZ">    297.98062259 </i>
    <i name="ewald">  -8650.24670399 </i>
    <i name="hartreedc">  -3866.97836882 </i>
    <i name="XCdc">    275.01021005 </i>
    <i name="pawpsdc">  13428.66609601 </i>
    <i name="pawaedc"> -12988.03388582 </i>
    <i name="eentropy">     -0.00517777 </i>
    <i name="bandstr">  -1730.11499452 </i>
    <i name="atom">  13132.98388788 </i>
    <i name="e_fr_energy">   -100.73831439 </i>
    <i name="e_wo_entrp">   -100.73313662 </i>
    <i name="e_0_energy">   -100.73658847 </i>
   </energy>
  </scstep>
  <scstep>
   <time name="dav">    9.49    9.50</time>
   <time name="total">    9.56    9.56</time>
   <energy>
    <i name="e_fr_energy">    -99.45659633 </i>
    <i name="e_wo_entrp">    -99.45530415 </i>
    <i name="e_0_energy">    -99.45616560 </i>
   </energy>
  </scstep>
  <scstep>
   <time name="dav">    9.48    9.48</time>
   <time name="total">    9.55    9.55</time>
   <energy>
    <i name="e_fr_energy">    -99.05892603 </i>
    <i name="e_wo_entrp">    -99.07435204 </i>
    <i name="e_0_energy">    -99.06406803 </i>
   </energy>
  </scstep>
  <scstep>
   <time name="dav">   10.61   10.61</time>
   <time name="total">   10.68   10.68</time>
   <energy>
    <i name="e_fr_energy">    -99.06634416 </i>
    <i name="e_wo_entrp">    -99.08409832 </i>
    <i name="e_0_energy">    -99.07226221 </i>
   </energy>
  </scstep>
  <scstep>
   <time name="dav">   12.43   12.43</time>
   <time name="total">   12.50   12.50</time>
   <energy>
    <i name="e_fr_energy">    -99.09264093 </i>
    <i name="e_wo_entrp">    -99.11040232 </i>
    <i name="e_0_energy">    -99.09856139 </i>
   </energy>
  </scstep>
  <scstep>
   <time name="dav">   12.97   12.97</time>
   <time name="total">   13.03   13.04</time>
   <energy>
    <i name="e_fr_energy">    -99.09812151 </i>
    <i name="e_wo_entrp">    -99.11629156 </i>
    <i name="e_0_energy">    -99.10417819 </i>
   </energy>
  </scstep>
  <scstep>
   <time name="dav">    6.93    6.93</time>
   <time name="total">    6.99    6.99</time>
   <energy>
    <i name="e_fr_energy">    -99.09853389 </i>
    <i name="e_wo_entrp">    -99.11683246 </i>
    <i name="e_0_energy">    -99.10463341 </i>
   </energy>
  </scstep>
  <scstep>
   <time name="dav">    7.45    7.45</time>
   <time name="total">    7.51    7.51</time>
   <energy>
    <i name="e_fr_energy">    -99.09852771 </i>
    <i name="e_wo_entrp">    -99.11688335 </i>
    <i name="e_0_energy">    -99.10464626 </i>
   </energy>
  </scstep>
  <scstep>
   <time name="dav">   11.08   11.08</time>
   <time name="total">   11.14   11.15</time>
   <energy>
    <i name="e_fr_energy">    -99.09853305 </i>
    <i name="e_wo_entrp">    -99.11689691 </i>
    <i name="e_0_energy">    -99.10465434 </i>
   </energy>
  </scstep>
  <scstep>
   <time name="dav">   10.24   10.24</time>
   <time name="total">   10.30   10.31</time>
   <energy>
    <i name="e_fr_energy">    -99.09853154 </i>
    <i name="e_wo_entrp">    -99.11689562 </i>
    <i name="e_0_energy">    -99.10465290 </i>
   </energy>
  </scstep>
  <scstep>
   <time name="dav">    5.58    5.58</time>
   <time name="total">    5.59    5.59</time>
   <energy>
    <i name="alphaZ">    297.98062259 </i>
    <i name="ewald">  -8650.24670399 </i>
    <i name="hartreedc">  -3937.55150190 </i>
    <i name="XCdc">    278.51713722 </i>
    <i name="pawpsdc">  13129.37598062 </i>
    <i name="pawaedc"> -12692.10864856 </i>
    <i name="eentropy">      0.01836388 </i>
    <i name="bandstr">  -1658.06766918 </i>
    <i name="atom">  13132.98388788 </i>
    <i name="e_fr_energy">    -99.09853145 </i>
    <i name="e_wo_entrp">    -99.11689533 </i>
    <i name="e_0_energy">    -99.10465274 </i>
   </energy>
  </scstep>
  <structure>
   <crystal>
    <varray name="basis" >
     <v>       5.65068177       0.00000000       0.00000000 </v>
     <v>       0.00000000       5.73544200       0.00000000 </v>
     <v>       0.00000000       0.00000000       8.12462919 </v>
    </varray>
    <i name="volume">    263.31238747 </i>
    <varray name="rec_basis" >
     <v>       0.17696980       0.00000000       0.00000000 </v>
     <v>       0.00000000       0.17435448       0.00000000 </v>
     <v>       0.00000000       0.00000000       0.12308254 </v>
    </varray>
   </crystal>
   <varray name="positions" >
    <v>       0.00000000       0.00000000       0.00000000 </v>
    <v>       0.00000000       0.00000000       0.50000000 </v>
    <v>       0.00000000       0.50000000       0.00000000 </v>
    <v>       0.00000000       0.50000000       0.50000000 </v>
    <v>       0.50000000       0.00000000       0.00000000 </v>
    <v>       0.50000000       0.00000000       0.50000000 </v>
    <v>       0.50000000       0.50000000       0.00000000 </v>
    <v>       0.50000000       0.50000000       0.50000000 </v>
    <v>       0.25000000       0.25000000       0.25000000 </v>
    <v>       0.25000000       0.25000000       0.75000000 </v>
    <v>       0.25000000       0.75000000       0.25000000 </v>
    <v>       0.25000000       0.75000000       0.75000000 </v>
    <v>       0.75000000       0.25000000       0.25000000 </v>
    <v>       0.75000000       0.25000000       0.75000000 </v>
    <v>       0.75000000       0.75000000       0.25000000 </v>
    <v>       0.75000000       0.75000000       0.75000000 </v>
   </varray>
  </structure>
  <varray name="forces" >
   <v>      -0.00000000      -0.00000000       0.00000000 </v>
   <v>      -0.00000000      -0.00000000      -0.00000000 </v>
   <v>       0.00000000       0.00000000       0.00000000 </v>
   <v>       0.00000000      -0.00000000      -0.00000000 </v>
   <v>       0.00000000      -0.00000000       0.00000000 </v>
   <v>      -0.00000000      -0.00000000      -0.00000000 </v>
   <v>       0.00000000       0.00000000       0.00000000 </v>
   <v>       0.00000000      -0.00000000      -0.00000000 </v>
   <v>       0.00000000       0.00000000       0.00000000 </v>
   <v>      -0.00000000      -0.00000000      -0.00000000 </v>
   <v>      -0.00000000       0.00000000       0.00000000 </v>
   <v>      -0.00000000       0.00000000       0.00000000 </v>
   <v>       0.00000000      -0.00000000       0.00000000 </v>
   <v>      -0.00000000       0.00000000       0.00000000 </v>
   <v>      -0.00000000      -0.00000000       0.00000000 </v>
   <v>       0.00000000      -0.00000000       0.00000000 </v>
  </varray>
  <varray name="stress" >
   <v>      -8.00937364      -0.00000000       0.00000000 </v>
   <v>      -0.00000000     -28.39654087       0.00000000 </v>
   <v>       0.00000000       0.00000000     -11.58237760 </v>
  </varray>
  <energy>
   <i name="e_fr_energy">    -99.09853145 </i>
   <i name="e_wo_entrp">    -99.11689533 </i>
   <i name="e_0_energy">    -99.10465274 </i>
  </energy>
  <kpoints>
   <generation param="Gamma">
    <v type="int" name="divisions">       6        6        4 </v>
    <v name="usershift">      0.00000000       0.00000000       0.00000000 </v>
    <v name="genvec1">      0.16666667       0.00000000       0.00000000 </v>
    <v name="genvec2">      0.00000000       0.16666667       0.00000000 </v>
    <v name="genvec3">      0.00000000       0.00000000       0.25000000 </v>
    <v name="shift">      0.00000000       0.00000000       0.00000000 </v>
   </generation>
   <varray name="kpointlist" >
    <v>       0.00000000       0.00000000       0.00000000 </v>
    <v>       0.16666667       0.00000000       0.00000000 </v>
    <v>       0.33333333       0.00000000       0.00000000 </v>
    <v>       0.50000000       0.00000000       0.00000000 </v>
    <v>       0.00000000       0.16666667       0.00000000 </v>
    <v>       0.16666667       0.16666667       0.00000000 </v>
    <v>       0.33333333       0.16666667       0.00000000 </v>
    <v>       0.50000000       0.16666667       0.00000000 </v>
    <v>       0.00000000       0.33333333       0.00000000 </v>
    <v>       0.16666667       0.33333333       0.00000000 </v>
    <v>       0.33333333       0.33333333       0.00000000 </v>
    <v>       0.50000000       0.33333333       0.00000000 </v>
    <v>       0.00000000       0.50000000       0.00000000 </v>
    <v>       0.16666667       0.50000000       0.00000000 </v>
    <v>       0.33333333       0.50000000       0.00000000 </v>
    <v>       0.50000000       0.50000000       0.00000000 </v>
    <v>       0.00000000       0.00000000       0.25000000 </v>
    <v>       0.16666667       0.00000000       0.25000000 </v>
    <v>       0.33333333       0.00000000       0.25000000 </v>
    <v>       0.50000000       0.00000000       0.25000000 </v>
    <v>       0.00000000       0.16666667       0.25000000 </v>
    <v>       0.16666667       0.16666667       0.25000000 </v>
    <v>       0.33333333       0.16666667       0.25000000 </v>
    <v>       0.50000000       0.16666667       0.25000000 </v>
    <v>       0.00000000       0.33333333       0.25000000 </v>
    <v>       0.16666667       0.33333333       0.25000000 </v>
    <v>       0.33333333       0.33333333       0.25000000 </v>
    <v>       0.50000000       0.33333333       0.25000000 </v>
    <v>       0.00000000       0.50000000       0.25000000 </v>
    <v>       0.16666667       0.50000000       0.25000000 </v>
    <v>       0.33333333       0.50000000       0.25000000 </v>
    <v>       0.50000000       0.50000000       0.25000000 </v>
    <v>       0.00000000       0.00000000       0.50000000 </v>
    <v>       0.16666667       0.00000000       0.50000000 </v>
    <v>       0.33333333       0.00000000       0.50000000 </v>
    <v>       0.50000000       0.00000000       0.50000000 </v>
    <v>       0.00000000       0.16666667       0.50000000 </v>
    <v>       0.16666667       0.16666667       0.50000000 </v>
    <v>       0.33333333       0.16666667       0.50000000 </v>
    <v>       0.50000000       0.16666667       0.50000000 </v>
    <v>       0.00000000       0.33333333       0.50000000 </v>
    <v>       0.16666667       0.33333333       0.50000000 </v>
    <v>       0.33333333       0.33333333       0.50000000 </v>
    <v>       0.50000000       0.33333333       0.50000000 </v>
    <v>       0.00000000       0.50000000       0.50000000 </v>
    <v>       0.16666667       0.50000000       0.50000000 </v>
    <v>       0.33333333       0.50000000       0.50000000 </v>
    <v>       0.50000000       0.50000000       0.50000000 </v>
   </varray>
   <varray name="weights" >
    <v>       0.00694444 </v>
    <v>       0.01388889 </v>
    <v>       0.01388889 </v>
    <v>       0.00694444 </v>
    <v>       0.01388889 </v>
    <v>       0.02777778 </v>
    <v>       0.02777778 </v>
    <v>       0.01388889 </v>
    <v>       0.01388889 </v>
    <v>       0.02777778 </v>
    <v>       0.02777778 </v>
    <v>       0.01388889 </v>
    <v>       0.00694444 </v>
    <v>       0.01388889 </v>
    <v>       0.01388889 </v>
    <v>       0.00694444 </v>
    <v>       0.01388889 </v>
    <v>       0.02777778 </v>
    <v>       0.02777778 </v>
    <v>       0.01388889 </v>
    <v>       0.02777778 </v>
    <v>       0.05555556 </v>
    <v>       0.05555556 </v>
    <v>       0.02777778 </v>
    <v>       0.02777778 </v>
    <v>       0.05555556 </v>
    <v>       0.05555556 </v>
    <v>       0.02777778 </v>
    <v>       0.01388889 </v>
    <v>       0.02777778 </v>
    <v>       0.02777778 </v>
    <v>       0.01388889 </v>
    <v>       0.00694444 </v>
    <v>       0.01388889 </v>
    <v>       0.01388889 </v>
    <v>       0.00694444 </v>
    <v>       0.01388889 </v>
    <v>       0.02777778 </v>
    <v>       0.02777778 </v>
    <v>       0.01388889 </v>
    <v>       0.01388889 </v>
    <v>       0.02777778 </v>
    <v>       0.02777778 </v>
    <v>       0.01388889 </v>
    <v>       0.00694444 </v>
    <v>       0.01388889 </v>
    <v>       0.01388889 </v>
    <v>       0.00694444 </v>
   </varray>
  </kpoints>
  <time name="totalsc">  111.03  111.05</time>
 </calculation>
 <calculation>
  <scstep>
   <time name="dav">   10.34   10.34</time>
   <time name="total">   10.41   10.41</time>
   <energy>
    <i name="alphaZ">    307.05617454 </i>
    <i name="ewald">  -8719.72518847 </i>
    <i name="hartreedc">  -3991.54230950 </i>
    <i name="XCdc">    283.59116181 </i>
    <i name="pawpsdc">  13129.23612586 </i>
    <i name="pawaedc"> -12691.99155437 </i>
    <i name="eentropy">     -0.01233387 </i>
    <i name="bandstr">  -1550.66086385 </i>
    <i name="atom">  13132.98388788 </i>
    <i name="e_fr_energy">   -101.06489996 </i>
    <i name="e_wo_entrp">   -101.05256609 </i>
    <i name="e_0_energy">   -101.06078867 </i>
   </energy>
  </scstep>
  <scstep>
   <time name="dav">    9.45    9.45</time>
   <time name="total">    9.51    9.51</time>
   <energy>
    <i name="e_fr_energy">    -99.38424246 </i>
    <i name="e_wo_entrp">    -99.38047668 </i>
    <i name="e_0_energy">    -99.38298720 </i>
   </energy>
  </scstep>
  <scstep>
   <time name="dav">    9.11    9.11</time>
   <time name="total">    9.18    9.18</time>
   <energy>
    <i name="e_fr_energy">    -99.09404660 </i>
    <i name="e_wo_entrp">    -99.11084892 </i>
    <i name="e_0_energy">    -99.09964737 </i>
   </energy>
  </scstep>
  <scstep>
   <time name="dav">   11.38   11.38</time>
   <time name="total">   11.44   11.45</time>
   <energy>
    <i name="e_fr_energy">    -99.06944358 </i>
    <i name="e_wo_entrp">    -99.08757143 </i>
    <i name="e_0_energy">    -99.07548619 </i>
   </energy>
  </scstep>
  <scstep>
   <time name="dav">    7.98    7.98</time>
   <time name="total">    8.05    8.05</time>
   <energy>
    <i name="e_fr_energy">    -99.08677059 </i>
    <i name="e_wo_entrp">    -99.10437543 </i>
    <i name="e_0_energy">    -99.09263887 </i>
   </energy>
  </scstep>
  <scstep>
   <time name="dav">   11.78   11.78</time>
   <time name="total">   11.85   11.85</time>
   <energy>
    <i name="e_fr_energy">    -99.09390694 </i>
    <i name="e_wo_entrp">    -99.11135919 </i>
    <i name="e_0_energy">    -99.09972436 </i>
   </energy>
  </scstep>
  <scstep>
   <time name="dav">    7.02    7.02</time>
   <time name="total">    7.09    7.09</time>
   <energy>
    <i name="e_fr_energy">    -99.09383049 </i>
    <i name="e_wo_entrp">    -99.11130660 </i>
    <i name="e_0_energy">    -99.09965586 </i>
   </energy>
  </scstep>
  <scstep>
   <time name="dav">   10.05   10.05</time>
   <time name="total">   10.13   10.13</time>
   <energy>
    <i name="e_fr_energy">    -99.09384063 </i>
    <i name="e_wo_entrp">    -99.11129316 </i>
    <i name="e_0_energy">    -99.09965814 </i>
   </energy>
  </scstep>
  <scstep>
   <time name="dav">    9.03    9.03</time>
   <time name="total">    9.04    9.04</time>
   <energy>
    <i name="alphaZ">    307.05617454 </i>
    <i name="ewald">  -8719.72518847 </i>
    <i name="hartreedc">  -3921.19533225 </i>
    <i name="XCdc">    280.05248298 </i>
    <i name="pawpsdc">  13428.29323693 </i>
    <i name="pawaedc"> -12987.74337724 </i>
    <i name="eentropy">      0.01744270 </i>
    <i name="bandstr">  -1618.83316758 </i>
    <i name="atom">  13132.98388788 </i>
    <i name="e_fr_energy">    -99.09384051 </i>
    <i name="e_wo_entrp">    -99.11128321 </i>
    <i name="e_0_energy">    -99.09965474 </i>
   </energy>
  </scstep>
  <structure>
   <crystal>
    <varray name="basis" >
     <v>       5.65068177       0.00000000       0.00000000 </v>
     <v>       0.00000000       5.56592155       0.00000000 </v>
     <v>       0.00000000       0.00000000       8.12462919 </v>
    </varray>
    <i name="volume">    255.52975532 </i>
    <varray name="rec_basis" >
     <v>       0.17696980       0.00000000       0.00000000 </v>
     <v>       0.00000000       0.17966477       0.00000000 </v>
     <v>       0.00000000       0.00000000       0.12308254 </v>
    </varray>
   </crystal>
   <varray name="positions" >
    <v>       0.00000000       0.00000000       0.00000000 </v>
    <v>       0.00000000       0.00000000       0.50000000 </v>
    <v>       0.00000000       0.50000000       0.00000000 </v>
    <v>       0.00000000       0.50000000       0.50000000 </v>
    <v>       0.50000000       0.00000000       0.00000000 </v>
    <v>       0.50000000       0.00000000       0.50000000 </v>
    <v>       0.50000000       0.50000000       0.00000000 </v>
    <v>       0.50000000       0.50000000       0.50000000 </v>
    <v>       0.25000000       0.25000000       0.25000000 </v>
    <v>       0.25000000       0.25000000       0.75000000 </v>
    <v>       0.25000000       0.75000000       0.25000000 </v>
    <v>       0.25000000       0.75000000       0.75000000 </v>
    <v>       0.75000000       0.25000000       0.25000000 </v>
    <v>       0.75000000       0.25000000       0.75000000 </v>
    <v>       0.75000000       0.75000000       0.25000000 </v>
    <v>       0.75000000       0.75000000       0.75000000 </v>
   </varray>
  </structure>
  <varray name="forces" >
   <v>      -0.00000000       0.00000000       0.00000000 </v>
   <v>      -0.00000000       0.00000000       0.00000000 </v>
   <v>       0.00000000      -0.00000000       0.00000000 </v>
   <v>      -0.00000000       0.00000000       0.00000000 </v>
   <v>       0.00000000      -0.00000000       0.00000000 </v>
   <v>       0.00000000       0.00000000      -0.00000000 </v>
   <v>       0.00000000       0.00000000       0.00000000 </v>
   <v>      -0.00000000      -0.00000000       0.00000000 </v>
   <v>       0.00000000      -0.00000000      -0.00000000 </v>
   <v>      -0.00000000      -0.00000000      -0.00000000 </v>
   <v>      -0.00000000      -0.00000000      -0.00000000 </v>
   <v>      -0.00000000       0.00000000      -0.00000000 </v>
   <v>       0.00000000      -0.00000000      -0.00000000 </v>
   <v>       0.00000000       0.00000000      -0.00000000 </v>
   <v>      -0.00000000      -0.00000000      -0.00000000 </v>
   <v>       0.00000000       0.00000000      -0.00000000 </v>
  </varray>
  <varray name="stress" >
   <v>       9.25459397      -0.00000000       0.00000000 </v>
   <v>       0.00000000      32.42937866       0.00000000 </v>
   <v>       0.00000000       0.00000000      13.04411710 </v>
  </varray>
  <energy>
   <i name="e_fr_energy">    -99.09384051 </i>
   <i name="e_wo_entrp">    -99.11128321 </i>
   <i name="e_0_energy">    -99.09965474 </i>
  </energy>
  <kpoints>
   <generation param="Gamma">
    <v type="int" name="divisions">       6        6        4 </v>
    <v name="usershift">      0.00000000       0.00000000       0.00000000 </v>
    <v name="genvec1">      0.16666667       0.00000000       0.00000000 </v>
    <v name="genvec2">      0.00000000       0.16666667       0.00000000 </v>
    <v name="genvec3">      0.00000000       0.00000000       0.25000000 </v>
    <v name="shift">      0.00000000       0.00000000       0.00000000 </v>
   </generation>
   <varray name="kpointlist" >
    <v>       0.00000000       0.00000000       0.00000000 </v>
    <v>       0.16666667       0.00000000       0.00000000 </v>
    <v>       0.33333333       0.00000000       0.00000000 </v>
    <v>       0.50000000       0.00000000       0.00000000 </v>
    <v>       0.16666667       0.16666667       0.00000000 </v>
    <v>       0.33333333       0.16666667       0.00000000 </v>
    <v>       0.50000000       0.16666667       0.00000000 </v>
    <v>       0.33333333       0.33333333       0.00000000 </v>
    <v>       0.50000000       0.33333333       0.00000000 </v>
    <v>       0.50000000       0.50000000       0.00000000 </v>
    <v>       0.00000000       0.00000000       0.25000000 </v>
    <v>       0.16666667       0.00000000       0.25000000 </v>
    <v>       0.33333333       0.00000000       0.25000000 </v>
    <v>       0.50000000       0.00000000       0.25000000 </v>
    <v>       0.16666667       0.16666667       0.25000000 </v>
    <v>       0.33333333       0.16666667       0.25000000 </v>
    <v>       0.50000000       0.16666667       0.25000000 </v>
    <v>       0.33333333       0.33333333       0.25000000 </v>
    <v>       0.50000000       0.33333333       0.25000000 </v>
    <v>       0.50000000       0.50000000       0.25000000 </v>
    <v>       0.00000000       0.00000000       0.50000000 </v>
    <v>       0.16666667       0.00000000       0.50000000 </v>
    <v>       0.33333333       0.00000000       0.50000000 </v>
    <v>       0.50000000       0.00000000       0.50000000 </v>
    <v>       0.16666667       0.16666667       0.50000000 </v>
    <v>       0.33333333       0.16666667       0.50000000 </v>
    <v>       0.50000000       0.16666667       0.50000000 </v>
[...]
       <r>    6.2441    1.0000 </r>
       <r>    6.2453    1.0000 </r>
       <r>    6.2453    1.0000 </r>
       <r>    6.2524    1.0000 </r>
       <r>    7.9156    1.0083 </r>
       <r>    7.9156    1.0083 </r>
       <r>    7.9172    1.0085 </r>
       <r>    7.9173    1.0085 </r>
       <r>    7.9174    1.0085 </r>
       <r>    7.9175    1.0085 </r>
       <r>    7.9189    1.0087 </r>
       <r>    7.9189    1.0087 </r>
       <r>    8.2979    0.5665 </r>
       <r>    8.2979    0.5665 </r>
       <r>    8.2990    0.5618 </r>
       <r>    8.2994    0.5599 </r>
       <r>    8.2997    0.5588 </r>
       <r>    8.3003    0.5565 </r>
       <r>    8.3014    0.5518 </r>
       <r>    8.3014    0.5518 </r>
       <r>    9.0492   -0.0000 </r>
       <r>    9.0492   -0.0000 </r>
       <r>    9.0493   -0.0000 </r>
       <r>    9.0496   -0.0000 </r>
       <r>    9.0502   -0.0000 </r>
       <r>    9.0504   -0.0000 </r>
       <r>    9.0506   -0.0000 </r>
       <r>    9.0506   -0.0000 </r>
       <r>    9.9809   -0.0000 </r>
       <r>    9.9809   -0.0000 </r>
       <r>    9.9820   -0.0000 </r>
       <r>    9.9823   -0.0000 </r>
       <r>    9.9839   -0.0000 </r>
       <r>    9.9841   -0.0000 </r>
       <r>    9.9852   -0.0000 </r>
       <r>    9.9852   -0.0000 </r>
       <r>   11.6890   -0.0000 </r>
       <r>   11.6896   -0.0000 </r>
       <r>   11.6917   -0.0000 </r>
       <r>   11.6917   -0.0000 </r>
       <r>   11.6918   -0.0000 </r>
       <r>   11.6918   -0.0000 </r>
       <r>   11.6940   -0.0000 </r>
       <r>   11.6944   -0.0000 </r>
       <r>   12.8840    0.0000 </r>
       <r>   12.8840    0.0000 </r>
       <r>   12.8851    0.0000 </r>
       <r>   12.8866    0.0000 </r>
       <r>   12.8871    0.0000 </r>
       <r>   12.8887    0.0000 </r>
       <r>   12.8898    0.0000 </r>
       <r>   12.8898    0.0000 </r>
       <r>   14.1124    0.0000 </r>
       <r>   14.1129    0.0000 </r>
       <r>   14.1130    0.0000 </r>
       <r>   14.1130    0.0000 </r>
       <r>   14.1146    0.0000 </r>
       <r>   14.1147    0.0000 </r>
       <r>   14.1147    0.0000 </r>
       <r>   14.1153    0.0000 </r>
       <r>   17.4845    0.0000 </r>
       <r>   17.4994    0.0000 </r>
       <r>   17.4994    0.0000 </r>
       <r>   17.5002    0.0000 </r>
       <r>   17.5010    0.0000 </r>
       <r>   17.5018    0.0000 </r>
       <r>   17.5018    0.0000 </r>
       <r>   17.5166    0.0000 </r>
       <r>   18.6843    0.0000 </r>
       <r>   18.6975    0.0000 </r>
       <r>   18.6975    0.0000 </r>
       <r>   18.6983    0.0000 </r>
       <r>   18.7005    0.0000 </r>
       <r>   18.7011    0.0000 </r>
       <r>   18.7011    0.0000 </r>
       <r>   18.7153    0.0000 </r>
       <r>   18.7907    0.0000 </r>
       <r>   18.7907    0.0000 </r>
       <r>   18.7916    0.0000 </r>
       <r>   18.7955    0.0000 </r>
       <r>   18.7956    0.0000 </r>
       <r>   18.7995    0.0000 </r>
       <r>   18.8006    0.0000 </r>
       <r>   18.8006    0.0000 </r>
      </set>
     </set>
    </set>
   </array>
  </eigenvalues>
  <separator name="orbital magnetization" >
   <v name="MAGDIPOLOUT">      0.00000000      0.00000000      0.00000000</v>
  </separator>
  <dos>
   <i name="efermi">      8.31363549 </i>
   <total>
    <array>
     <dimension dim="1">gridpoints</dimension>
     <dimension dim="2">spin</dimension>
     <field>energy</field>
     <field>total</field>
     <field>integrated</field>
     <set>
      <set comment="spin 1">
       <r>   -51.8292     0.0000     0.0000 </r>
       <r>   -51.5718     0.0000     0.0000 </r>
       <r>   -51.3143     0.0000     0.0000 </r>
       <r>   -51.0569     0.0000     0.0000 </r>
       <r>   -50.7994     0.0000     0.0000 </r>
       <r>   -50.5420     0.0000     0.0000 </r>
       <r>   -50.2845     0.0000     0.0000 </r>
       <r>   -50.0271    -0.0000    -0.0000 </r>
       <r>   -49.7696    -0.0000    -0.0000 </r>
       <r>   -49.5122    -0.0000    -0.0000 </r>
       <r>   -49.2548    -0.0000    -0.0000 </r>
       <r>   -48.9973    -0.0001    -0.0000 </r>
       <r>   -48.7399    -0.1286    -0.0331 </r>
       <r>   -48.4824    -1.6483    -0.4575 </r>
       <r>   -48.2250    41.5841    10.2483 </r>
       <r>   -47.9675    24.1150    16.4566 </r>
       <r>   -47.7101    -1.7463    16.0070 </r>
       <r>   -47.4526    -0.0274    16.0000 </r>
       <r>   -47.1952    -0.0000    16.0000 </r>
       <r>   -46.9377    -0.0000    16.0000 </r>
       <r>   -46.6803     0.0000    16.0000 </r>
       <r>   -46.4228     0.0000    16.0000 </r>
       <r>   -46.1654     0.0000    16.0000 </r>
       <r>   -45.9079     0.0000    16.0000 </r>
       <r>   -45.6505     0.0000    16.0000 </r>
       <r>   -45.3930     0.0000    16.0000 </r>
       <r>   -45.1356     0.0000    16.0000 </r>
       <r>   -44.8781     0.0000    16.0000 </r>
       <r>   -44.6207     0.0000    16.0000 </r>
       <r>   -44.3632     0.0000    16.0000 </r>
       <r>   -44.1058     0.0000    16.0000 </r>
       <r>   -43.8483     0.0000    16.0000 </r>
       <r>   -43.5909     0.0000    16.0000 </r>
       <r>   -43.3334     0.0000    16.0000 </r>
       <r>   -43.0760     0.0000    16.0000 </r>
       <r>   -42.8185     0.0000    16.0000 </r>
       <r>   -42.5611     0.0000    16.0000 </r>
       <r>   -42.3037     0.0000    16.0000 </r>
       <r>   -42.0462     0.0000    16.0000 </r>
       <r>   -41.7888     0.0000    16.0000 </r>
       <r>   -41.5313     0.0000    16.0000 </r>
       <r>   -41.2739     0.0000    16.0000 </r>
       <r>   -41.0164     0.0000    16.0000 </r>
       <r>   -40.7590     0.0000    16.0000 </r>
       <r>   -40.5015     0.0000    16.0000 </r>
       <r>   -40.2441     0.0000    16.0000 </r>
       <r>   -39.9866     0.0000    16.0000 </r>
       <r>   -39.7292     0.0000    16.0000 </r>
       <r>   -39.4717     0.0000    16.0000 </r>
       <r>   -39.2143     0.0000    16.0000 </r>
       <r>   -38.9568     0.0000    16.0000 </r>
       <r>   -38.6994     0.0000    16.0000 </r>
       <r>   -38.4419     0.0000    16.0000 </r>
       <r>   -38.1845     0.0000    16.0000 </r>
       <r>   -37.9270     0.0000    16.0000 </r>
       <r>   -37.6696     0.0000    16.0000 </r>
       <r>   -37.4121     0.0000    16.0000 </r>
       <r>   -37.1547     0.0000    16.0000 </r>
       <r>   -36.8972     0.0000    16.0000 </r>
       <r>   -36.6398     0.0000    16.0000 </r>
       <r>   -36.3823     0.0000    16.0000 </r>
       <r>   -36.1249     0.0000    16.0000 </r>
       <r>   -35.8675     0.0000    16.0000 </r>
       <r>   -35.6100     0.0000    16.0000 </r>
       <r>   -35.3526     0.0000    16.0000 </r>
       <r>   -35.0951     0.0000    16.0000 </r>
       <r>   -34.8377     0.0000    16.0000 </r>
       <r>   -34.5802     0.0000    16.0000 </r>
       <r>   -34.3228     0.0000    16.0000 </r>
       <r>   -34.0653     0.0000    16.0000 </r>
       <r>   -33.8079     0.0000    16.0000 </r>
       <r>   -33.5504     0.0000    16.0000 </r>
       <r>   -33.2930     0.0000    16.0000 </r>
       <r>   -33.0355     0.0000    16.0000 </r>
       <r>   -32.7781     0.0000    16.0000 </r>
       <r>   -32.5206     0.0000    16.0000 </r>
       <r>   -32.2632     0.0000    16.0000 </r>
       <r>   -32.0057     0.0000    16.0000 </r>
       <r>   -31.7483     0.0000    16.0000 </r>
       <r>   -31.4908     0.0000    16.0000 </r>
       <r>   -31.2334     0.0000    16.0000 </r>
       <r>   -30.9759     0.0000    16.0000 </r>
       <r>   -30.7185     0.0000    16.0000 </r>
       <r>   -30.4610     0.0000    16.0000 </r>
       <r>   -30.2036     0.0000    16.0000 </r>
       <r>   -29.9461     0.0000    16.0000 </r>
       <r>   -29.6887     0.0000    16.0000 </r>
       <r>   -29.4312     0.0000    16.0000 </r>
       <r>   -29.1738     0.0000    16.0000 </r>
       <r>   -28.9164     0.0000    16.0000 </r>
       <r>   -28.6589     0.0000    16.0000 </r>
       <r>   -28.4015     0.0000    16.0000 </r>
       <r>   -28.1440     0.0000    16.0000 </r>
       <r>   -27.8866     0.0000    16.0000 </r>
       <r>   -27.6291     0.0000    16.0000 </r>
       <r>   -27.3717     0.0000    16.0000 </r>
       <r>   -27.1142     0.0000    16.0000 </r>
       <r>   -26.8568     0.0000    16.0000 </r>
       <r>   -26.5993    -0.0000    16.0000 </r>
       <r>   -26.3419    -0.0000    16.0000 </r>
       <r>   -26.0844    -0.0000    16.0000 </r>
       <r>   -25.8270    -0.0000    16.0000 </r>
       <r>   -25.5695    -0.0000    16.0000 </r>
       <r>   -25.3121    -0.0039    15.9990 </r>
       <r>   -25.0546    -1.0797    15.7210 </r>
       <r>   -24.7972     7.1181    17.5536 </r>
       <r>   -24.5397   100.2785    43.3701 </r>
       <r>   -24.2823    61.4908    59.2007 </r>
       <r>   -24.0248    20.1356    64.3846 </r>
       <r>   -23.7674    -1.4555    64.0099 </r>
       <r>   -23.5099    -0.0384    64.0000 </r>
       <r>   -23.2525    -0.0000    64.0000 </r>
       <r>   -22.9950    -0.0000    64.0000 </r>
       <r>   -22.7376     0.0000    64.0000 </r>
       <r>   -22.4802     0.0000    64.0000 </r>
       <r>   -22.2227     0.0000    64.0000 </r>
       <r>   -21.9653     0.0000    64.0000 </r>
       <r>   -21.7078     0.0000    64.0000 </r>
       <r>   -21.4504     0.0000    64.0000 </r>
       <r>   -21.1929     0.0000    64.0000 </r>
       <r>   -20.9355     0.0000    64.0000 </r>
       <r>   -20.6780     0.0000    64.0000 </r>
       <r>   -20.4206     0.0000    64.0000 </r>
       <r>   -20.1631     0.0000    64.0000 </r>
       <r>   -19.9057     0.0000    64.0000 </r>
       <r>   -19.6482     0.0000    64.0000 </r>
       <r>   -19.3908     0.0000    64.0000 </r>
       <r>   -19.1333     0.0000    64.0000 </r>
       <r>   -18.8759     0.0000    64.0000 </r>
       <r>   -18.6184     0.0000    64.0000 </r>
       <r>   -18.3610     0.0000    64.0000 </r>
       <r>   -18.1035     0.0000    64.0000 </r>
       <r>   -17.8461     0.0000    64.0000 </r>
       <r>   -17.5886     0.0000    64.0000 </r>
       <r>   -17.3312     0.0000    64.0000 </r>
       <r>   -17.0737     0.0000    64.0000 </r>
       <r>   -16.8163     0.0000    64.0000 </r>
       <r>   -16.5588     0.0000    64.0000 </r>
       <r>   -16.3014     0.0000    64.0000 </r>
       <r>   -16.0440     0.0000    64.0000 </r>
       <r>   -15.7865     0.0000    64.0000 </r>
       <r>   -15.5291     0.0000    64.0000 </r>
       <r>   -15.2716     0.0000    64.0000 </r>
       <r>   -15.0142     0.0000    64.0000 </r>
       <r>   -14.7567     0.0000    64.0000 </r>
       <r>   -14.4993     0.0000    64.0000 </r>
       <r>   -14.2418     0.0000    64.0000 </r>
       <r>   -13.9844     0.0000    64.0000 </r>
       <r>   -13.7269     0.0000    64.0000 </r>
       <r>   -13.4695     0.0000    64.0000 </r>
       <r>   -13.2120     0.0000    64.0000 </r>
       <r>   -12.9546     0.0000    64.0000 </r>
       <r>   -12.6971     0.0000    64.0000 </r>
       <r>   -12.4397     0.0000    64.0000 </r>
       <r>   -12.1822     0.0000    64.0000 </r>
       <r>   -11.9248     0.0000    64.0000 </r>
       <r>   -11.6673     0.0000    64.0000 </r>
       <r>   -11.4099     0.0000    64.0000 </r>
       <r>   -11.1524     0.0000    64.0000 </r>
       <r>   -10.8950     0.0000    64.0000 </r>
       <r>   -10.6375     0.0000    64.0000 </r>
       <r>   -10.3801     0.0000    64.0000 </r>
       <r>   -10.1226     0.0000    64.0000 </r>
       <r>    -9.8652     0.0000    64.0000 </r>
       <r>    -9.6077     0.0000    64.0000 </r>
       <r>    -9.3503     0.0000    64.0000 </r>
       <r>    -9.0929     0.0000    64.0000 </r>
       <r>    -8.8354     0.0000    64.0000 </r>
       <r>    -8.5780     0.0000    64.0000 </r>
       <r>    -8.3205     0.0000    64.0000 </r>
       <r>    -8.0631     0.0000    64.0000 </r>
       <r>    -7.8056     0.0000    64.0000 </r>
       <r>    -7.5482     0.0000    64.0000 </r>
       <r>    -7.2907     0.0000    64.0000 </r>
       <r>    -7.0333     0.0000    64.0000 </r>
       <r>    -6.7758     0.0000    64.0000 </r>
       <r>    -6.5184     0.0000    64.0000 </r>
       <r>    -6.2609     0.0000    64.0000 </r>
       <r>    -6.0035     0.0000    64.0000 </r>
       <r>    -5.7460     0.0000    64.0000 </r>
       <r>    -5.4886     0.0000    64.0000 </r>
       <r>    -5.2311     0.0000    64.0000 </r>
       <r>    -4.9737     0.0000    64.0000 </r>
       <r>    -4.7162     0.0000    64.0000 </r>
       <r>    -4.4588     0.0000    64.0000 </r>
       <r>    -4.2013     0.0000    64.0000 </r>
       <r>    -3.9439     0.0000    64.0000 </r>
       <r>    -3.6864     0.0000    64.0000 </r>
       <r>    -3.4290     0.0000    64.0000 </r>
       <r>    -3.1715     0.0000    64.0000 </r>
       <r>    -2.9141     0.0000    64.0000 </r>
       <r>    -2.6567     0.0000    64.0000 </r>
       <r>    -2.3992    -0.0000    64.0000 </r>
       <r>    -2.1418    -0.0000    64.0000 </r>
       <r>    -1.8843    -0.0000    64.0000 </r>
       <r>    -1.6269    -0.0000    64.0000 </r>
       <r>    -1.3694    -0.0000    64.0000 </r>
       <r>    -1.1120    -0.0005    63.9999 </r>
       <r>    -0.8545    -0.0115    63.9969 </r>
       <r>    -0.5971     0.1742    64.0417 </r>
       <r>    -0.3396     0.8761    64.2673 </r>
       <r>    -0.0822     1.0716    64.5432 </r>
       <r>     0.1753     1.9877    65.0549 </r>
       <r>     0.4327     1.3709    65.4079 </r>
       <r>     0.6902     2.8277    66.1359 </r>
       <r>     0.9476     2.7203    66.8362 </r>
       <r>     1.2051     3.0974    67.6336 </r>
       <r>     1.4625     2.5889    68.3001 </r>
       <r>     1.7200     3.5695    69.2191 </r>
       <r>     1.9774     3.5156    70.1242 </r>
       <r>     2.2349     2.6446    70.8050 </r>
       <r>     2.4923     2.8113    71.5288 </r>
       <r>     2.7498     4.0072    72.5604 </r>
       <r>     3.0072     3.7674    73.5303 </r>
       <r>     3.2647     4.0083    74.5623 </r>
       <r>     3.5221     3.4326    75.4460 </r>
       <r>     3.7795     4.6735    76.6492 </r>
       <r>     4.0370     4.6863    77.8556 </r>
       <r>     4.2944     3.7842    78.8299 </r>
       <r>     4.5519     4.7970    80.0649 </r>
       <r>     4.8093     3.2492    80.9014 </r>
       <r>     5.0668     4.8757    82.1566 </r>
       <r>     5.3242     6.9748    83.9523 </r>
       <r>     5.5817     6.6946    85.6758 </r>
       <r>     5.8391     7.0231    87.4839 </r>
       <r>     6.0966     9.8772    90.0267 </r>
       <r>     6.3540    11.7314    93.0470 </r>
       <r>     6.6115    12.5455    96.2768 </r>
       <r>     6.8689    17.1601   100.6946 </r>
       <r>     7.1264    14.3451   104.3878 </r>
       <r>     7.3838     7.5281   106.3259 </r>
       <r>     7.6413     7.8386   108.3439 </r>
       <r>     7.8987    15.3805   112.3036 </r>
       <r>     8.1562    19.9131   117.4302 </r>
       <r>     8.4136    14.8765   121.2601 </r>
       <r>     8.6711    11.8958   124.3226 </r>
       <r>     8.9285     8.4688   126.5029 </r>
       <r>     9.1860    14.6052   130.2630 </r>
       <r>     9.4434    11.9033   133.3275 </r>
       <r>     9.7009    15.8914   137.4187 </r>
       <r>     9.9583    19.3935   142.4115 </r>
       <r>    10.2158    27.2603   149.4296 </r>
       <r>    10.4732    26.6121   156.2808 </r>
       <r>    10.7306    19.1732   161.2169 </r>
       <r>    10.9881    12.2242   164.3640 </r>
       <r>    11.2455     9.6085   166.8377 </r>
       <r>    11.5030     7.6571   168.8090 </r>
       <r>    11.7604     7.3508   170.7015 </r>
       <r>    12.0179     9.1225   173.0500 </r>
       <r>    12.2753    15.9522   177.1569 </r>
       <r>    12.5328    14.8079   180.9692 </r>
       <r>    12.7902    10.3645   183.6375 </r>
       <r>    13.0477     7.7462   185.6317 </r>
       <r>    13.3051     4.4376   186.7742 </r>
       <r>    13.5626     8.8659   189.0567 </r>
       <r>    13.8200     6.1251   190.6336 </r>
       <r>    14.0775     9.0863   192.9728 </r>
       <r>    14.3349    10.4213   195.6558 </r>
       <r>    14.5924    11.7344   198.6768 </r>
       <r>    14.8498     7.1539   200.5185 </r>
       <r>    15.1073     9.6715   203.0084 </r>
       <r>    15.3647    11.7092   206.0230 </r>
       <r>    15.6222    10.2401   208.6593 </r>
       <r>    15.8796     9.8061   211.1838 </r>
       <r>    16.1371     5.0457   212.4828 </r>
       <r>    16.3945    10.5709   215.2043 </r>
       <r>    16.6520     8.1190   217.2945 </r>
       <r>    16.9094    10.8289   220.0823 </r>
       <r>    17.1668     8.1175   222.1722 </r>
       <r>    17.4243     7.7546   224.1686 </r>
       <r>    17.6817    11.4701   227.1216 </r>
       <r>    17.9392     9.1262   229.4711 </r>
       <r>    18.1966     9.5067   231.9186 </r>
       <r>    18.4541     7.4964   233.8485 </r>
       <r>    18.7115     6.0610   235.4089 </r>
       <r>    18.9690     6.2621   237.0211 </r>
       <r>    19.2264     8.8858   239.3087 </r>
       <r>    19.4839     9.8412   241.8423 </r>
       <r>    19.7413     6.4402   243.5003 </r>
       <r>    19.9988     7.1456   245.3399 </r>
       <r>    20.2562     6.4010   246.9878 </r>
       <r>    20.5137     8.0320   249.0556 </r>
       <r>    20.7711     8.2921   251.1904 </r>
       <r>    21.0286     9.4021   253.6110 </r>
       <r>    21.2860     4.6568   254.8099 </r>
       <r>    21.5435     2.3064   255.4037 </r>
       <r>    21.8009     1.7250   255.8478 </r>
       <r>    22.0584     0.6301   256.0100 </r>
       <r>    22.3158    -0.0370   256.0004 </r>
       <r>    22.5733    -0.0017   256.0000 </r>
       <r>    22.8307    -0.0000   256.0000 </r>
       <r>    23.0882    -0.0000   256.0000 </r>
       <r>    23.3456    -0.0000   256.0000 </r>
       <r>    23.6030     0.0000   256.0000 </r>
       <r>    23.8605     0.0000   256.0000 </r>
       <r>    24.1179     0.0000   256.0000 </r>
       <r>    24.3754     0.0000   256.0000 </r>
       <r>    24.6328     0.0000   256.0000 </r>
       <r>    24.8903     0.0000   256.0000 </r>
       <r>    25.1477     0.0000   256.0000 </r>
       <r>    25.4052     0.0000   256.0000 </r>
      </set>
     </set>
    </array>
   </total>
  </dos>
 </calculation>
 <structure name="finalpos" >
  <crystal>
   <varray name="basis" >
    <v>       5.65068177       0.00000000       0.00000000 </v>
    <v>       0.00000000       5.65068177       0.00000000 </v>
    <v>       0.00000000       0.00000000       8.12462919 </v>
   </varray>
   <i name="volume">    259.42107139 </i>
   <varray name="rec_basis" >
    <v>       0.17696980       0.00000000       0.00000000 </v>
    <v>       0.00000000       0.17696980       0.00000000 </v>
    <v>       0.00000000       0.00000000       0.12308254 </v>
   </varray>
  </crystal>
  <varray name="positions" >
   <v>       0.00000000       0.00000000       0.00000000 </v>
   <v>       0.00000000       0.00000000       0.50000000 </v>
   <v>       0.00000000       0.50000000       0.00000000 </v>
   <v>       0.00000000       0.50000000       0.50000000 </v>
   <v>       0.50000000       0.00000000       0.00000000 </v>
   <v>       0.50000000       0.00000000       0.50000000 </v>
   <v>       0.50000000       0.50000000       0.00000000 </v>
   <v>       0.50000000       0.50000000       0.50000000 </v>
   <v>       0.25000000       0.25000000       0.24815376 </v>
   <v>       0.25000000       0.25000000       0.75000000 </v>
   <v>       0.25000000       0.75000000       0.25000000 </v>
   <v>       0.25000000       0.75000000       0.75000000 </v>
   <v>       0.75000000       0.25000000       0.25000000 </v>
   <v>       0.75000000       0.25000000       0.75000000 </v>
   <v>       0.75000000       0.75000000       0.25000000 </v>
   <v>       0.75000000       0.75000000       0.75000000 </v>
  </varray>
 </structure>
</modeling>
