  17  17   1   0
  0.1675752E+02  0.5858456E-09  0.5858456E-09  0.8300274E-09  0.5000000E-15
  1.000000000000000E-004
  CAR 
 unknown system                          
     22.67154981    -52.35142518 1000      8.03827391      1.00000000
    -52.351  0.0000E+00  0.0000E+00
    -52.276  0.0000E+00  0.0000E+00
    -52.201  0.0000E+00  0.0000E+00
    -52.126  0.0000E+00  0.0000E+00
    -52.051  0.0000E+00  0.0000E+00
    -51.976  0.0000E+00  0.0000E+00
    -51.901  0.0000E+00  0.0000E+00
    -51.826  0.0000E+00  0.0000E+00
    -51.751  0.0000E+00  0.0000E+00
    -51.676  0.0000E+00  0.0000E+00
    -51.600  0.0000E+00  0.0000E+00
    -51.525  0.0000E+00  0.0000E+00
    -51.450  0.0000E+00  0.0000E+00
    -51.375  0.0000E+00  0.0000E+00
    -51.300  0.0000E+00  0.0000E+00
    -51.225  0.0000E+00  0.0000E+00
    -51.150  0.0000E+00  0.0000E+00
    -51.075  0.0000E+00  0.0000E+00
    -51.000  0.0000E+00  0.0000E+00
    -50.925  0.0000E+00  0.0000E+00
    -50.849  0.0000E+00  0.0000E+00
    -50.774  0.0000E+00  0.0000E+00
    -50.699  0.0000E+00  0.0000E+00
    -50.624  0.0000E+00  0.0000E+00
    -50.549  0.0000E+00  0.0000E+00
    -50.474  0.0000E+00  0.0000E+00
    -50.399  0.0000E+00  0.0000E+00
    -50.324  0.0000E+00  0.0000E+00
    -50.249  0.0000E+00  0.0000E+00
    -50.174  0.0000E+00  0.0000E+00
    -50.098  0.0000E+00  0.0000E+00
    -50.023  0.0000E+00  0.0000E+00
    -49.948  0.0000E+00  0.0000E+00
    -49.873  0.0000E+00  0.0000E+00
    -49.798 -0.1989E-29 -0.1493E-30
    -49.723 -0.4191E-24 -0.3147E-25
    -49.648 -0.2833E-19 -0.2128E-20
    -49.573 -0.6134E-15 -0.4607E-16
    -49.498 -0.4106E-11 -0.3084E-12
    -49.423 -0.8926E-08 -0.6706E-09
    -49.348 -0.6089E-05 -0.4579E-06
    -49.272 -0.1280E-02 -0.9658E-04
    -49.197 -0.7962E-01 -0.6076E-02
    -49.122 -0.1292E+01 -0.1031E+00
    -49.047 -0.2048E+01 -0.2569E+00
    -48.972  0.2795E+02  0.1842E+01
    -48.897  0.6250E+02  0.6536E+01
    -48.822  0.2213E+02  0.8198E+01
    -48.747 -0.4494E+01  0.7860E+01
    -48.672  0.1965E+02  0.9336E+01
    -48.597  0.5760E+02  0.1366E+02
    -48.521  0.3261E+02  0.1611E+02
    -48.446  0.2926E+00  0.1613E+02
    -48.371 -0.1603E+01  0.1601E+02
    -48.296 -0.1533E+00  0.1600E+02
    -48.221 -0.3723E-02  0.1600E+02
    -48.146 -0.2688E-04  0.1600E+02
    -48.071 -0.6006E-07  0.1600E+02
    -47.996 -0.4220E-10  0.1600E+02
    -47.921 -0.1183E-13  0.1600E+02
    -47.846  0.0000E+00  0.1600E+02
    -47.770  0.0000E+00  0.1600E+02
    -47.695  0.0000E+00  0.1600E+02
    -47.620  0.0000E+00  0.1600E+02
    -47.545  0.0000E+00  0.1600E+02
    -47.470  0.0000E+00  0.1600E+02
    -47.395  0.0000E+00  0.1600E+02
    -47.320  0.0000E+00  0.1600E+02
    -47.245  0.0000E+00  0.1600E+02
    -47.170  0.0000E+00  0.1600E+02
    -47.095  0.0000E+00  0.1600E+02
    -47.019  0.0000E+00  0.1600E+02
    -46.944  0.0000E+00  0.1600E+02
    -46.869  0.0000E+00  0.1600E+02
    -46.794  0.0000E+00  0.1600E+02
    -46.719  0.0000E+00  0.1600E+02
    -46.644  0.0000E+00  0.1600E+02
    -46.569  0.0000E+00  0.1600E+02
    -46.494  0.0000E+00  0.1600E+02
    -46.419  0.0000E+00  0.1600E+02
    -46.344  0.0000E+00  0.1600E+02
    -46.268  0.0000E+00  0.1600E+02
    -46.193  0.0000E+00  0.1600E+02
    -46.118  0.0000E+00  0.1600E+02
    -46.043  0.0000E+00  0.1600E+02
    -45.968  0.0000E+00  0.1600E+02
    -45.893  0.0000E+00  0.1600E+02
    -45.818  0.0000E+00  0.1600E+02
    -45.743  0.0000E+00  0.1600E+02
    -45.668  0.0000E+00  0.1600E+02
    -45.593  0.0000E+00  0.1600E+02
    -45.518  0.0000E+00  0.1600E+02
    -45.442  0.0000E+00  0.1600E+02
    -45.367  0.0000E+00  0.1600E+02
    -45.292  0.0000E+00  0.1600E+02
    -45.217  0.0000E+00  0.1600E+02
    -45.142  0.0000E+00  0.1600E+02
    -45.067  0.0000E+00  0.1600E+02
    -44.992  0.0000E+00  0.1600E+02
    -44.917  0.0000E+00  0.1600E+02
    -44.842  0.0000E+00  0.1600E+02
    -44.767  0.0000E+00  0.1600E+02
    -44.691  0.0000E+00  0.1600E+02
    -44.616  0.0000E+00  0.1600E+02
    -44.541  0.0000E+00  0.1600E+02
    -44.466  0.0000E+00  0.1600E+02
    -44.391  0.0000E+00  0.1600E+02
    -44.316  0.0000E+00  0.1600E+02
    -44.241  0.0000E+00  0.1600E+02
    -44.166  0.0000E+00  0.1600E+02
    -44.091  0.0000E+00  0.1600E+02
    -44.016  0.0000E+00  0.1600E+02
    -43.940  0.0000E+00  0.1600E+02
    -43.865  0.0000E+00  0.1600E+02
    -43.790  0.0000E+00  0.1600E+02
    -43.715  0.0000E+00  0.1600E+02
    -43.640  0.0000E+00  0.1600E+02
    -43.565  0.0000E+00  0.1600E+02
    -43.490  0.0000E+00  0.1600E+02
    -43.415  0.0000E+00  0.1600E+02
    -43.340  0.0000E+00  0.1600E+02
    -43.265  0.0000E+00  0.1600E+02
    -43.189  0.0000E+00  0.1600E+02
    -43.114  0.0000E+00  0.1600E+02
    -43.039  0.0000E+00  0.1600E+02
    -42.964  0.0000E+00  0.1600E+02
    -42.889  0.0000E+00  0.1600E+02
    -42.814  0.0000E+00  0.1600E+02
    -42.739  0.0000E+00  0.1600E+02
    -42.664  0.0000E+00  0.1600E+02
    -42.589  0.0000E+00  0.1600E+02
    -42.514  0.0000E+00  0.1600E+02
    -42.438  0.0000E+00  0.1600E+02
    -42.363  0.0000E+00  0.1600E+02
    -42.288  0.0000E+00  0.1600E+02
    -42.213  0.0000E+00  0.1600E+02
    -42.138  0.0000E+00  0.1600E+02
    -42.063  0.0000E+00  0.1600E+02
    -41.988  0.0000E+00  0.1600E+02
    -41.913  0.0000E+00  0.1600E+02
    -41.838  0.0000E+00  0.1600E+02
    -41.763  0.0000E+00  0.1600E+02
    -41.687  0.0000E+00  0.1600E+02
    -41.612  0.0000E+00  0.1600E+02
    -41.537  0.0000E+00  0.1600E+02
    -41.462  0.0000E+00  0.1600E+02
    -41.387  0.0000E+00  0.1600E+02
    -41.312  0.0000E+00  0.1600E+02
    -41.237  0.0000E+00  0.1600E+02
    -41.162  0.0000E+00  0.1600E+02
    -41.087  0.0000E+00  0.1600E+02
    -41.012  0.0000E+00  0.1600E+02
    -40.937  0.0000E+00  0.1600E+02
    -40.861  0.0000E+00  0.1600E+02
    -40.786  0.0000E+00  0.1600E+02
    -40.711  0.0000E+00  0.1600E+02
    -40.636  0.0000E+00  0.1600E+02
    -40.561  0.0000E+00  0.1600E+02
    -40.486  0.0000E+00  0.1600E+02
    -40.411  0.0000E+00  0.1600E+02
    -40.336  0.0000E+00  0.1600E+02
    -40.261  0.0000E+00  0.1600E+02
    -40.186  0.0000E+00  0.1600E+02
    -40.110  0.0000E+00  0.1600E+02
    -40.035  0.0000E+00  0.1600E+02
    -39.960  0.0000E+00  0.1600E+02
    -39.885  0.0000E+00  0.1600E+02
    -39.810  0.0000E+00  0.1600E+02
    -39.735  0.0000E+00  0.1600E+02
    -39.660  0.0000E+00  0.1600E+02
    -39.585  0.0000E+00  0.1600E+02
    -39.510  0.0000E+00  0.1600E+02
    -39.435  0.0000E+00  0.1600E+02
    -39.359  0.0000E+00  0.1600E+02
    -39.284  0.0000E+00  0.1600E+02
    -39.209  0.0000E+00  0.1600E+02
    -39.134  0.0000E+00  0.1600E+02
    -39.059  0.0000E+00  0.1600E+02
    -38.984  0.0000E+00  0.1600E+02
    -38.909  0.0000E+00  0.1600E+02
    -38.834  0.0000E+00  0.1600E+02
    -38.759  0.0000E+00  0.1600E+02
    -38.684  0.0000E+00  0.1600E+02
    -38.608  0.0000E+00  0.1600E+02
    -38.533  0.0000E+00  0.1600E+02
    -38.458  0.0000E+00  0.1600E+02
    -38.383  0.0000E+00  0.1600E+02
    -38.308  0.0000E+00  0.1600E+02
    -38.233  0.0000E+00  0.1600E+02
    -38.158  0.0000E+00  0.1600E+02
    -38.083  0.0000E+00  0.1600E+02
    -38.008  0.0000E+00  0.1600E+02
    -37.933  0.0000E+00  0.1600E+02
    -37.857  0.0000E+00  0.1600E+02
    -37.782  0.0000E+00  0.1600E+02
    -37.707  0.0000E+00  0.1600E+02
    -37.632  0.0000E+00  0.1600E+02
    -37.557  0.0000E+00  0.1600E+02
    -37.482  0.0000E+00  0.1600E+02
    -37.407  0.0000E+00  0.1600E+02
    -37.332  0.0000E+00  0.1600E+02
    -37.257  0.0000E+00  0.1600E+02
    -37.182  0.0000E+00  0.1600E+02
    -37.107  0.0000E+00  0.1600E+02
    -37.031  0.0000E+00  0.1600E+02
    -36.956  0.0000E+00  0.1600E+02
    -36.881  0.0000E+00  0.1600E+02
    -36.806  0.0000E+00  0.1600E+02
    -36.731  0.0000E+00  0.1600E+02
    -36.656  0.0000E+00  0.1600E+02
    -36.581  0.0000E+00  0.1600E+02
    -36.506  0.0000E+00  0.1600E+02
    -36.431  0.0000E+00  0.1600E+02
    -36.356  0.0000E+00  0.1600E+02
    -36.280  0.0000E+00  0.1600E+02
    -36.205  0.0000E+00  0.1600E+02
    -36.130  0.0000E+00  0.1600E+02
    -36.055  0.0000E+00  0.1600E+02
    -35.980  0.0000E+00  0.1600E+02
    -35.905  0.0000E+00  0.1600E+02
    -35.830  0.0000E+00  0.1600E+02
    -35.755  0.0000E+00  0.1600E+02
    -35.680  0.0000E+00  0.1600E+02
    -35.605  0.0000E+00  0.1600E+02
    -35.529  0.0000E+00  0.1600E+02
    -35.454  0.0000E+00  0.1600E+02
    -35.379  0.0000E+00  0.1600E+02
    -35.304  0.0000E+00  0.1600E+02
    -35.229  0.0000E+00  0.1600E+02
    -35.154  0.0000E+00  0.1600E+02
    -35.079  0.0000E+00  0.1600E+02
    -35.004  0.0000E+00  0.1600E+02
    -34.929  0.0000E+00  0.1600E+02
    -34.854  0.0000E+00  0.1600E+02
    -34.778  0.0000E+00  0.1600E+02
    -34.703  0.0000E+00  0.1600E+02
    -34.628  0.0000E+00  0.1600E+02
    -34.553  0.0000E+00  0.1600E+02
    -34.478  0.0000E+00  0.1600E+02
    -34.403  0.0000E+00  0.1600E+02
    -34.328  0.0000E+00  0.1600E+02
    -34.253  0.0000E+00  0.1600E+02
    -34.178  0.0000E+00  0.1600E+02
    -34.103  0.0000E+00  0.1600E+02
    -34.027  0.0000E+00  0.1600E+02
    -33.952  0.0000E+00  0.1600E+02
    -33.877  0.0000E+00  0.1600E+02
    -33.802  0.0000E+00  0.1600E+02
    -33.727  0.0000E+00  0.1600E+02
    -33.652  0.0000E+00  0.1600E+02
    -33.577  0.0000E+00  0.1600E+02
    -33.502  0.0000E+00  0.1600E+02
    -33.427  0.0000E+00  0.1600E+02
    -33.352  0.0000E+00  0.1600E+02
    -33.277  0.0000E+00  0.1600E+02
    -33.201  0.0000E+00  0.1600E+02
    -33.126  0.0000E+00  0.1600E+02
    -33.051  0.0000E+00  0.1600E+02
    -32.976  0.0000E+00  0.1600E+02
    -32.901  0.0000E+00  0.1600E+02
    -32.826  0.0000E+00  0.1600E+02
    -32.751  0.0000E+00  0.1600E+02
    -32.676  0.0000E+00  0.1600E+02
    -32.601  0.0000E+00  0.1600E+02
    -32.526  0.0000E+00  0.1600E+02
    -32.450  0.0000E+00  0.1600E+02
    -32.375  0.0000E+00  0.1600E+02
    -32.300  0.0000E+00  0.1600E+02
    -32.225  0.0000E+00  0.1600E+02
    -32.150  0.0000E+00  0.1600E+02
    -32.075  0.0000E+00  0.1600E+02
    -32.000  0.0000E+00  0.1600E+02
    -31.925  0.0000E+00  0.1600E+02
    -31.850  0.0000E+00  0.1600E+02
    -31.775  0.0000E+00  0.1600E+02
    -31.699  0.0000E+00  0.1600E+02
    -31.624  0.0000E+00  0.1600E+02
    -31.549  0.0000E+00  0.1600E+02
    -31.474  0.0000E+00  0.1600E+02
    -31.399  0.0000E+00  0.1600E+02
    -31.324  0.0000E+00  0.1600E+02
    -31.249  0.0000E+00  0.1600E+02
    -31.174  0.0000E+00  0.1600E+02
    -31.099  0.0000E+00  0.1600E+02
    -31.024  0.0000E+00  0.1600E+02
    -30.948  0.0000E+00  0.1600E+02
    -30.873  0.0000E+00  0.1600E+02
    -30.798  0.0000E+00  0.1600E+02
    -30.723  0.0000E+00  0.1600E+02
    -30.648  0.0000E+00  0.1600E+02
    -30.573  0.0000E+00  0.1600E+02
    -30.498  0.0000E+00  0.1600E+02
    -30.423  0.0000E+00  0.1600E+02
    -30.348  0.0000E+00  0.1600E+02
    -30.273  0.0000E+00  0.1600E+02
    -30.197  0.0000E+00  0.1600E+02
    -30.122  0.0000E+00  0.1600E+02
    -30.047  0.0000E+00  0.1600E+02
    -29.972  0.0000E+00  0.1600E+02
    -29.897  0.0000E+00  0.1600E+02
    -29.822  0.0000E+00  0.1600E+02
    -29.747  0.0000E+00  0.1600E+02
    -29.672  0.0000E+00  0.1600E+02
    -29.597  0.0000E+00  0.1600E+02
    -29.522  0.0000E+00  0.1600E+02
    -29.447  0.0000E+00  0.1600E+02
    -29.371  0.0000E+00  0.1600E+02
    -29.296  0.0000E+00  0.1600E+02
    -29.221  0.0000E+00  0.1600E+02
    -29.146  0.0000E+00  0.1600E+02
    -29.071  0.0000E+00  0.1600E+02
    -28.996  0.0000E+00  0.1600E+02
    -28.921  0.0000E+00  0.1600E+02
    -28.846  0.0000E+00  0.1600E+02
    -28.771  0.0000E+00  0.1600E+02
    -28.696  0.0000E+00  0.1600E+02
    -28.620  0.0000E+00  0.1600E+02
    -28.545  0.0000E+00  0.1600E+02
    -28.470  0.0000E+00  0.1600E+02
    -28.395  0.0000E+00  0.1600E+02
    -28.320  0.0000E+00  0.1600E+02
    -28.245  0.0000E+00  0.1600E+02
    -28.170  0.0000E+00  0.1600E+02
    -28.095  0.0000E+00  0.1600E+02
    -28.020  0.0000E+00  0.1600E+02
    -27.945  0.0000E+00  0.1600E+02
    -27.869  0.0000E+00  0.1600E+02
    -27.794  0.0000E+00  0.1600E+02
    -27.719  0.0000E+00  0.1600E+02
    -27.644  0.0000E+00  0.1600E+02
    -27.569  0.0000E+00  0.1600E+02
    -27.494  0.0000E+00  0.1600E+02
    -27.419  0.0000E+00  0.1600E+02
    -27.344  0.0000E+00  0.1600E+02
    -27.269  0.0000E+00  0.1600E+02
    -27.194  0.0000E+00  0.1600E+02
    -27.118  0.0000E+00  0.1600E+02
    -27.043  0.0000E+00  0.1600E+02
    -26.968  0.0000E+00  0.1600E+02
    -26.893  0.0000E+00  0.1600E+02
    -26.818  0.0000E+00  0.1600E+02
    -26.743  0.0000E+00  0.1600E+02
    -26.668  0.0000E+00  0.1600E+02
    -26.593  0.0000E+00  0.1600E+02
    -26.518  0.0000E+00  0.1600E+02
    -26.443  0.0000E+00  0.1600E+02
    -26.367  0.0000E+00  0.1600E+02
    -26.292  0.0000E+00  0.1600E+02
    -26.217  0.0000E+00  0.1600E+02
    -26.142 -0.6930E-26  0.1600E+02
    -26.067 -0.6846E-21  0.1600E+02
    -25.992 -0.2173E-16  0.1600E+02
    -25.917 -0.2144E-12  0.1600E+02
    -25.842 -0.6906E-09  0.1600E+02
    -25.767 -0.7019E-06  0.1600E+02
    -25.692 -0.2223E-03  0.1600E+02
    -25.617 -0.2129E-01  0.1600E+02
    -25.541 -0.5699E+00  0.1596E+02
    -25.466 -0.2999E+01  0.1573E+02
    -25.391  0.1054E+02  0.1652E+02
    -25.316  0.5424E+02  0.2060E+02
    -25.241  0.6246E+02  0.2529E+02
    -25.166  0.9057E+02  0.3209E+02
    -25.091  0.9095E+02  0.3892E+02
    -25.016  0.5522E+02  0.4307E+02
    -24.941  0.5442E+02  0.4715E+02
    -24.866  0.6857E+02  0.5230E+02
    -24.790  0.9737E+02  0.5961E+02
    -24.715  0.5592E+02  0.6381E+02
    -24.640  0.5638E+01  0.6424E+02
    -24.565 -0.2639E+01  0.6404E+02
    -24.490 -0.4904E+00  0.6400E+02
    -24.415 -0.2202E-01  0.6400E+02
    -24.340 -0.2955E-03  0.6400E+02
    -24.265 -0.1229E-05  0.6400E+02
    -24.190 -0.1607E-08  0.6400E+02
    -24.115 -0.6603E-12  0.6400E+02
    -24.039  0.0000E+00  0.6400E+02
    -23.964  0.0000E+00  0.6400E+02
    -23.889  0.0000E+00  0.6400E+02
    -23.814  0.0000E+00  0.6400E+02
    -23.739  0.0000E+00  0.6400E+02
    -23.664  0.0000E+00  0.6400E+02
    -23.589  0.0000E+00  0.6400E+02
    -23.514  0.0000E+00  0.6400E+02
    -23.439  0.0000E+00  0.6400E+02
    -23.364  0.0000E+00  0.6400E+02
    -23.288  0.0000E+00  0.6400E+02
    -23.213  0.0000E+00  0.6400E+02
    -23.138  0.0000E+00  0.6400E+02
    -23.063  0.0000E+00  0.6400E+02
    -22.988  0.0000E+00  0.6400E+02
    -22.913  0.0000E+00  0.6400E+02
    -22.838  0.0000E+00  0.6400E+02
    -22.763  0.0000E+00  0.6400E+02
    -22.688  0.0000E+00  0.6400E+02
    -22.613  0.0000E+00  0.6400E+02
    -22.537  0.0000E+00  0.6400E+02
    -22.462  0.0000E+00  0.6400E+02
    -22.387  0.0000E+00  0.6400E+02
    -22.312  0.0000E+00  0.6400E+02
    -22.237  0.0000E+00  0.6400E+02
    -22.162  0.0000E+00  0.6400E+02
    -22.087  0.0000E+00  0.6400E+02
    -22.012  0.0000E+00  0.6400E+02
    -21.937  0.0000E+00  0.6400E+02
    -21.862  0.0000E+00  0.6400E+02
    -21.787  0.0000E+00  0.6400E+02
    -21.711  0.0000E+00  0.6400E+02
    -21.636  0.0000E+00  0.6400E+02
    -21.561  0.0000E+00  0.6400E+02
    -21.486  0.0000E+00  0.6400E+02
    -21.411  0.0000E+00  0.6400E+02
    -21.336  0.0000E+00  0.6400E+02
    -21.261  0.0000E+00  0.6400E+02
    -21.186  0.0000E+00  0.6400E+02
    -21.111  0.0000E+00  0.6400E+02
    -21.036  0.0000E+00  0.6400E+02
    -20.960  0.0000E+00  0.6400E+02
    -20.885  0.0000E+00  0.6400E+02
    -20.810  0.0000E+00  0.6400E+02
    -20.735  0.0000E+00  0.6400E+02
    -20.660  0.0000E+00  0.6400E+02
    -20.585  0.0000E+00  0.6400E+02
    -20.510  0.0000E+00  0.6400E+02
    -20.435  0.0000E+00  0.6400E+02
    -20.360  0.0000E+00  0.6400E+02
    -20.285  0.0000E+00  0.6400E+02
    -20.209  0.0000E+00  0.6400E+02
    -20.134  0.0000E+00  0.6400E+02
    -20.059  0.0000E+00  0.6400E+02
    -19.984  0.0000E+00  0.6400E+02
    -19.909  0.0000E+00  0.6400E+02
    -19.834  0.0000E+00  0.6400E+02
    -19.759  0.0000E+00  0.6400E+02
    -19.684  0.0000E+00  0.6400E+02
    -19.609  0.0000E+00  0.6400E+02
    -19.534  0.0000E+00  0.6400E+02
    -19.458  0.0000E+00  0.6400E+02
    -19.383  0.0000E+00  0.6400E+02
    -19.308  0.0000E+00  0.6400E+02
    -19.233  0.0000E+00  0.6400E+02
    -19.158  0.0000E+00  0.6400E+02
    -19.083  0.0000E+00  0.6400E+02
    -19.008  0.0000E+00  0.6400E+02
    -18.933  0.0000E+00  0.6400E+02
    -18.858  0.0000E+00  0.6400E+02
    -18.783  0.0000E+00  0.6400E+02
    -18.707  0.0000E+00  0.6400E+02
    -18.632  0.0000E+00  0.6400E+02
    -18.557  0.0000E+00  0.6400E+02
    -18.482  0.0000E+00  0.6400E+02
    -18.407  0.0000E+00  0.6400E+02
    -18.332  0.0000E+00  0.6400E+02
    -18.257  0.0000E+00  0.6400E+02
    -18.182  0.0000E+00  0.6400E+02
    -18.107  0.0000E+00  0.6400E+02
    -18.032  0.0000E+00  0.6400E+02
    -17.957  0.0000E+00  0.6400E+02
    -17.881  0.0000E+00  0.6400E+02
    -17.806  0.0000E+00  0.6400E+02
    -17.731  0.0000E+00  0.6400E+02
    -17.656  0.0000E+00  0.6400E+02
    -17.581  0.0000E+00  0.6400E+02
    -17.506  0.0000E+00  0.6400E+02
    -17.431  0.0000E+00  0.6400E+02
    -17.356  0.0000E+00  0.6400E+02
    -17.281  0.0000E+00  0.6400E+02
    -17.206  0.0000E+00  0.6400E+02
    -17.130  0.0000E+00  0.6400E+02
    -17.055  0.0000E+00  0.6400E+02
    -16.980  0.0000E+00  0.6400E+02
    -16.905  0.0000E+00  0.6400E+02
    -16.830  0.0000E+00  0.6400E+02
    -16.755  0.0000E+00  0.6400E+02
    -16.680  0.0000E+00  0.6400E+02
    -16.605  0.0000E+00  0.6400E+02
    -16.530  0.0000E+00  0.6400E+02
    -16.455  0.0000E+00  0.6400E+02
    -16.379  0.0000E+00  0.6400E+02
    -16.304  0.0000E+00  0.6400E+02
    -16.229  0.0000E+00  0.6400E+02
    -16.154  0.0000E+00  0.6400E+02
    -16.079  0.0000E+00  0.6400E+02
    -16.004  0.0000E+00  0.6400E+02
    -15.929  0.0000E+00  0.6400E+02
    -15.854  0.0000E+00  0.6400E+02
    -15.779  0.0000E+00  0.6400E+02
    -15.704  0.0000E+00  0.6400E+02
    -15.628  0.0000E+00  0.6400E+02
    -15.553  0.0000E+00  0.6400E+02
    -15.478  0.0000E+00  0.6400E+02
    -15.403  0.0000E+00  0.6400E+02
    -15.328  0.0000E+00  0.6400E+02
    -15.253  0.0000E+00  0.6400E+02
    -15.178  0.0000E+00  0.6400E+02
    -15.103  0.0000E+00  0.6400E+02
    -15.028  0.0000E+00  0.6400E+02
    -14.953  0.0000E+00  0.6400E+02
    -14.877  0.0000E+00  0.6400E+02
    -14.802  0.0000E+00  0.6400E+02
    -14.727  0.0000E+00  0.6400E+02
    -14.652  0.0000E+00  0.6400E+02
    -14.577  0.0000E+00  0.6400E+02
    -14.502  0.0000E+00  0.6400E+02
    -14.427  0.0000E+00  0.6400E+02
    -14.352  0.0000E+00  0.6400E+02
    -14.277  0.0000E+00  0.6400E+02
    -14.202  0.0000E+00  0.6400E+02
    -14.127  0.0000E+00  0.6400E+02
    -14.051  0.0000E+00  0.6400E+02
    -13.976  0.0000E+00  0.6400E+02
    -13.901  0.0000E+00  0.6400E+02
    -13.826  0.0000E+00  0.6400E+02
    -13.751  0.0000E+00  0.6400E+02
    -13.676  0.0000E+00  0.6400E+02
    -13.601  0.0000E+00  0.6400E+02
    -13.526  0.0000E+00  0.6400E+02
    -13.451  0.0000E+00  0.6400E+02
    -13.376  0.0000E+00  0.6400E+02
    -13.300  0.0000E+00  0.6400E+02
    -13.225  0.0000E+00  0.6400E+02
    -13.150  0.0000E+00  0.6400E+02
    -13.075  0.0000E+00  0.6400E+02
    -13.000  0.0000E+00  0.6400E+02
    -12.925  0.0000E+00  0.6400E+02
    -12.850  0.0000E+00  0.6400E+02
    -12.775  0.0000E+00  0.6400E+02
    -12.700  0.0000E+00  0.6400E+02
    -12.625  0.0000E+00  0.6400E+02
    -12.549  0.0000E+00  0.6400E+02
    -12.474  0.0000E+00  0.6400E+02
    -12.399  0.0000E+00  0.6400E+02
    -12.324  0.0000E+00  0.6400E+02
    -12.249  0.0000E+00  0.6400E+02
    -12.174  0.0000E+00  0.6400E+02
    -12.099  0.0000E+00  0.6400E+02
    -12.024  0.0000E+00  0.6400E+02
    -11.949  0.0000E+00  0.6400E+02
    -11.874  0.0000E+00  0.6400E+02
    -11.798  0.0000E+00  0.6400E+02
    -11.723  0.0000E+00  0.6400E+02
    -11.648  0.0000E+00  0.6400E+02
    -11.573  0.0000E+00  0.6400E+02
    -11.498  0.0000E+00  0.6400E+02
    -11.423  0.0000E+00  0.6400E+02
    -11.348  0.0000E+00  0.6400E+02
    -11.273  0.0000E+00  0.6400E+02
    -11.198  0.0000E+00  0.6400E+02
    -11.123  0.0000E+00  0.6400E+02
    -11.047  0.0000E+00  0.6400E+02
    -10.972  0.0000E+00  0.6400E+02
    -10.897  0.0000E+00  0.6400E+02
    -10.822  0.0000E+00  0.6400E+02
    -10.747  0.0000E+00  0.6400E+02
    -10.672  0.0000E+00  0.6400E+02
    -10.597  0.0000E+00  0.6400E+02
    -10.522  0.0000E+00  0.6400E+02
    -10.447  0.0000E+00  0.6400E+02
    -10.372  0.0000E+00  0.6400E+02
    -10.297  0.0000E+00  0.6400E+02
    -10.221  0.0000E+00  0.6400E+02
    -10.146  0.0000E+00  0.6400E+02
    -10.071  0.0000E+00  0.6400E+02
     -9.996  0.0000E+00  0.6400E+02
     -9.921  0.0000E+00  0.6400E+02
     -9.846  0.0000E+00  0.6400E+02
     -9.771  0.0000E+00  0.6400E+02
     -9.696  0.0000E+00  0.6400E+02
     -9.621  0.0000E+00  0.6400E+02
     -9.546  0.0000E+00  0.6400E+02
     -9.470  0.0000E+00  0.6400E+02
     -9.395  0.0000E+00  0.6400E+02
     -9.320  0.0000E+00  0.6400E+02
     -9.245  0.0000E+00  0.6400E+02
     -9.170  0.0000E+00  0.6400E+02
     -9.095  0.0000E+00  0.6400E+02
     -9.020  0.0000E+00  0.6400E+02
     -8.945  0.0000E+00  0.6400E+02
     -8.870  0.0000E+00  0.6400E+02
     -8.795  0.0000E+00  0.6400E+02
     -8.719  0.0000E+00  0.6400E+02
     -8.644  0.0000E+00  0.6400E+02
     -8.569  0.0000E+00  0.6400E+02
     -8.494  0.0000E+00  0.6400E+02
     -8.419  0.0000E+00  0.6400E+02
     -8.344  0.0000E+00  0.6400E+02
     -8.269 -0.6858E-29  0.6400E+02
     -8.194 -0.1145E-23  0.6400E+02
     -8.119 -0.6127E-19  0.6400E+02
     -8.044 -0.1049E-14  0.6400E+02
     -7.968 -0.5539E-11  0.6400E+02
     -7.893 -0.9490E-08  0.6400E+02
     -7.818 -0.5087E-05  0.6400E+02
     -7.743 -0.8357E-03  0.6400E+02
     -7.668 -0.4013E-01  0.6400E+02
     -7.593 -0.4847E+00  0.6396E+02
     -7.518 -0.2820E+00  0.6394E+02
     -7.443  0.7924E+01  0.6453E+02
     -7.368  0.2002E+02  0.6604E+02
     -7.293  0.4121E+02  0.6913E+02
     -7.217  0.5024E+02  0.7291E+02
     -7.142  0.1712E+02  0.7419E+02
     -7.067 -0.1605E+01  0.7407E+02
     -6.992 -0.8790E+00  0.7400E+02
     -6.917 -0.5781E-01  0.7400E+02
     -6.842 -0.1019E-02  0.7400E+02
     -6.767 -0.5367E-05  0.7400E+02
     -6.692 -0.8739E-08  0.7400E+02
     -6.617 -0.4467E-11  0.7400E+02
     -6.542  0.0000E+00  0.7400E+02
     -6.467  0.0000E+00  0.7400E+02
     -6.391  0.0000E+00  0.7400E+02
     -6.316  0.0000E+00  0.7400E+02
     -6.241  0.0000E+00  0.7400E+02
     -6.166  0.0000E+00  0.7400E+02
     -6.091  0.0000E+00  0.7400E+02
     -6.016  0.0000E+00  0.7400E+02
     -5.941  0.0000E+00  0.7400E+02
     -5.866  0.0000E+00  0.7400E+02
     -5.791  0.0000E+00  0.7400E+02
     -5.716  0.0000E+00  0.7400E+02
     -5.640  0.0000E+00  0.7400E+02
     -5.565  0.0000E+00  0.7400E+02
     -5.490  0.0000E+00  0.7400E+02
     -5.415  0.0000E+00  0.7400E+02
     -5.340  0.0000E+00  0.7400E+02
     -5.265  0.0000E+00  0.7400E+02
     -5.190  0.0000E+00  0.7400E+02
     -5.115  0.0000E+00  0.7400E+02
     -5.040  0.0000E+00  0.7400E+02
     -4.965  0.0000E+00  0.7400E+02
     -4.889  0.0000E+00  0.7400E+02
     -4.814  0.0000E+00  0.7400E+02
     -4.739  0.0000E+00  0.7400E+02
     -4.664  0.0000E+00  0.7400E+02
     -4.589  0.0000E+00  0.7400E+02
     -4.514  0.0000E+00  0.7400E+02
     -4.439  0.0000E+00  0.7400E+02
     -4.364  0.0000E+00  0.7400E+02
     -4.289  0.0000E+00  0.7400E+02
     -4.214  0.0000E+00  0.7400E+02
     -4.138  0.0000E+00  0.7400E+02
     -4.063  0.0000E+00  0.7400E+02
     -3.988  0.0000E+00  0.7400E+02
     -3.913  0.0000E+00  0.7400E+02
     -3.838  0.0000E+00  0.7400E+02
     -3.763  0.0000E+00  0.7400E+02
     -3.688  0.0000E+00  0.7400E+02
     -3.613  0.0000E+00  0.7400E+02
     -3.538  0.0000E+00  0.7400E+02
     -3.463  0.0000E+00  0.7400E+02
     -3.387  0.0000E+00  0.7400E+02
     -3.312  0.0000E+00  0.7400E+02
     -3.237  0.0000E+00  0.7400E+02
     -3.162  0.0000E+00  0.7400E+02
     -3.087  0.0000E+00  0.7400E+02
     -3.012  0.0000E+00  0.7400E+02
     -2.937  0.0000E+00  0.7400E+02
     -2.862  0.0000E+00  0.7400E+02
     -2.787  0.0000E+00  0.7400E+02
     -2.712  0.0000E+00  0.7400E+02
     -2.637 -0.1199E-27  0.7400E+02
     -2.561 -0.1178E-22  0.7400E+02
     -2.486 -0.3705E-18  0.7400E+02
     -2.411 -0.3643E-14  0.7400E+02
     -2.336 -0.1147E-10  0.7400E+02
     -2.261 -0.1144E-07  0.7400E+02
     -2.186 -0.3545E-05  0.7400E+02
     -2.111 -0.3308E-03  0.7400E+02
     -2.036 -0.8578E-02  0.7400E+02
     -1.961 -0.4314E-01  0.7400E+02
     -1.886  0.1550E+00  0.7401E+02
     -1.810  0.8110E+00  0.7407E+02
     -1.735  0.1062E+01  0.7415E+02
     -1.660  0.8338E+00  0.7421E+02
     -1.585  0.5613E-01  0.7422E+02
     -1.510  0.1898E-02  0.7422E+02
     -1.435  0.2495E+01  0.7440E+02
     -1.360  0.5135E+01  0.7479E+02
     -1.285  0.3799E+01  0.7507E+02
     -1.210  0.4610E+00  0.7511E+02
     -1.135  0.5573E+00  0.7515E+02
     -1.059  0.4623E+01  0.7550E+02
     -0.984  0.5475E+01  0.7591E+02
     -0.909  0.1512E+01  0.7602E+02
     -0.834 -0.2110E+00  0.7601E+02
     -0.759 -0.7867E-01  0.7600E+02
     -0.684 -0.4504E-02  0.7600E+02
     -0.609 -0.7295E-04  0.7600E+02
     -0.534 -0.2515E-03  0.7600E+02
     -0.459 -0.7133E-02  0.7600E+02
     -0.384 -0.4031E-01  0.7600E+02
     -0.308  0.1431E+00  0.7601E+02
     -0.233  0.7853E+00  0.7607E+02
     -0.158  0.5598E+00  0.7611E+02
     -0.083 -0.1558E+00  0.7610E+02
     -0.008  0.7888E+00  0.7616E+02
      0.067  0.3248E+01  0.7640E+02
      0.142  0.4592E+01  0.7674E+02
      0.217  0.9470E+01  0.7746E+02
      0.292  0.8638E+01  0.7810E+02
      0.367  0.3888E+01  0.7840E+02
      0.443  0.8255E+00  0.7846E+02
      0.518 -0.4692E+00  0.7842E+02
      0.593  0.1138E+01  0.7851E+02
      0.668  0.5902E+01  0.7895E+02
      0.743  0.4896E+01  0.7932E+02
      0.818  0.4228E+00  0.7935E+02
      0.893 -0.4088E+00  0.7932E+02
      0.968  0.7560E+00  0.7938E+02
      1.043  0.3261E+01  0.7962E+02
      1.118  0.1958E+01  0.7977E+02
      1.194  0.1029E+01  0.7985E+02
      1.269  0.3437E+01  0.8010E+02
      1.344  0.4005E+01  0.8041E+02
      1.419  0.3130E+01  0.8064E+02
      1.494  0.2319E+01  0.8081E+02
      1.569  0.3935E+01  0.8111E+02
      1.644  0.2777E+01  0.8132E+02
      1.719  0.2031E+01  0.8147E+02
      1.794  0.3142E+01  0.8171E+02
      1.869  0.8058E+00  0.8177E+02
      1.944  0.2303E+01  0.8194E+02
      2.020  0.7441E+01  0.8250E+02
      2.095  0.6397E+01  0.8298E+02
      2.170  0.2917E+01  0.8320E+02
      2.245  0.7653E+01  0.8377E+02
      2.320  0.8510E+01  0.8441E+02
      2.395  0.4516E+01  0.8475E+02
      2.470  0.1941E+01  0.8490E+02
      2.545 -0.5489E-01  0.8489E+02
      2.620  0.2777E-01  0.8490E+02
      2.695  0.8509E+00  0.8496E+02
      2.771  0.4539E+01  0.8530E+02
      2.846  0.6544E+01  0.8579E+02
      2.921  0.1395E+01  0.8590E+02
      2.996  0.1002E+01  0.8597E+02
      3.071  0.5029E+01  0.8635E+02
      3.146  0.8343E+01  0.8698E+02
      3.221  0.1122E+02  0.8782E+02
      3.296  0.7278E+01  0.8836E+02
      3.371  0.2321E+01  0.8854E+02
      3.446  0.2510E+00  0.8856E+02
      3.522  0.4920E+01  0.8893E+02
      3.597  0.7160E+01  0.8947E+02
      3.672  0.3307E+01  0.8971E+02
      3.747  0.2957E+01  0.8994E+02
      3.822  0.6568E+00  0.8999E+02
      3.897  0.1835E+01  0.9012E+02
      3.972  0.7175E+01  0.9066E+02
      4.047  0.5518E+01  0.9108E+02
      4.122  0.1341E+01  0.9118E+02
      4.197  0.1418E+01  0.9128E+02
      4.273  0.6161E+01  0.9175E+02
      4.348  0.8394E+01  0.9238E+02
      4.423  0.6699E+01  0.9288E+02
      4.498  0.8403E+01  0.9351E+02
      4.573  0.7851E+01  0.9410E+02
      4.648  0.5240E+01  0.9449E+02
      4.723  0.3262E+01  0.9474E+02
      4.798  0.6794E+01  0.9525E+02
      4.873  0.1149E+02  0.9611E+02
      4.948  0.6350E+01  0.9659E+02
      5.024  0.2620E+01  0.9679E+02
      5.099  0.5050E+01  0.9716E+02
      5.174  0.9674E+01  0.9789E+02
      5.249  0.1234E+02  0.9882E+02
      5.324  0.6042E+01  0.9927E+02
      5.399  0.2394E+01  0.9945E+02
      5.474  0.1137E+02  0.1003E+03
      5.549  0.1143E+02  0.1012E+03
      5.624  0.3867E+01  0.1015E+03
      5.699  0.7697E+01  0.1020E+03
      5.774  0.8272E+01  0.1027E+03
      5.850  0.5069E+01  0.1030E+03
      5.925  0.9499E+01  0.1037E+03
      6.000  0.1024E+02  0.1045E+03
      6.075  0.1085E+02  0.1053E+03
      6.150  0.1449E+02  0.1064E+03
      6.225  0.1567E+02  0.1076E+03
      6.300  0.1896E+02  0.1090E+03
      6.375  0.2555E+02  0.1109E+03
      6.450  0.2546E+02  0.1129E+03
      6.525  0.1274E+02  0.1138E+03
      6.601  0.5132E+01  0.1142E+03
      6.676  0.1606E+02  0.1154E+03
      6.751  0.1974E+02  0.1169E+03
      6.826  0.9482E+01  0.1176E+03
      6.901  0.5932E+01  0.1180E+03
      6.976  0.8493E+01  0.1187E+03
      7.051  0.1041E+02  0.1195E+03
      7.126  0.7565E+01  0.1200E+03
      7.201  0.4115E+01  0.1203E+03
      7.276  0.4147E+01  0.1206E+03
      7.352  0.9686E+01  0.1214E+03
      7.427  0.2006E+02  0.1229E+03
      7.502  0.2285E+02  0.1246E+03
      7.577  0.1713E+02  0.1259E+03
      7.652  0.1562E+02  0.1271E+03
      7.727  0.1679E+02  0.1283E+03
      7.802  0.1412E+02  0.1294E+03
      7.877  0.1428E+02  0.1305E+03
      7.952  0.1811E+02  0.1318E+03
      8.027  0.1399E+02  0.1329E+03
      8.103  0.1513E+02  0.1340E+03
      8.178  0.2174E+02  0.1356E+03
      8.253  0.1573E+02  0.1368E+03
      8.328  0.7893E+01  0.1374E+03
      8.403  0.9039E+01  0.1381E+03
      8.478  0.1357E+02  0.1391E+03
      8.553  0.1984E+02  0.1406E+03
      8.628  0.1620E+02  0.1418E+03
      8.703  0.6271E+01  0.1423E+03
      8.778  0.8127E+01  0.1429E+03
      8.854  0.1536E+02  0.1440E+03
      8.929  0.1787E+02  0.1454E+03
      9.004  0.1777E+02  0.1467E+03
      9.079  0.1946E+02  0.1482E+03
      9.154  0.1664E+02  0.1494E+03
      9.229  0.2164E+02  0.1511E+03
      9.304  0.2827E+02  0.1532E+03
      9.379  0.2766E+02  0.1553E+03
      9.454  0.3281E+02  0.1577E+03
      9.529  0.3623E+02  0.1604E+03
      9.604  0.3257E+02  0.1629E+03