   17   17    1    1
  0.1675752E+02  0.5858456E-09  0.5858456E-09  0.8300274E-09  0.5000000E-15
  1.000000000000000E-004
  CAR 
 unknown system                          
    133      6    128
 
  0.1276756E-14  0.1276756E-14  0.1276756E-14  0.5555556E-01
      1        -48.941290   1.000000
      2        -48.940893   1.000000
      3        -48.936960   1.000000
      4        -48.936636   1.000000
      5        -48.646707   1.000000
      6        -48.643370   1.000000
      7        -48.601576   1.000000
      8        -48.600932   1.000000
      9        -25.338142   1.000000
     10        -25.332341   1.000000
     11        -25.327474   1.000000
     12        -25.323195   1.000000
     13        -25.226705   1.000000
     14        -25.226705   1.000000
     15        -25.224421   1.000000
     16        -25.224421   1.000000
     17        -25.170766   1.000000
     18        -25.170766   1.000000
     19        -25.169485   1.000000
     20        -25.169485   1.000000
     21        -25.042186   1.000000
     22        -24.992996   1.000000
     23        -24.989381   1.000000
     24        -24.974322   1.000000
     25        -24.831413   1.000000
     26        -24.831413   1.000000
     27        -24.827530   1.000000
     28        -24.827530   1.000000
     29        -24.755623   1.000000
     30        -24.755623   1.000000
     31        -24.754543   1.000000
     32        -24.754543   1.000000
     33         -7.423697   1.000000
     34         -7.323470   1.000000
     35         -7.295162   1.000000
     36         -7.244073   1.000000
     37         -7.244073   1.000000
     38         -1.827128   1.000000
     39          0.108915   1.000000
     40          1.484557   1.000000
     41          2.378452   1.000000
     42          2.378452   1.000000
     43          2.658693   1.000000
     44          3.198420   1.000000
     45          3.198420   1.000000
     46          3.532695   1.000000
     47          4.467840   1.000000
     48          4.867262   1.000000
     49          4.979917   1.000000
     50          5.265567   1.000000
     51          5.265567   1.000000
     52          5.732844   1.000000
     53          6.072222   1.000000
     54          6.189765   1.000000
     55          6.378439   1.000000
     56          6.378439   1.000000
     57          6.669294   1.000000
     58          6.680608   1.000000
     59          6.680608   1.000000
     60          6.734362   1.000000
     61          6.734362   1.000000
     62          6.790279   1.000000
     63          6.872161   1.000000
     64          7.271190   1.000000
     65          7.455510   1.000000
     66          7.693734   1.000006
     67          7.876469   1.022233
     68          7.925211   1.033912
     69          7.925211   1.033912
     70          8.390523  -0.000004
     71          8.508100  -0.000000
     72          8.806122  -0.000000
     73          9.168023  -0.000000
     74          9.222276  -0.000000
     75          9.222276  -0.000000
     76          9.427042  -0.000000
     77          9.490744  -0.000000
     78          9.531055  -0.000000
     79          9.560646  -0.000000
     80          9.568786  -0.000000
     81          9.584171  -0.000000
     82          9.584171  -0.000000
     83          9.723695  -0.000000
     84          9.723695  -0.000000
     85          9.899835  -0.000000
     86         10.039708   0.000000
     87         10.039708   0.000000
     88         10.648626   0.000000
     89         10.715133   0.000000
     90         10.715133   0.000000
     91         10.917196   0.000000
     92         11.359416   0.000000
     93         11.376877   0.000000
     94         11.446406   0.000000
     95         11.619400   0.000000
     96         11.619400   0.000000
     97         11.723063   0.000000
     98         12.095621   0.000000
     99         12.095621   0.000000
    100         12.123717   0.000000
    101         12.308514   0.000000
    102         12.358993   0.000000
    103         12.854724   0.000000
    104         13.160705   0.000000
    105         13.368290   0.000000
    106         13.368290   0.000000
    107         13.413477   0.000000
    108         13.458665   0.000000
    109         13.627494   0.000000
    110         14.872627   0.000000
    111         14.933203   0.000000
    112         14.933203   0.000000
    113         14.957056   0.000000
    114         14.957056   0.000000
    115         15.566665   0.000000
    116         16.422401   0.000000
    117         16.431071   0.000000
    118         16.441484   0.000000
    119         16.921654   0.000000
    120         16.921654   0.000000
    121         17.481815   0.000000
    122         17.828234   0.000000
    123         17.985735   0.000000
    124         17.985735   0.000000
    125         18.476528   0.000000
    126         18.570692   0.000000
    127         18.570860   0.000000
    128         18.864897   0.000000
 
  0.3333333E+00  0.1276756E-14  0.1276756E-14  0.2222222E+00
      1        -48.939543   1.000000
      2        -48.939171   1.000000
      3        -48.937372   1.000000
      4        -48.937033   1.000000
      5        -48.647366   1.000000
      6        -48.644017   1.000000
      7        -48.602354   1.000000
      8        -48.601708   1.000000
      9        -25.336790   1.000000
     10        -25.333674   1.000000
     11        -25.326624   1.000000
     12        -25.324217   1.000000
     13        -25.222223   1.000000
     14        -25.220095   1.000000
     15        -25.180418   1.000000
     16        -25.178473   1.000000
     17        -25.174816   1.000000
     18        -25.173374   1.000000
     19        -25.124634   1.000000
     20        -25.123431   1.000000
     21        -25.040361   1.000000
     22        -24.991613   1.000000
     23        -24.989546   1.000000
     24        -24.974460   1.000000
     25        -24.876486   1.000000
     26        -24.871808   1.000000
     27        -24.830860   1.000000
     28        -24.826916   1.000000
     29        -24.809051   1.000000
     30        -24.807646   1.000000
     31        -24.756693   1.000000
     32        -24.755663   1.000000
     33         -7.424198   1.000000
     34         -7.322796   1.000000
     35         -7.294458   1.000000
     36         -7.244345   1.000000
     37         -7.244074   1.000000
     38         -1.426215   1.000000
     39          0.042813   1.000000
     40          0.639867   1.000000
     41          1.745769   1.000000
     42          2.788668   1.000000
     43          3.030350   1.000000
     44          3.195260   1.000000
     45          3.534955   1.000000
     46          3.940714   1.000000
     47          4.310634   1.000000
     48          4.482484   1.000000
     49          4.632513   1.000000
     50          4.758783   1.000000
     51          5.476988   1.000000
     52          5.666377   1.000000
     53          5.930622   1.000000
     54          6.260960   1.000000
     55          6.330408   1.000000
     56          6.345922   1.000000
     57          6.609608   1.000000
     58          6.724657   1.000000
     59          6.732167   1.000000
     60          7.147756   1.000000
     61          7.297618   1.000000
     62          7.354506   1.000000
     63          7.446100   1.000000
     64          7.541202   1.000000
     65          7.572864   1.000000
     66          7.707956   1.000016
     67          8.131782  -0.017012
     68          8.161200  -0.035455
     69          8.254616  -0.004552
     70          8.525051  -0.000000
     71          8.564717  -0.000000
     72          8.586723  -0.000000
     73          8.780677  -0.000000
     74          9.044653  -0.000000
     75          9.266314  -0.000000
     76          9.269673  -0.000000
     77          9.323982  -0.000000
     78          9.475548  -0.000000
     79          9.478530  -0.000000
     80          9.546464  -0.000000
     81          9.635004  -0.000000
     82          9.766318  -0.000000
     83          9.781919  -0.000000
     84          9.819103  -0.000000
     85          9.891448  -0.000000
     86          9.899522  -0.000000
     87         10.011648  -0.000000
     88         10.359349   0.000000
     89         10.386322   0.000000
     90         10.528323   0.000000
     91         10.709836   0.000000
     92         10.933179   0.000000
     93         10.945767   0.000000
     94         11.138116   0.000000
     95         11.430853   0.000000
     96         11.751287   0.000000
     97         11.824797   0.000000
     98         12.018542   0.000000
     99         12.209199   0.000000
    100         12.350053   0.000000
    101         12.681066   0.000000
    102         12.846451   0.000000
    103         13.003407   0.000000
    104         13.191914   0.000000
    105         13.426121   0.000000
    106         13.601016   0.000000
    107         13.705969   0.000000
    108         13.920627   0.000000
    109         14.079346   0.000000
    110         14.122146   0.000000
    111         14.593632   0.000000
    112         14.772760   0.000000
    113         15.181892   0.000000
    114         15.247878   0.000000
    115         15.461321   0.000000
    116         15.815796   0.000000
    117         15.968440   0.000000
    118         16.274018   0.000000
    119         16.689613   0.000000
    120         16.787068   0.000000
    121         16.823512   0.000000
    122         16.941287   0.000000
    123         17.167141   0.000000
    124         17.232098   0.000000
    125         17.491832   0.000000
    126         17.776094   0.000000
    127         17.797675   0.000000
    128         17.996675   0.000000
 
  0.3333333E+00  0.3333333E+00  0.1276756E-14  0.2222222E+00
      1        -48.938330   1.000000
      2        -48.937970   1.000000
      3        -48.937240   1.000000
      4        -48.936899   1.000000
      5        -48.648068   1.000000
      6        -48.644710   1.000000
      7        -48.603115   1.000000
      8        -48.602466   1.000000
      9        -25.335965   1.000000
     10        -25.334494   1.000000
     11        -25.326064   1.000000
     12        -25.324981   1.000000
     13        -25.183768   1.000000
     14        -25.181302   1.000000
     15        -25.172884   1.000000
     16        -25.171634   1.000000
     17        -25.129375   1.000000
     18        -25.127925   1.000000
     19        -25.121659   1.000000
     20        -25.120676   1.000000
     21        -25.038749   1.000000
     22        -24.990365   1.000000
     23        -24.989758   1.000000
     24        -24.974619   1.000000
     25        -24.877166   1.000000
     26        -24.876389   1.000000
     27        -24.872333   1.000000
     28        -24.871751   1.000000
     29        -24.810023   1.000000
     30        -24.809907   1.000000
     31        -24.808661   1.000000
     32        -24.808522   1.000000
     33         -7.424859   1.000000
     34         -7.322194   1.000000
     35         -7.293755   1.000000
     36         -7.244342   1.000000
     37         -7.244336   1.000000
     38         -1.081861   1.000000
     39          0.188843   1.000000
     40          1.024094   1.000000
     41          1.238603   1.000000
     42          2.063106   1.000000
     43          2.221296   1.000000
     44          2.276622   1.000000
     45          3.298514   1.000000
     46          3.698537   1.000000
     47          4.871811   1.000000
     48          5.129870   1.000000
     49          5.177852   1.000000
     50          5.696121   1.000000
     51          5.900053   1.000000
     52          6.132199   1.000000
     53          6.284932   1.000000
     54          6.364203   1.000000
     55          6.453952   1.000000
     56          6.457541   1.000000
     57          6.678272   1.000000
     58          6.856685   1.000000
     59          6.981081   1.000000
     60          7.053984   1.000000
     61          7.382176   1.000000
     62          7.466342   1.000000
     63          7.594274   1.000000
     64          7.737877   1.000091
     65          7.746555   1.000147
     66          7.837618   1.007827
     67          8.073383   0.222210
     68          8.131799  -0.017038
     69          8.522430  -0.000000
     70          8.648376  -0.000000
     71          8.750689  -0.000000
     72          8.835874  -0.000000
     73          8.856526  -0.000000
     74          8.908017  -0.000000
     75          8.972579  -0.000000
     76          9.081071  -0.000000
     77          9.114881  -0.000000
     78          9.216463  -0.000000
     79          9.231955  -0.000000
     80          9.280180  -0.000000
     81          9.373264  -0.000000
     82          9.405491  -0.000000
     83          9.437499  -0.000000
     84          9.583693  -0.000000
     85          9.715044  -0.000000
     86          9.724294  -0.000000
     87          9.832734  -0.000000
     88          9.869367  -0.000000
     89         10.021915  -0.000000
     90         10.269930   0.000000
     91         10.318476   0.000000
     92         10.952154   0.000000
     93         11.012013   0.000000
     94         11.313287   0.000000
     95         11.823832   0.000000
     96         11.913448   0.000000
     97         12.007639   0.000000
     98         12.480737   0.000000
     99         12.499603   0.000000
    100         12.573364   0.000000
    101         12.635434   0.000000
    102         12.641367   0.000000
    103         13.040704   0.000000
    104         13.287794   0.000000
    105         13.547072   0.000000
    106         13.564656   0.000000
    107         13.565362   0.000000
    108         13.878118   0.000000
    109         13.948114   0.000000
    110         14.146821   0.000000
    111         14.166151   0.000000
    112         14.369264   0.000000
    113         14.413850   0.000000
    114         14.583980   0.000000
    115         14.750935   0.000000
    116         15.165380   0.000000
    117         15.517045   0.000000
    118         15.568178   0.000000
    119         16.286171   0.000000
    120         16.749256   0.000000
    121         16.803982   0.000000
    122         16.993660   0.000000
    123         17.346544   0.000000
    124         17.838070   0.000000
    125         17.888818   0.000000
    126         18.489472   0.000000
    127         18.495948   0.000000
    128         18.862200   0.000000
 
  0.1276756E-14  0.1276756E-14  0.5000000E+00  0.5555556E-01
      1        -48.941125   1.000000
      2        -48.941052   1.000000
      3        -48.936840   1.000000
      4        -48.936747   1.000000
      5        -48.646662   1.000000
      6        -48.643409   1.000000
      7        -48.601510   1.000000
      8        -48.600991   1.000000
      9        -25.333705   1.000000
     10        -25.331906   1.000000
     11        -25.328815   1.000000
     12        -25.326709   1.000000
     13        -25.226104   1.000000
     14        -25.226104   1.000000
     15        -25.225038   1.000000
     16        -25.225038   1.000000
     17        -25.170162   1.000000
     18        -25.170162   1.000000
     19        -25.170090   1.000000
     20        -25.170090   1.000000
     21        -25.037956   1.000000
     22        -24.997270   1.000000
     23        -24.986809   1.000000
     24        -24.976903   1.000000
     25        -24.831410   1.000000
     26        -24.831410   1.000000
     27        -24.827518   1.000000
     28        -24.827518   1.000000
     29        -24.755481   1.000000
     30        -24.755481   1.000000
     31        -24.754683   1.000000
     32        -24.754683   1.000000
     33         -7.423700   1.000000
     34         -7.322895   1.000000
     35         -7.295161   1.000000
     36         -7.244097   1.000000
     37         -7.244097   1.000000
     38         -1.713638   1.000000
     39         -0.244860   1.000000
     40          1.492674   1.000000
     41          2.383996   1.000000
     42          2.383996   1.000000
     43          3.193635   1.000000
     44          3.193635   1.000000
     45          3.917434   1.000000
     46          4.042188   1.000000
     47          4.100855   1.000000
     48          4.225949   1.000000
     49          4.240016   1.000000
     50          5.155427   1.000000
     51          5.283944   1.000000
     52          5.451786   1.000000
     53          5.451786   1.000000
     54          6.087427   1.000000
     55          6.087427   1.000000
     56          6.404623   1.000000
     57          6.404623   1.000000
     58          6.740071   1.000000
     59          6.740071   1.000000
     60          6.882827   1.000000
     61          7.200466   1.000000
     62          7.289641   1.000000
     63          7.387167   1.000000
     64          7.407599   1.000000
     65          7.418302   1.000000
     66          7.420566   1.000000
     67          7.840430   1.008566
     68          8.329957  -0.000148
     69          8.556855  -0.000000
     70          8.752868  -0.000000
     71          9.125121  -0.000000
     72          9.125121  -0.000000
     73          9.206817  -0.000000
     74          9.325291  -0.000000
     75          9.385470  -0.000000
     76          9.385470  -0.000000
     77          9.452163  -0.000000
     78          9.465013  -0.000000
     79          9.544461  -0.000000
     80          9.544461  -0.000000
     81          9.614270  -0.000000
     82          9.614270  -0.000000
     83          9.682389  -0.000000
     84          9.778850  -0.000000
     85          9.778850  -0.000000
     86          9.824943  -0.000000
     87          9.824943  -0.000000
     88          9.846312  -0.000000
     89         10.156631   0.000000
     90         10.340832   0.000000
     91         10.733014   0.000000
     92         10.932475   0.000000
     93         11.018039   0.000000
     94         11.018039   0.000000
     95         11.411571   0.000000
     96         11.469144   0.000000
     97         11.479064   0.000000
     98         11.491649   0.000000
     99         12.229397   0.000000
    100         12.482320   0.000000
    101         12.623892   0.000000
    102         12.627075   0.000000
    103         12.627075   0.000000
    104         12.942923   0.000000
    105         13.306916   0.000000
    106         14.151917   0.000000
    107         14.151917   0.000000
    108         14.483425   0.000000
    109         14.524117   0.000000
    110         15.073378   0.000000
    111         15.306526   0.000000
    112         15.306526   0.000000
    113         15.315700   0.000000
    114         15.594697   0.000000
    115         15.594697   0.000000
    116         15.766222   0.000000
    117         16.246789   0.000000
    118         16.311112   0.000000
    119         16.311112   0.000000
    120         16.396456   0.000000
    121         16.699413   0.000000
    122         16.699413   0.000000
    123         17.167705   0.000000
    124         17.167705   0.000000
    125         17.721353   0.000000
    126         18.537558   0.000000
    127         18.997202   0.000000
    128         19.261415   0.000000
 
  0.3333333E+00  0.1276756E-14  0.5000000E+00  0.2222222E+00
      1        -48.939400   1.000000
      2        -48.939315   1.000000
      3        -48.937249   1.000000
      4        -48.937156   1.000000
      5        -48.647325   1.000000
      6        -48.644059   1.000000
      7        -48.602292   1.000000
      8        -48.601771   1.000000
      9        -25.332641   1.000000
     10        -25.330772   1.000000
     11        -25.329957   1.000000
     12        -25.327933   1.000000
     13        -25.221677   1.000000
     14        -25.220638   1.000000
     15        -25.179706   1.000000
     16        -25.179165   1.000000
     17        -25.174125   1.000000
     18        -25.174058   1.000000
     19        -25.124119   1.000000
     20        -25.123949   1.000000
     21        -25.036246   1.000000
     22        -24.995812   1.000000
     23        -24.986996   1.000000
     24        -24.977021   1.000000
     25        -24.876493   1.000000
     26        -24.871811   1.000000
     27        -24.830875   1.000000
     28        -24.826905   1.000000
     29        -24.808840   1.000000
     30        -24.807871   1.000000
     31        -24.756556   1.000000
     32        -24.755802   1.000000
     33         -7.424198   1.000000
     34         -7.322208   1.000000
     35         -7.294456   1.000000
     36         -7.244363   1.000000
     37         -7.244096   1.000000
     38         -1.338961   1.000000
     39          0.205224   1.000000
     40          0.222958   1.000000
     41          1.567417   1.000000
     42          2.792555   1.000000
     43          3.092536   1.000000
     44          3.538343   1.000000
     45          3.970677   1.000000
     46          4.260608   1.000000
     47          4.363666   1.000000
     48          4.465933   1.000000
     49          4.560969   1.000000
     50          4.847724   1.000000
     51          5.243380   1.000000
     52          5.452649   1.000000
     53          5.524837   1.000000
     54          5.969530   1.000000
     55          6.192025   1.000000
     56          6.238181   1.000000
     57          6.336478   1.000000
     58          6.440583   1.000000
     59          6.660549   1.000000
     60          7.041227   1.000000
     61          7.441754   1.000000
     62          7.465853   1.000000
     63          7.622872   1.000000
     64          7.677740   1.000002
     65          7.885311   1.026313
     66          7.941054   1.021996
     67          8.003880   0.772856
     68          8.149242  -0.033084
     69          8.174001  -0.033213
     70          8.558289  -0.000000
     71          8.872859  -0.000000
     72          8.999887  -0.000000
     73          9.033753  -0.000000
     74          9.065160  -0.000000
     75          9.175692  -0.000000
     76          9.279215  -0.000000
     77          9.368480  -0.000000
     78          9.458412  -0.000000
     79          9.537231  -0.000000
     80          9.615209  -0.000000
     81          9.627663  -0.000000
     82          9.680813  -0.000000
     83          9.758610  -0.000000
     84          9.785608  -0.000000
     85          9.807119  -0.000000
     86          9.838244  -0.000000
     87         10.182369   0.000000
     88         10.188190   0.000000
     89         10.246595   0.000000
     90         10.286551   0.000000
     91         10.761933   0.000000
     92         10.865523   0.000000
     93         11.069203   0.000000
     94         11.141796   0.000000
     95         11.449599   0.000000
     96         11.598380   0.000000
     97         11.883263   0.000000
     98         11.984434   0.000000
     99         12.090748   0.000000
    100         12.324506   0.000000
    101         12.390258   0.000000
    102         12.716680   0.000000
    103         12.780104   0.000000
    104         13.252859   0.000000
    105         13.344519   0.000000
    106         13.351445   0.000000
    107         14.050257   0.000000
    108         14.331692   0.000000
    109         14.361947   0.000000
    110         14.495801   0.000000
    111         14.740271   0.000000
    112         14.850104   0.000000
    113         14.951413   0.000000
    114         15.591204   0.000000
    115         15.595500   0.000000
    116         15.922364   0.000000
    117         15.928541   0.000000
    118         16.177644   0.000000
    119         16.390143   0.000000
    120         16.505575   0.000000
    121         16.787918   0.000000
    122         16.988908   0.000000
    123         17.062825   0.000000
    124         17.158532   0.000000
    125         17.407048   0.000000
    126         17.595841   0.000000
    127         17.960179   0.000000
    128         18.166369   0.000000
 
  0.3333333E+00  0.3333333E+00  0.5000000E+00  0.2222222E+00
      1        -48.938196   1.000000
      2        -48.938103   1.000000
      3        -48.937120   1.000000
      4        -48.937019   1.000000
      5        -48.648027   1.000000
      6        -48.644750   1.000000
      7        -48.603052   1.000000
      8        -48.602529   1.000000
      9        -25.331964   1.000000
     10        -25.330723   1.000000
     11        -25.330064   1.000000
     12        -25.328758   1.000000
     13        -25.182897   1.000000
     14        -25.182103   1.000000
     15        -25.172378   1.000000
     16        -25.172135   1.000000
     17        -25.128794   1.000000
     18        -25.128496   1.000000
     19        -25.121216   1.000000
     20        -25.121111   1.000000
     21        -25.034719   1.000000
     22        -24.994503   1.000000
     23        -24.987226   1.000000
     24        -24.977161   1.000000
     25        -24.877156   1.000000
     26        -24.876405   1.000000
     27        -24.872342   1.000000
     28        -24.871724   1.000000
     29        -24.809797   1.000000
     30        -24.809684   1.000000
     31        -24.808880   1.000000
     32        -24.808744   1.000000
     33         -7.424859   1.000000
     34         -7.321597   1.000000
     35         -7.293753   1.000000
     36         -7.244359   1.000000
     37         -7.244353   1.000000
     38         -1.018586   1.000000
     39          0.325131   1.000000
     40          0.677919   1.000000
     41          1.355509   1.000000
     42          1.963317   1.000000
     43          2.011755   1.000000
     44          2.236824   1.000000
     45          3.172503   1.000000
     46          4.820845   1.000000
     47          5.043485   1.000000
     48          5.207596   1.000000
     49          5.465526   1.000000
     50          5.733112   1.000000
     51          5.860037   1.000000
     52          6.031629   1.000000
     53          6.086772   1.000000
     54          6.125253   1.000000
     55          6.219570   1.000000
     56          6.366389   1.000000
     57          6.403185   1.000000
     58          6.473279   1.000000
     59          6.653302   1.000000
     60          6.950872   1.000000
     61          7.433608   1.000000
     62          7.565193   1.000000
     63          7.726792   1.000048
     64          7.879146   1.023469
     65          7.901730   1.032958
     66          7.981842   0.903359
     67          8.051532   0.388883
     68          8.176649  -0.032350
     69          8.274676  -0.002080
     70          8.376077  -0.000010
     71          8.416921  -0.000001
     72          8.428628  -0.000000
     73          8.500712  -0.000000
     74          8.893387  -0.000000
     75          8.971475  -0.000000
     76          9.211875  -0.000000
     77          9.326866  -0.000000
     78          9.386909  -0.000000
     79          9.432886  -0.000000
     80          9.484879  -0.000000
     81          9.486114  -0.000000
     82          9.538876  -0.000000
     83          9.593689  -0.000000
     84          9.744646  -0.000000
     85          9.856266  -0.000000
     86          9.897597  -0.000000
     87         10.214843   0.000000
     88         10.219574   0.000000
     89         10.233476   0.000000
     90         10.438581   0.000000
     91         10.770959   0.000000
     92         10.779182   0.000000
     93         10.986754   0.000000
     94         11.146378   0.000000
     95         11.222308   0.000000
     96         11.538434   0.000000
     97         11.554450   0.000000
     98         11.752849   0.000000
     99         11.942279   0.000000
    100         12.154007   0.000000
    101         12.395729   0.000000
    102         12.428369   0.000000
    103         13.081877   0.000000
    104         13.197782   0.000000
    105         13.205072   0.000000
    106         14.098953   0.000000
    107         14.168674   0.000000
    108         14.298587   0.000000
    109         14.371745   0.000000
    110         14.587971   0.000000
    111         15.086350   0.000000
    112         15.116703   0.000000
    113         15.242855   0.000000
    114         15.334212   0.000000
    115         15.442000   0.000000
    116         15.563076   0.000000
    117         15.863834   0.000000
    118         15.979227   0.000000
    119         16.151084   0.000000
    120         16.208304   0.000000
    121         16.228997   0.000000
    122         16.405862   0.000000
    123         16.455949   0.000000
    124         16.682626   0.000000
    125         17.088718   0.000000
    126         17.858057   0.000000
    127         18.212895   0.000000
    128         18.230026   0.000000
