       N       E                     dE             d eps       ncg     rms          rms(c)
DAV:   1     0.100909147661E+04    0.10091E+04   -0.65701E+04  1536   0.122E+03
DAV:   2    -0.991502603458E+01   -0.10190E+04   -0.97947E+03  1600   0.320E+02
DAV:   3    -0.957176842695E+02   -0.85803E+02   -0.84320E+02  3072   0.758E+01
DAV:   4    -0.985567063054E+02   -0.28390E+01   -0.28386E+01  1536   0.126E+01
DAV:   5    -0.986348980644E+02   -0.78192E-01   -0.78191E-01  2560   0.196E+00
DAV:   6    -0.986359510517E+02   -0.10530E-02   -0.10530E-02  1856   0.199E-01
DAV:   7    -0.986360025634E+02   -0.51512E-04   -0.51512E-04  2688   0.370E-02
DAV:   8    -0.986360027352E+02   -0.17185E-06   -0.17218E-06  1664   0.212E-03
   1 F= -.98636003E+02 E0= -.98639781E+02  d E =0.113339E-01
