 vasp.6.5.0 16Dec24 (build Apr 17 2025 17:55:45) complex                        
  
 executed on             LinuxIFC date 2025.06.04  14:39:28
 running   64 mpi-ranks, on    1 nodes
 distrk:  each k-point on   64 cores,    1 groups
 distr:  one band on NCORE=   1 cores,   64 groups


--------------------------------------------------------------------------------------------------------


 INCAR:
   ISTART = 1
   ICHARG = 11
   PREC = N
   LREAL = .FALSE.
   ENCUT = 520
   ALGO = N
   NELM = 500
   EDIFF = 1E-06
   IBRION = -1
   ISIF = 3
   NSW = 0
   EDIFFG = -0.01
   LAECHG = .T.
   SYMPREC = 1E-6
   NEDOS = 1000
   LORBIT = 10
   ISMEAR = 1
   SIGMA = 0.1

 POTCAR:    PAW_PBE Ti_sv 26Sep2005               
 POTCAR:    PAW_PBE Al 04Jan2001                  
 POTCAR:    PAW_PBE Ga_d 06Jul2010                
 -----------------------------------------------------------------------------
|                                                                             |
|           W    W    AA    RRRRR   N    N  II  N    N   GGGG   !!!           |
|           W    W   A  A   R    R  NN   N  II  NN   N  G    G  !!!           |
|           W    W  A    A  R    R  N N  N  II  N N  N  G       !!!           |
|           W WW W  AAAAAA  RRRRR   N  N N  II  N  N N  G  GGG   !            |
|           WW  WW  A    A  R   R   N   NN  II  N   NN  G    G                |
|           W    W  A    A  R    R  N    N  II  N    N   GGGG   !!!           |
|                                                                             |
|     For optimal performance we recommend to set                             |
|       NCORE = 2 up to number-of-cores-per-socket                            |
|     NCORE specifies how many cores store one orbital (NPAR=cpu/NCORE).      |
|     This setting can greatly improve the performance of VASP for DFT.       |
|     The default, NCORE=1 might be grossly inefficient on modern             |
|     multi-core architectures or massively parallel machines. Do your        |
|     own testing! More info at https://www.vasp.at/wiki/index.php/NCORE      |
|     Unfortunately you need to use the default for GW and RPA                |
|     calculations (for HF NCORE is supported but not extensively tested      |
|     yet).                                                                   |
|                                                                             |
 -----------------------------------------------------------------------------

 POTCAR:    PAW_PBE Ti_sv 26Sep2005               
   SHA256 =  4d747badb5a5ea28d858fbac70885b3f8929d6fd9e5b0dbe1ecb9878dc164da1 Ti_sv/POTCAR          
   COPYR  = (c) Copyright 26Sep2005 Georg Kresse                                                    
   COPYR  = This file is part of the software VASP. Any use, copying, and all other rights are regul
   COPYR  = If you do not have a valid VASP license, you may not use, copy or distribute this file. 
   VRHFIN =Ti: 3p4s3d                                                                               
   LEXCH  = PE                                                                                      
   EATOM  =  1588.0892 eV,  116.7213 Ry                                                             
                                                                                                    
   TITEL  = PAW_PBE Ti_sv 26Sep2005                                                                 
   LULTRA =        F    use ultrasoft PP ?                                                          
   IUNSCR =        1    unscreen: 0-lin 1-nonlin 2-no                                               
   RPACOR =    2.000    partial core radius                                                         
   POMASS =   47.880; ZVAL   =   12.000    mass and valenz                                          
   RCORE  =    2.300    outmost cutoff radius                                                       
   RWIGS  =    2.300; RWIGS  =    1.217    wigner-seitz radius (au A)                               
   ENMAX  =  274.610; ENMIN  =  205.957 eV                                                          
   ICORE  =        3    local potential                                                             
   LCOR   =        T    correct aug charges                                                         
   LPAW   =        T    paw PP                                                                      
   EAUG   =  482.848                                                                                
   RMAX   =    2.348    core radius for proj-oper                                                   
   RAUG   =    1.300    factor for augmentation sphere                                              
   RDEP   =    2.381    radius for radial grids                                                     
   RDEPT  =    1.930    core radius for aug-charge                                                  
                                                                                                    
   Atomic configuration                                                                             
    8 entries                                                                                       
     n  l   j            E        occ.                                                              
     1  0  0.50     -4865.3608   2.0000                                                             
     2  0  0.50      -533.1368   2.0000                                                             
     2  1  1.50      -440.5031   6.0000                                                             
     3  0  0.50       -59.3186   2.0000                                                             
     4  0  0.50        -3.7291   1.0000                                                             
     3  1  1.50       -35.7012   6.0000                                                             
     3  2  2.50        -1.9157   3.0000                                                             
     4  3  2.50        -1.3606   0.0000                                                             
   Description                                                                                      
     l       E           TYP  RCUT    TYP  RCUT                                                     
     0    -59.3185931     23  1.800                                                                 
     0     -3.7290822     23  2.300                                                                 
     1    -35.7012045     23  2.300                                                                 
     1     -1.3605826     23  2.300                                                                 
     2     -1.9156920     23  2.300                                                                 
     2     -0.0236318     23  2.300                                                                 
     3     -1.3605826     23  2.300                                                                 
  local pseudopotential read in
  partial core-charges read in
  partial kinetic energy density read in
  atomic valenz-charges read in
  non local Contribution for L=           0  read in
    real space projection operators read in
  non local Contribution for L=           0  read in
    real space projection operators read in
  non local Contribution for L=           1  read in
    real space projection operators read in
  non local Contribution for L=           1  read in
    real space projection operators read in
  non local Contribution for L=           2  read in
    real space projection operators read in
  non local Contribution for L=           2  read in
    real space projection operators read in
    PAW grid and wavefunctions read in
 
   number of l-projection  operators is LMAX  =           6
   number of lm-projection operators is LMMAX =          18
 
 POTCAR:    PAW_PBE Al 04Jan2001                  
   SHA256 =  17880443556af62b473fe41b62a467bd001ad55d2cabe504a3f22e34d4e9db96 Al/POTCAR             
   COPYR  = (c) Copyright 04Jan2001 Georg Kresse                                                    
   COPYR  = This file is part of the software VASP. Any use, copying, and all other rights are regul
   COPYR  = If you do not have a valid VASP license, you may not use, copy or distribute this file. 
   VRHFIN =Al: s2p1                                                                                 
   LEXCH  = PE                                                                                      
   EATOM  =    53.5387 eV,    3.9350 Ry                                                             
                                                                                                    
   TITEL  = PAW_PBE Al 04Jan2001                                                                    
   LULTRA =        F    use ultrasoft PP ?                                                          
   IUNSCR =        1    unscreen: 0-lin 1-nonlin 2-no                                               
   RPACOR =    1.500    partial core radius                                                         
   POMASS =   26.981; ZVAL   =    3.000    mass and valenz                                          
   RCORE  =    1.900    outmost cutoff radius                                                       
   RWIGS  =    2.650; RWIGS  =    1.402    wigner-seitz radius (au A)                               
   ENMAX  =  240.300; ENMIN  =  180.225 eV                                                          
   ICORE  =        2    local potential                                                             
   LCOR   =        T    correct aug charges                                                         
   LPAW   =        T    paw PP                                                                      
   EAUG   =  291.052                                                                                
   DEXC   =    0.000                                                                                
   RMAX   =    1.939    core radius for proj-oper                                                   
   RAUG   =    1.300    factor for augmentation sphere                                              
   RDEP   =    1.966    radius for radial grids                                                     
   RDEPT  =    1.856    core radius for aug-charge                                                  
                                                                                                    
   Atomic configuration                                                                             
    6 entries                                                                                       
     n  l   j            E        occ.                                                              
     1  0  0.50     -1511.1048   2.0000                                                             
     2  0  0.50      -108.1629   2.0000                                                             
     2  1  1.50       -69.6402   6.0000                                                             
     3  0  0.50        -7.7528   2.0000                                                             
     3  1  1.50        -2.7121   1.0000                                                             
     3  2  2.50        -2.7212   0.0000                                                             
   Description                                                                                      
     l       E           TYP  RCUT    TYP  RCUT                                                     
     0     -7.7528455     23  1.900                                                                 
     0     -3.3096929     23  1.900                                                                 
     1     -2.7120682     23  1.900                                                                 
     1     13.6058260     23  1.900                                                                 
     2     -2.7211652      7  1.900                                                                 
  local pseudopotential read in
  partial core-charges read in
  partial kinetic energy density read in
  atomic valenz-charges read in
  non local Contribution for L=           0  read in
    real space projection operators read in
  non local Contribution for L=           0  read in
    real space projection operators read in
  non local Contribution for L=           1  read in
    real space projection operators read in
  non local Contribution for L=           1  read in
    real space projection operators read in
    PAW grid and wavefunctions read in
 
   number of l-projection  operators is LMAX  =           4
   number of lm-projection operators is LMMAX =           8
 
 POTCAR:    PAW_PBE Ga_d 06Jul2010                
   SHA256 =  a60ddf36e14f00ea098d9e3914b3745f1b7105e68786148f49ae384e44b4226c Ga_d/POTCAR           
   COPYR  = (c) Copyright 06Jul2010 Georg Kresse                                                    
   COPYR  = This file is part of the software VASP. Any use, copying, and all other rights are regul
   COPYR  = If you do not have a valid VASP license, you may not use, copy or distribute this file. 
   VRHFIN =Ga: s2p1                                                                                 
   LEXCH  = PE                                                                                      
   EATOM  =  2148.8298 eV,  157.9345 Ry                                                             
                                                                                                    
   TITEL  = PAW_PBE Ga_d 06Jul2010                                                                  
   LULTRA =        F    use ultrasoft PP ?                                                          
   IUNSCR =        1    unscreen: 0-lin 1-nonlin 2-no                                               
   RPACOR =    1.700    partial core radius                                                         
   POMASS =   69.723; ZVAL   =   13.000    mass and valenz                                          
   RCORE  =    2.300    outmost cutoff radius                                                       
   RWIGS  =    2.300; RWIGS  =    1.217    wigner-seitz radius (au A)                               
   ENMAX  =  282.691; ENMIN  =  212.018 eV                                                          
   ICORE  =        3    local potential                                                             
   LCOR   =        T    correct aug charges                                                         
   LPAW   =        T    paw PP                                                                      
   EAUG   =  490.690                                                                                
   DEXC   =    0.000                                                                                
   RMAX   =    2.341    core radius for proj-oper                                                   
   RAUG   =    1.300    factor for augmentation sphere                                              
   RDEP   =    2.413    radius for radial grids                                                     
   RDEPT  =    1.856    core radius for aug-charge                                                  
                                                                                                    
   Atomic configuration                                                                             
    9 entries                                                                                       
     n  l   j            E        occ.                                                              
     1  0  0.50    -10228.7831   2.0000                                                             
     2  0  0.50     -1262.1604   2.0000                                                             
     2  1  1.50     -1098.6333   6.0000                                                             
     3  0  0.50      -148.1110   2.0000                                                             
     3  1  1.50       -98.8436   6.0000                                                             
     3  2  2.50       -19.1549  10.0000                                                             
     4  0  0.50        -8.9483   2.0000                                                             
     4  1  0.50        -2.5791   1.0000                                                             
     4  3  2.50        -2.7416   0.0000                                                             
   Description                                                                                      
     l       E           TYP  RCUT    TYP  RCUT                                                     
     2    -19.1549037     23  2.300                                                                 
     2     -5.4423304     23  2.300                                                                 
     0     -8.9483111     23  2.300                                                                 
     0     68.0291300     23  2.300                                                                 
     1     -2.5790802     23  2.100                                                                 
     1     81.6349560     23  2.300                                                                 
     3      6.8029130     23  2.300                                                                 
  local pseudopotential read in
  partial core-charges read in
  partial kinetic energy density read in
  atomic valenz-charges read in
  non local Contribution for L=           2  read in
    real space projection operators read in
  non local Contribution for L=           2  read in
    real space projection operators read in
  non local Contribution for L=           0  read in
    real space projection operators read in
  non local Contribution for L=           0  read in
    real space projection operators read in
  non local Contribution for L=           1  read in
    real space projection operators read in
  non local Contribution for L=           1  read in
    real space projection operators read in
    PAW grid and wavefunctions read in
 
   number of l-projection  operators is LMAX  =           6
   number of lm-projection operators is LMMAX =          18
 
 -----------------------------------------------------------------------------
|                                                                             |
|               ----> ADVICE to this user running VASP <----                  |
|                                                                             |
|     You have a (more or less) 'large supercell' and for larger cells it     |
|     might be more efficient to use real-space projection operators.         |
|     Therefore, try LREAL= Auto in the INCAR file.                           |
|     Mind: For very accurate calculation, you might also keep the            |
|     reciprocal projection scheme (i.e. LREAL=.FALSE.).                      |
|                                                                             |
 -----------------------------------------------------------------------------

  PAW_PBE Ti_sv 26Sep2005               :
 energy of atom  1       EATOM=-1588.0892
 kinetic energy error for atom=    0.0042 (will be added to EATOM!!)
  PAW_PBE Al 04Jan2001                  :
 energy of atom  2       EATOM=  -53.5387
 kinetic energy error for atom=    0.0002 (will be added to EATOM!!)
  PAW_PBE Ga_d 06Jul2010                :
 energy of atom  3       EATOM=-2148.8298
 kinetic energy error for atom=    0.0026 (will be added to EATOM!!)
 
 
 POSCAR: Ti1 Al1
  positions in direct lattice
  velocities in cartesian coordinates


 exchange-correlation table for PE
   RHO(1)=    0.500       N(1)  =     2000
   RHO(2)=  100.500       N(2)  =     4000
 


--------------------------------------------------------------------------------------------------------


 ion  position               nearest neighbor table
   1  0.000  0.000  0.019-   9 2.78  11 2.78  13 2.78  15 2.78  10 2.85  14 2.85  12 2.85  16 2.85

   2  0.000  0.000  0.481-   9 2.78  11 2.78  13 2.78  15 2.78  10 2.85  14 2.85  12 2.85  16 2.85

   3  0.000  0.500  0.996-  10 2.92  12 2.92  14 2.92  16 2.92  13 2.96  11 2.96  15 2.96   9 2.96

   4  0.000  0.500  0.504-  10 2.92  12 2.92  14 2.92  16 2.92  13 2.96  11 2.96  15 2.96   9 2.96

   5  0.500  0.000  0.996-  10 2.92  12 2.92  14 2.92  16 2.92  13 2.96  11 2.96  15 2.96   9 2.96

   6  0.500  0.000  0.504-  10 2.92  12 2.92  14 2.92  16 2.92  13 2.96  11 2.96  15 2.96   9 2.96

   7  0.500  0.500  0.046-  17 2.46  11 2.72  13 2.72  15 2.72   9 2.72
   8  0.500  0.500  0.454-  17 2.46  11 2.72  13 2.72  15 2.72   9 2.72
   9  0.243  0.243  0.250-   7 2.72   8 2.72   1 2.78   2 2.78  11 2.84  13 2.84   3 2.96   4 2.96
                             5 2.96   6 2.96  13 3.01  11 3.01
  10  0.214  0.214  0.750-  17 2.37  14 2.51  12 2.51   2 2.85   1 2.85   6 2.92   3 2.92   4 2.92
                             5 2.92  12 3.35  14 3.35
  11  0.243  0.757  0.250-   7 2.72   8 2.72   1 2.78   2 2.78   9 2.84  15 2.84   3 2.96   4 2.96
                             5 2.96   6 2.96  15 3.01   9 3.01
  12  0.214  0.786  0.750-  17 2.37  16 2.51  10 2.51   2 2.85   1 2.85   6 2.92   3 2.92   4 2.92
                             5 2.92  16 3.35  10 3.35
  13  0.757  0.243  0.250-   7 2.72   8 2.72   1 2.78   2 2.78   9 2.84  15 2.84   3 2.96   4 2.96
                             5 2.96   6 2.96  15 3.01   9 3.01
  14  0.786  0.214  0.750-  17 2.37  16 2.51  10 2.51   2 2.85   1 2.85   6 2.92   3 2.92   4 2.92
                             5 2.92  16 3.35  10 3.35
  15  0.757  0.757  0.250-   7 2.72   8 2.72   1 2.78   2 2.78  11 2.84  13 2.84   3 2.96   4 2.96
                             5 2.96   6 2.96  13 3.01  11 3.01
  16  0.786  0.786  0.750-  17 2.37  14 2.51  12 2.51   2 2.85   1 2.85   6 2.92   3 2.92   4 2.92
                             5 2.92  14 3.35  12 3.35
  17  0.500  0.500  0.750-  10 2.37  12 2.37  14 2.37  16 2.37   7 2.46   8 2.46
 
  LATTYP: Found a simple tetragonal cell.
 ALAT       =     5.8584555020
 C/A-ratio  =     1.4168024267
  
  Lattice vectors:
  
 A1 = (   5.8584555020,   0.0000000000,   0.0000000000)
 A2 = (   0.0000000000,   5.8584555020,   0.0000000000)
 A3 = (   0.0000000000,   0.0000000000,   8.3002739718)


Analysis of symmetry for initial positions (statically):
=====================================================================
 Subroutine PRICEL returns:
 Original cell was already a primitive cell.
 

 Routine SETGRP: Setting up the symmetry group for a 
 simple tetragonal supercell.


 Subroutine GETGRP returns: Found 16 space group operations
 (whereof  8 operations were pure point group operations)
 out of a pool of 16 trial point group operations.


The static configuration has the point symmetry C_4v.
 The point group associated with its full space group is D_4h.


Analysis of symmetry for dynamics (positions and initial velocities):
=====================================================================
 Subroutine PRICEL returns:
 Original cell was already a primitive cell.
 

 Routine SETGRP: Setting up the symmetry group for a 
 simple tetragonal supercell.


 Subroutine GETGRP returns: Found 16 space group operations
 (whereof  8 operations were pure point group operations)
 out of a pool of 16 trial point group operations.


The dynamic configuration has the point symmetry C_4v.
 The point group associated with its full space group is D_4h.


 Subroutine INISYM returns: Found 16 space group operations
 (whereof  8 operations are pure point group operations),
 and found     1 'primitive' translations


----------------------------------------------------------------------------------------

                                     Primitive cell                                     

  volume of cell :     284.8779

  direct lattice vectors                    reciprocal lattice vectors
     5.858455502  0.000000000  0.000000000     0.170693453  0.000000000  0.000000000
     0.000000000  5.858455502  0.000000000     0.000000000  0.170693453  0.000000000
     0.000000000  0.000000000  8.300273972     0.000000000  0.000000000  0.120477951

  length of vectors
     5.858455502  5.858455502  8.300273972     0.170693453  0.170693453  0.120477951

  position of ions in fractional coordinates (direct lattice)
     0.000000000  0.000000000  0.018673676
     0.000000000  0.000000000  0.481326324
     0.000000000  0.500000000  0.995507135
     0.000000000  0.500000000  0.504492865
     0.500000000  0.000000000  0.995507135
     0.500000000  0.000000000  0.504492865
     0.500000000  0.500000000  0.046382817
     0.500000000  0.500000000  0.453617183
     0.242685310  0.242685310  0.250000000
     0.213916829  0.213916829  0.750000000
     0.242685310  0.757314690  0.250000000
     0.213916829  0.786083171  0.750000000
     0.757314690  0.242685310  0.250000000
     0.786083171  0.213916829  0.750000000
     0.757314690  0.757314690  0.250000000
     0.786083171  0.786083171  0.750000000
     0.500000000  0.500000000  0.750000000

  ion indices of the primitive-cell ions
   primitive index   ion index
                 1           1
                 2           2
                 3           3
                 4           4
                 5           5
                 6           6
                 7           7
                 8           8
                 9           9
                10          10
                11          11
                12          12
                13          13
                14          14
                15          15
                16          16
                17          17

----------------------------------------------------------------------------------------

 
 -----------------------------------------------------------------------------
|                                                                             |
|           W    W    AA    RRRRR   N    N  II  N    N   GGGG   !!!           |
|           W    W   A  A   R    R  NN   N  II  NN   N  G    G  !!!           |
|           W    W  A    A  R    R  N N  N  II  N N  N  G       !!!           |
|           W WW W  AAAAAA  RRRRR   N  N N  II  N  N N  G  GGG   !            |
|           WW  WW  A    A  R   R   N   NN  II  N   NN  G    G                |
|           W    W  A    A  R    R  N    N  II  N    N   GGGG   !!!           |
|                                                                             |
|     The requested file  could not be found or opened for reading            |
|     k-point information. Automatic k-point generation is used as a          |
|     fallback, which may lead to unwanted results.                           |
|                                                                             |
 -----------------------------------------------------------------------------

 

Automatic generation of k-mesh.
 Grid dimensions derived from KSPACING:
 generate k-points for:    3    3    2

 Generating k-lattice:

  Cartesian coordinates                     Fractional coordinates (reciprocal lattice)
     0.056897818  0.000000000  0.000000000     0.333333333  0.000000000  0.000000000
     0.000000000  0.056897818  0.000000000     0.000000000  0.333333333  0.000000000
     0.000000000  0.000000000  0.060238975     0.000000000  0.000000000  0.500000000

  Length of vectors
     0.056897818  0.056897818  0.060238975

  Shift w.r.t. Gamma in fractional coordinates (k-lattice)
     0.000000000  0.000000000  0.000000000

 
 Subroutine IBZKPT returns following result:
 ===========================================
 
 Found      6 irreducible k-points:
 
 Following reciprocal coordinates:
            Coordinates               Weight
  0.000000  0.000000  0.000000      1.000000
  0.333333  0.000000  0.000000      4.000000
  0.333333  0.333333  0.000000      4.000000
  0.000000  0.000000  0.500000      1.000000
  0.333333  0.000000  0.500000      4.000000
  0.333333  0.333333  0.500000      4.000000
 
 Following cartesian coordinates:
            Coordinates               Weight
  0.000000  0.000000  0.000000      1.000000
  0.056898  0.000000  0.000000      4.000000
  0.056898  0.056898  0.000000      4.000000
  0.000000  0.000000  0.060239      1.000000
  0.056898  0.000000  0.060239      4.000000
  0.056898  0.056898  0.060239      4.000000
 


--------------------------------------------------------------------------------------------------------




 Dimension of arrays:
   k-points           NKPTS =      6   k-points in BZ     NKDIM =      6   number of bands    NBANDS=    128
   number of dos      NEDOS =   1000   number of ions     NIONS =     17
   non local maximal  LDIM  =      6   non local SUM 2l+1 LMDIM =     18
   total plane-waves  NPLWV =  62208
   max r-space proj   IRMAX =      1   max aug-charges    IRDMAX=   8697
   dimension x,y,z NGX =    36 NGY =   36 NGZ =   48
   dimension x,y,z NGXF=    72 NGYF=   72 NGZF=   96
   support grid    NGXF=    72 NGYF=   72 NGZF=   96
   ions per type =               8   8   1
   NGX,Y,Z   is equivalent  to a cutoff of  10.22, 10.22,  9.61 a.u.
   NGXF,Y,Z  is equivalent  to a cutoff of  20.43, 20.43, 19.23 a.u.

 SYSTEM =  unknown system                          
 POSCAR =  Ti1 Al1                                 

 Startparameter for this run:
   NWRITE =      2    write-flag & timer
   PREC   = n         normal or accurate (medium, high low for compatibility)
   ISTART =      0    job   : 0-new  1-cont  2-samecut
   ICHARG =     11    charge: 1-file 2-atom 10-const
   ISPIN  =      1    spin polarized calculation?
   LNONCOLLINEAR =      F non collinear calculations
   LSORBIT =      F    spin-orbit coupling
   INIWAV =      1    electr: 0-lowe 1-rand  2-diag
   LASPH  =      F    aspherical Exc in radial PAW
 Electronic Relaxation 1
   ENCUT  =  520.0 eV  38.22 Ry    6.18 a.u.  10.89 10.89 15.43*2*pi/ulx,y,z
   ENINI  =  520.0     initial cutoff
   ENAUG  =  490.7 eV  augmentation charge cutoff
   NELM   =    500;   NELMIN=  2; NELMDL=  0     # of ELM steps 
   EDIFF  = 0.1E-05   stopping-criterion for ELM
   LREAL  =      F    real-space projection
   NLSPLINE    = F    spline interpolate recip. space projectors
   LCOMPAT=      F    compatible to vasp.4.4
   GGA_COMPAT  = T    GGA compatible to vasp.4.4-vasp.4.6
   LMAXPAW     = -100 max onsite density
   LMAXMIX     =    2 max onsite mixed and CHGCAR
   VOSKOWN=      0    Vosko Wilk Nusair interpolation
   ROPT   =    0.00000   0.00000   0.00000
 Ionic relaxation
   EDIFFG = -.1E-01   stopping-criterion for IOM
   NSW    =      0    number of steps for IOM
   NBLOCK =      1;   KBLOCK =      1    inner block; outer block 
   IBRION =     -1    ionic relax: 0-MD 1-quasi-New 2-CG
   NFREE  =      0    steps in history (QN), initial steepest desc. (CG)
   ISIF   =      3    stress and relaxation
   IWAVPR =     10    prediction:  0-non 1-charg 2-wave 3-comb
   ISYM   =      2    0-nonsym 1-usesym 2-fastsym
   LCORR  =      T    Harris-Foulkes like correction to forces

   POTIM  = 0.5000    time-step for ionic-motion
   TEIN   =    0.0    initial temperature
   TEBEG  =    0.0;   TEEND  =   0.0 temperature during run
   SMASS  =  -3.00    Nose mass-parameter (am)
   estimated Nose-frequenzy (Omega)   =  0.10E-29 period in steps = 0.13E+47 mass=  -0.784E-27a.u.
   SCALEE = 1.0000    scale energy and forces
   NPACO  =    256;   APACO  = 10.0  distance and # of slots for P.C.
   PSTRESS=    0.0 pullay stress

  Mass of Ions in am
   POMASS =  47.88 26.98 69.72
  Ionic Valenz
   ZVAL   =  12.00  3.00 13.00
  Atomic Wigner-Seitz radii
   RWIGS  =  -1.00 -1.00 -1.00
  virtual crystal weights 
   VCA    =   1.00  1.00  1.00
   NELECT =     133.0000    total number of electrons
   NUPDOWN=      -1.0000    fix difference up-down

 DOS related values:
   EMIN   =  10.00;   EMAX   =-10.00  energy-range for DOS
   EFERMI =   0.00;   METHOD = LEGACY      
   ISMEAR =     1;   SIGMA  =   0.10  broadening in eV -4-tet -1-fermi 0-gaus
   EFERMI_NEDOS =   21; number of points for ismear=-14 and -15

 Electronic relaxation 2 (details)
   IALGO  =     38    algorithm
   LDIAG  =      T    sub-space diagonalisation (order eigenvalues)
   LSUBROT=      F    optimize rotation matrix (better conditioning)
   TURBO    =      0    0=normal 1=particle mesh
   IRESTART =      0    0=no restart 2=restart with 2 vectors
   NREBOOT  =      0    no. of reboots
   NMIN     =      0    reboot dimension
   EREF     =   0.00    reference energy to select bands
   IMIX   =      4    mixing-type and parameters
     AMIX     =   0.40;   BMIX     =  1.00
     AMIX_MAG =   1.60;   BMIX_MAG =  1.00
     AMIN     =   0.10
     WC   =   100.;   INIMIX=   1;  MIXPRE=   1;  MAXMIX= -45

 Intra band minimization:
   WEIMIN = 0.0000     energy-eigenvalue tresh-hold
   EBREAK =  0.20E-08  absolut break condition
   DEPER  =   0.30     relativ break condition  

   TIME   =   0.40     timestep for ELM

  volume/ion in A,a.u.               =      16.76       113.09
  Fermi-wavevector in a.u.,A,eV,Ry     =   1.270006  2.399964 21.945048  1.612916
  Thomas-Fermi vector in A             =   2.403017
 
 Write flags
   LWAVE        =      T    write WAVECAR
   LDOWNSAMPLE  =      F    k-point downsampling of WAVECAR
   LCHARG       =      T    write CHGCAR
   LVTOT        =      F    write LOCPOT, total local potential
   LVHAR        =      F    write LOCPOT, Hartree potential only
   WRT_POTENTIAL= false  ! write potential to hdf5 file
   LELF         =      F    write electronic localiz. function (ELF)
   LORBIT       =     10    0 simple, 1 ext, 2 COOP (PROOUT), +10 PAW based schemes


 Python interface
   PLUGINS active      =      F    recompile with -DPLUGINS to activate
 
 Dipole corrections
   LMONO      =      F    monopole corrections only (constant potential shift)
   LDIPOL     =      F    correct potential (dipole corrections)
   IDIPOL     =      0    1-x, 2-y, 3-z, 4-all directions 
   EPSILON    =  1.0000000 bulk dielectric constant
   LVACPOTAV  =      F  vacuum potentials using an averaging scheme for the charge density
   VACPOTFLAT =  0.1000000 required flatness to determine vacuum potential
 
Coulomb truncation method
  LTRUNCATE          =      F  Coulomb kernel truncation to be used
  IDIMENSIONALITY    =      3  Dimensionality of cutoff (0 molecules / 2 surfaces)
  ISURFACE           =     -1  Direction of surface normal
  LCOARSEN           =      F  Coarsen the charge grid before padding, preferred

 
 Exchange correlation treatment:
   GGA     = PE    functional components
   XC_C    = 1    coefficients multiplying the functional components
   LIBXC   =     F    Libxc                    
   VOSKOWN =     0    Vosko Wilk Nusair interpolation
   LHFCALC =     F    Hartree Fock is set to
   LHFONE  =     F    Hartree Fock one center treatment
   AEXX    =    0.0000 exact exchange contribution

 Parameters of functionals:
   PE:
     No parameter
 
 Van der Waals corrections
   IVDW    =     0    specifies the selected vdW correction

 Linear response parameters
   LEPSILON=     F    determine dielectric tensor
   LRPA    =     F    only Hartree local field effects (RPA)
   LNABLA  =     F    use nabla operator in PAW spheres
   LVEL    =     F    velocity operator in full k-point grid
   CSHIFT  =0.1000    complex shift for real part using Kramers Kronig
   OMEGAMAX=  -1.0    maximum frequency
   DEG_THRESHOLD= 0.2000000E-02 threshold for treating states as degnerate
   RTIME   =   -0.100 relaxation time in fs
  (WPLASMAI=    0.000 imaginary part of plasma frequency in eV, 0.658/RTIME)
   DFIELD  = 0.0000000 0.0000000 0.0000000 field for delta impulse in time
 
  Optional k-point grid parameters
   LKPOINTS_OPT  =     F    use optional k-point grid
   KPOINTS_OPT_MODE=     1    mode for optional k-point grid
 
 Orbital magnetization related:
   ORBITALMAG=     F  switch on orbital magnetization
   LCHIMAG   =     F  perturbation theory with respect to B field
   DQ        =  0.001000  dq finite difference perturbation B field
   LLRAUG    =     F  two centre corrections for induced B field
   LBONE     =     F  B-component reconstruction in AE one-centre
   LVGVCALC  =     T  calculate vGv susceptibility
   LVGVAPPL  =     F  apply vGv susceptibility instead of pGv for G=0

 Random number generation:
   RANDOM_GENERATOR = DEFAULT
   PCG_SEED         = not used


--------------------------------------------------------------------------------------------------------


 Static calculation
 charge density and potential remain constant during run
 non-spin polarized calculation
 Variant of blocked Davidson
 Davidson routine will perform the subspace rotation
 perform sub-space diagonalisation
    after iterative eigenvector-optimisation
 no mixing
 using additional bands           61
 reciprocal scheme for non local part
 use partial core corrections
 calculate Harris-corrections to forces 
   (improved forces if not selfconsistent)
 use gradient corrections 
 WARNING: stress and forces are not correct
  (second derivative of E(xc) not defined)
 use of overlap-Matrix (Vanderbilt PP)
 Methfessel and Paxton  Order N= 1 SIGMA  =   0.10


--------------------------------------------------------------------------------------------------------


  energy-cutoff  :      520.00
  volume of cell :      284.88
      direct lattice vectors                 reciprocal lattice vectors
     5.858455502  0.000000000  0.000000000     0.170693453  0.000000000  0.000000000
     0.000000000  5.858455502  0.000000000     0.000000000  0.170693453  0.000000000
     0.000000000  0.000000000  8.300273972     0.000000000  0.000000000  0.120477951

  length of vectors
     5.858455502  5.858455502  8.300273972     0.170693453  0.170693453  0.120477951


 
 k-points in units of 2pi/SCALE and weight: read from INCAR                         
   0.00000000  0.00000000  0.00000000       0.056
   0.05689782  0.00000000  0.00000000       0.222
   0.05689782  0.05689782  0.00000000       0.222
   0.00000000  0.00000000  0.06023898       0.056
   0.05689782  0.00000000  0.06023898       0.222
   0.05689782  0.05689782  0.06023898       0.222
 
 k-points in reciprocal lattice and weights: read from INCAR                         
   0.00000000  0.00000000  0.00000000       0.056
   0.33333333  0.00000000  0.00000000       0.222
   0.33333333  0.33333333  0.00000000       0.222
   0.00000000  0.00000000  0.50000000       0.056
   0.33333333  0.00000000  0.50000000       0.222
   0.33333333  0.33333333  0.50000000       0.222
 
 position of ions in fractional coordinates (direct lattice) 
   0.00000000  0.00000000  0.01867368
   0.00000000  0.00000000  0.48132632
   0.00000000  0.50000000  0.99550713
   0.00000000  0.50000000  0.50449287
   0.50000000  0.00000000  0.99550713
   0.50000000  0.00000000  0.50449287
   0.50000000  0.50000000  0.04638282
   0.50000000  0.50000000  0.45361718
   0.24268531  0.24268531  0.25000000
   0.21391683  0.21391683  0.75000000
   0.24268531  0.75731469  0.25000000
   0.21391683  0.78608317  0.75000000
   0.75731469  0.24268531  0.25000000
   0.78608317  0.21391683  0.75000000
   0.75731469  0.75731469  0.25000000
   0.78608317  0.78608317  0.75000000
   0.50000000  0.50000000  0.75000000
 
 position of ions in cartesian coordinates  (Angst):
   0.00000000  0.00000000  0.15499662
   0.00000000  0.00000000  3.99514036
   0.00000000  2.92922775  8.26298196
   0.00000000  2.92922775  4.18742900
   2.92922775  0.00000000  8.26298196
   2.92922775  0.00000000  4.18742900
   2.92922775  2.92922775  0.38499009
   2.92922775  2.92922775  3.76514690
   1.42176109  1.42176109  2.07506849
   1.25322222  1.25322222  6.22520548
   1.42176109  4.43669441  2.07506849
   1.25322222  4.60523328  6.22520548
   4.43669441  1.42176109  2.07506849
   4.60523328  1.25322222  6.22520548
   4.43669441  4.43669441  2.07506849
   4.60523328  4.60523328  6.22520548
   2.92922775  2.92922775  6.22520548
 


--------------------------------------------------------------------------------------------------------


 k-point     1 :   0.0000 0.0000 0.0000  plane waves:    7699
 k-point     2 :   0.3333 0.0000 0.0000  plane waves:    7652
 k-point     3 :   0.3333 0.3333 0.0000  plane waves:    7692
 k-point     4 :   0.0000 0.0000 0.5000  plane waves:    7662
 k-point     5 :   0.3333 0.0000 0.5000  plane waves:    7650
 k-point     6 :   0.3333 0.3333 0.5000  plane waves:    7676

 maximum and minimum number of plane-waves per node :      7699     7650

 maximum number of plane-waves:      7699
 maximum index in each direction: 
   IXMAX=   10   IYMAX=   10   IZMAX=   15
   IXMIN=  -11   IYMIN=  -11   IZMIN=  -15


 serial   3D FFT for wavefunctions
 parallel 3D FFT for charge:
    minimum data exchange during FFTs selected (reduces bandwidth)


 total amount of memory used by VASP MPI-rank0    58074. kBytes
=======================================================================

   base                                    :      30000. kBytes
   nonl-proj                               :      22178. kBytes
   fftplans                                :        689. kBytes
   grid                                    :       3407. kBytes
   one-center                              :        264. kBytes
   wavefun                                 :       1536. kBytes
 
     INWAV:  cpu time      0.0000: real time      0.0000
 initial charge density was supplied:
 number of electron     132.9999798 magnetization 
 keeping initial charge density in first step


--------------------------------------------------------------------------------------------------------


 Maximum index for augmentation-charges          772 (set IRDMAX)


--------------------------------------------------------------------------------------------------------


 First call to EWALD:  gamma=   0.269
 Maximum number of real-space cells   3x   3x   2
 Maximum number of reciprocal cells   3x   3x   3

    FEWALD:  cpu time      0.0011: real time      0.0011


--------------------------------------- Ionic step        1  -------------------------------------------




--------------------------------------- Iteration      1(   1)  ---------------------------------------


    POTLOK:  cpu time      0.0117: real time      0.0118
    SETDIJ:  cpu time      0.0026: real time      0.0026
     EDDAV:  cpu time      0.8285: real time      0.8289
       DOS:  cpu time      0.0009: real time      0.0008
    --------------------------------------------
      LOOP:  cpu time      0.8437: real time      0.8441

 eigenvalue-minimisations  :  1536
 total energy-change (2. order) : 0.1009091E+04  (-0.6570139E+04)
 number of electron     132.9999798 magnetization 
 augmentation part      132.9999798 magnetization 

 Free energy of the ion-electron system (eV)
  ---------------------------------------------------
  alpha Z        PSCENC =       353.75656847
  Ewald energy   TEWEN  =     -9823.54474122
  -Hartree energ DENC   =     -4574.44964710
  -exchange      EXHF   =         0.00000000
  -V(xc)+E(xc)   XCENC  =       321.98796991
  PAW double counting   =     14842.87852822   -14742.74479515
  entropy T*S    EENTRO =        -0.01278567
  eigenvalues    EBANDS =      -650.59438287
  atomic energy  EATOM  =     15281.81476201
  Solvation  Ediel_sol  =         0.00000000
  ---------------------------------------------------
  free energy    TOTEN  =      1009.09147661 eV

  energy without entropy =     1009.10426228  energy(sigma->0) =     1009.09573850


--------------------------------------------------------------------------------------------------------




--------------------------------------- Iteration      1(   2)  ---------------------------------------


     EDDAV:  cpu time      0.8530: real time      0.8532
       DOS:  cpu time      0.0004: real time      0.0004
    --------------------------------------------
      LOOP:  cpu time      0.8534: real time      0.8536

 eigenvalue-minimisations  :  1600
 total energy-change (2. order) :-0.1019007E+04  (-0.9794702E+03)
 number of electron     132.9999798 magnetization 
 augmentation part      132.9999798 magnetization 

 Free energy of the ion-electron system (eV)
  ---------------------------------------------------
  alpha Z        PSCENC =       353.75656847
  Ewald energy   TEWEN  =     -9823.54474122
  -Hartree energ DENC   =     -4574.44964710
  -exchange      EXHF   =         0.00000000
  -V(xc)+E(xc)   XCENC  =       321.98796991
  PAW double counting   =     14842.87852822   -14742.74479515
  entropy T*S    EENTRO =        -0.00177338
  eigenvalues    EBANDS =     -1669.61189780
  atomic energy  EATOM  =     15281.81476201
  Solvation  Ediel_sol  =         0.00000000
  ---------------------------------------------------
  free energy    TOTEN  =        -9.91502603 eV

  energy without entropy =       -9.91325265  energy(sigma->0) =       -9.91443491


--------------------------------------------------------------------------------------------------------




--------------------------------------- Iteration      1(   3)  ---------------------------------------


     EDDAV:  cpu time      2.3702: real time      2.3703
       DOS:  cpu time      0.0004: real time      0.0004
    --------------------------------------------
      LOOP:  cpu time      2.3706: real time      2.3707

 eigenvalue-minimisations  :  3072
 total energy-change (2. order) :-0.8580266E+02  (-0.8432019E+02)
 number of electron     132.9999798 magnetization 
 augmentation part      132.9999798 magnetization 

 Free energy of the ion-electron system (eV)
  ---------------------------------------------------
  alpha Z        PSCENC =       353.75656847
  Ewald energy   TEWEN  =     -9823.54474122
  -Hartree energ DENC   =     -4574.44964710
  -exchange      EXHF   =         0.00000000
  -V(xc)+E(xc)   XCENC  =       321.98796991
  PAW double counting   =     14842.87852822   -14742.74479515
  entropy T*S    EENTRO =         0.01124701
  eigenvalues    EBANDS =     -1755.42757642
  atomic energy  EATOM  =     15281.81476201
  Solvation  Ediel_sol  =         0.00000000
  ---------------------------------------------------
  free energy    TOTEN  =       -95.71768427 eV

  energy without entropy =      -95.72893128  energy(sigma->0) =      -95.72143327


--------------------------------------------------------------------------------------------------------




--------------------------------------- Iteration      1(   4)  ---------------------------------------


     EDDAV:  cpu time      0.8054: real time      0.8054
       DOS:  cpu time      0.0006: real time      0.0006
    --------------------------------------------
      LOOP:  cpu time      0.8061: real time      0.8061

 eigenvalue-minimisations  :  1536
 total energy-change (2. order) :-0.2839022E+01  (-0.2838639E+01)
 number of electron     132.9999798 magnetization 
 augmentation part      132.9999798 magnetization 

 Free energy of the ion-electron system (eV)
  ---------------------------------------------------
  alpha Z        PSCENC =       353.75656847
  Ewald energy   TEWEN  =     -9823.54474122
  -Hartree energ DENC   =     -4574.44964710
  -exchange      EXHF   =         0.00000000
  -V(xc)+E(xc)   XCENC  =       321.98796991
  PAW double counting   =     14842.87852822   -14742.74479515
  entropy T*S    EENTRO =         0.01133162
  eigenvalues    EBANDS =     -1758.26668308
  atomic energy  EATOM  =     15281.81476201
  Solvation  Ediel_sol  =         0.00000000
  ---------------------------------------------------
  free energy    TOTEN  =       -98.55670631 eV

  energy without entropy =      -98.56803793  energy(sigma->0) =      -98.56048351


--------------------------------------------------------------------------------------------------------




--------------------------------------- Iteration      1(   5)  ---------------------------------------


     EDDAV:  cpu time      1.7850: real time      1.7852
       DOS:  cpu time      0.0004: real time      0.0004
    --------------------------------------------
      LOOP:  cpu time      1.7853: real time      1.7854

 eigenvalue-minimisations  :  2560
 total energy-change (2. order) :-0.7819176E-01  (-0.7819077E-01)
 number of electron     132.9999798 magnetization 
 augmentation part      132.9999798 magnetization 

 Free energy of the ion-electron system (eV)
  ---------------------------------------------------
  alpha Z        PSCENC =       353.75656847
  Ewald energy   TEWEN  =     -9823.54474122
  -Hartree energ DENC   =     -4574.44964710
  -exchange      EXHF   =         0.00000000
  -V(xc)+E(xc)   XCENC  =       321.98796991
  PAW double counting   =     14842.87852822   -14742.74479515
  entropy T*S    EENTRO =         0.01133388
  eigenvalues    EBANDS =     -1758.34487709
  atomic energy  EATOM  =     15281.81476201
  Solvation  Ediel_sol  =         0.00000000
  ---------------------------------------------------
  free energy    TOTEN  =       -98.63489806 eV

  energy without entropy =      -98.64623195  energy(sigma->0) =      -98.63867602


--------------------------------------------------------------------------------------------------------




--------------------------------------- Iteration      1(   6)  ---------------------------------------


     EDDAV:  cpu time      1.0761: real time      1.0761
       DOS:  cpu time      0.0007: real time      0.0007
    --------------------------------------------
      LOOP:  cpu time      1.0768: real time      1.0768

 eigenvalue-minimisations  :  1856
 total energy-change (2. order) :-0.1052987E-02  (-0.1052986E-02)
 number of electron     132.9999798 magnetization 
 augmentation part      132.9999798 magnetization 

 Free energy of the ion-electron system (eV)
  ---------------------------------------------------
  alpha Z        PSCENC =       353.75656847
  Ewald energy   TEWEN  =     -9823.54474122
  -Hartree energ DENC   =     -4574.44964710
  -exchange      EXHF   =         0.00000000
  -V(xc)+E(xc)   XCENC  =       321.98796991
  PAW double counting   =     14842.87852822   -14742.74479515
  entropy T*S    EENTRO =         0.01133388
  eigenvalues    EBANDS =     -1758.34593007
  atomic energy  EATOM  =     15281.81476201
  Solvation  Ediel_sol  =         0.00000000
  ---------------------------------------------------
  free energy    TOTEN  =       -98.63595105 eV

  energy without entropy =      -98.64728493  energy(sigma->0) =      -98.63972901


--------------------------------------------------------------------------------------------------------




--------------------------------------- Iteration      1(   7)  ---------------------------------------


     EDDAV:  cpu time      1.8944: real time      1.8944
       DOS:  cpu time      0.0004: real time      0.0004
    --------------------------------------------
      LOOP:  cpu time      1.8947: real time      1.8948

 eigenvalue-minimisations  :  2688
 total energy-change (2. order) :-0.5151162E-04  (-0.5151175E-04)
 number of electron     132.9999798 magnetization 
 augmentation part      132.9999798 magnetization 

 Free energy of the ion-electron system (eV)
  ---------------------------------------------------
  alpha Z        PSCENC =       353.75656847
  Ewald energy   TEWEN  =     -9823.54474122
  -Hartree energ DENC   =     -4574.44964710
  -exchange      EXHF   =         0.00000000
  -V(xc)+E(xc)   XCENC  =       321.98796991
  PAW double counting   =     14842.87852822   -14742.74479515
  entropy T*S    EENTRO =         0.01133388
  eigenvalues    EBANDS =     -1758.34598159
  atomic energy  EATOM  =     15281.81476201
  Solvation  Ediel_sol  =         0.00000000
  ---------------------------------------------------
  free energy    TOTEN  =       -98.63600256 eV

  energy without entropy =      -98.64733644  energy(sigma->0) =      -98.63978052


--------------------------------------------------------------------------------------------------------




--------------------------------------- Iteration      1(   8)  ---------------------------------------


     EDDAV:  cpu time      0.9746: real time      0.9747
       DOS:  cpu time      0.0004: real time      0.0004
    --------------------------------------------
      LOOP:  cpu time      0.9750: real time      0.9751

 eigenvalue-minimisations  :  1664
 total energy-change (2. order) :-0.1718508E-06  (-0.1721813E-06)
 number of electron     132.9999798 magnetization 
 augmentation part      132.9999798 magnetization 

 Free energy of the ion-electron system (eV)
  ---------------------------------------------------
  alpha Z        PSCENC =       353.75656847
  Ewald energy   TEWEN  =     -9823.54474122
  -Hartree energ DENC   =     -4574.44964710
  -exchange      EXHF   =         0.00000000
  -V(xc)+E(xc)   XCENC  =       321.98796991
  PAW double counting   =     14842.87852822   -14742.74479515
  entropy T*S    EENTRO =         0.01133388
  eigenvalues    EBANDS =     -1758.34598176
  atomic energy  EATOM  =     15281.81476201
  Solvation  Ediel_sol  =         0.00000000
  ---------------------------------------------------
  free energy    TOTEN  =       -98.63600274 eV

  energy without entropy =      -98.64733661  energy(sigma->0) =      -98.63978069


--------------------------------------------------------------------------------------------------------




 average (electrostatic) potential at core
  the test charge radii are     1.0397  1.0406  1.0314
  (the norm of the test charge is              1.0000)
       1 -72.6561       2 -72.6561       3 -73.0080       4 -73.0080       5 -73.0080
       6 -73.0080       7 -72.6848       8 -72.6848       9 -71.7254      10 -72.1302
      11 -71.7254      12 -72.1302      13 -71.7254      14 -72.1302      15 -71.7254
      16 -72.1302      17 -62.7396
 
 
 
 E-fermi :   8.0383     XC(G=0): -10.9195     alpha+bet :-15.5516

 val. band max:        8.0038802888   @ k =   0.3333   0.0000   0.5000
 cond. band min:       8.0515324774   @ k =   0.3333   0.3333   0.5000
 fundamental gap:      0.0476521886
 Fermi energy:         8.0382739149

 k-point     1 :       0.0000    0.0000    0.0000
  band No.  band energies     occupation 
      1     -48.9413      2.00000
      2     -48.9409      2.00000
      3     -48.9370      2.00000
      4     -48.9366      2.00000
      5     -48.6467      2.00000
      6     -48.6434      2.00000
      7     -48.6016      2.00000
      8     -48.6009      2.00000
      9     -25.3381      2.00000
     10     -25.3323      2.00000
     11     -25.3275      2.00000
     12     -25.3232      2.00000
     13     -25.2267      2.00000
     14     -25.2267      2.00000
     15     -25.2244      2.00000
     16     -25.2244      2.00000
     17     -25.1708      2.00000
     18     -25.1708      2.00000
     19     -25.1695      2.00000
     20     -25.1695      2.00000
     21     -25.0422      2.00000
     22     -24.9930      2.00000
     23     -24.9894      2.00000
     24     -24.9743      2.00000
     25     -24.8314      2.00000
     26     -24.8314      2.00000
     27     -24.8275      2.00000
     28     -24.8275      2.00000
     29     -24.7556      2.00000
     30     -24.7556      2.00000
     31     -24.7545      2.00000
     32     -24.7545      2.00000
     33      -7.4237      2.00000
     34      -7.3235      2.00000
     35      -7.2952      2.00000
     36      -7.2441      2.00000
     37      -7.2441      2.00000
     38      -1.8271      2.00000
     39       0.1089      2.00000
     40       1.4846      2.00000
     41       2.3785      2.00000
     42       2.3785      2.00000
     43       2.6587      2.00000
     44       3.1984      2.00000
     45       3.1984      2.00000
     46       3.5327      2.00000
     47       4.4678      2.00000
     48       4.8673      2.00000
     49       4.9799      2.00000
     50       5.2656      2.00000
     51       5.2656      2.00000
     52       5.7328      2.00000
     53       6.0722      2.00000
     54       6.1898      2.00000
     55       6.3784      2.00000
     56       6.3784      2.00000
     57       6.6693      2.00000
     58       6.6806      2.00000
     59       6.6806      2.00000
     60       6.7344      2.00000
     61       6.7344      2.00000
     62       6.7903      2.00000
     63       6.8722      2.00000
     64       7.2712      2.00000
     65       7.4555      2.00000
     66       7.6937      2.00001
     67       7.8765      2.04447
     68       7.9252      2.06782
     69       7.9252      2.06782
     70       8.3905     -0.00001
     71       8.5081     -0.00000
     72       8.8061     -0.00000
     73       9.1680     -0.00000
     74       9.2223     -0.00000
     75       9.2223     -0.00000
     76       9.4270     -0.00000
     77       9.4907     -0.00000
     78       9.5311     -0.00000
     79       9.5606     -0.00000
     80       9.5688     -0.00000
     81       9.5842     -0.00000
     82       9.5842     -0.00000
     83       9.7237     -0.00000
     84       9.7237     -0.00000
     85       9.8998     -0.00000
     86      10.0397      0.00000
     87      10.0397      0.00000
     88      10.6486      0.00000
     89      10.7151      0.00000
     90      10.7151      0.00000
     91      10.9172      0.00000
     92      11.3594      0.00000
     93      11.3769      0.00000
     94      11.4464      0.00000
     95      11.6194      0.00000
     96      11.6194      0.00000
     97      11.7231      0.00000
     98      12.0956      0.00000
     99      12.0956      0.00000
    100      12.1237      0.00000
    101      12.3085      0.00000
    102      12.3590      0.00000
    103      12.8547      0.00000
    104      13.1607      0.00000
    105      13.3683      0.00000
    106      13.3683      0.00000
    107      13.4135      0.00000
    108      13.4587      0.00000
    109      13.6275      0.00000
    110      14.8726      0.00000
    111      14.9332      0.00000
    112      14.9332      0.00000
    113      14.9571      0.00000
    114      14.9571      0.00000
    115      15.5667      0.00000
    116      16.4224      0.00000
    117      16.4311      0.00000
    118      16.4415      0.00000
    119      16.9217      0.00000
    120      16.9217      0.00000
    121      17.4818      0.00000
    122      17.8282      0.00000
    123      17.9857      0.00000
    124      17.9857      0.00000
    125      18.4765      0.00000
    126      18.5707      0.00000
    127      18.5709      0.00000
    128      18.8649      0.00000

 k-point     2 :       0.3333    0.0000    0.0000
  band No.  band energies     occupation 
      1     -48.9395      2.00000
      2     -48.9392      2.00000
      3     -48.9374      2.00000
      4     -48.9370      2.00000
      5     -48.6474      2.00000
      6     -48.6440      2.00000
      7     -48.6024      2.00000
      8     -48.6017      2.00000
      9     -25.3368      2.00000
     10     -25.3337      2.00000
     11     -25.3266      2.00000
     12     -25.3242      2.00000
     13     -25.2222      2.00000
     14     -25.2201      2.00000
     15     -25.1804      2.00000
     16     -25.1785      2.00000
     17     -25.1748      2.00000
     18     -25.1734      2.00000
     19     -25.1246      2.00000
     20     -25.1234      2.00000
     21     -25.0404      2.00000
     22     -24.9916      2.00000
     23     -24.9895      2.00000
     24     -24.9745      2.00000
     25     -24.8765      2.00000
     26     -24.8718      2.00000
     27     -24.8309      2.00000
     28     -24.8269      2.00000
     29     -24.8091      2.00000
     30     -24.8076      2.00000
     31     -24.7567      2.00000
     32     -24.7557      2.00000
     33      -7.4242      2.00000
     34      -7.3228      2.00000
     35      -7.2945      2.00000
     36      -7.2443      2.00000
     37      -7.2441      2.00000
     38      -1.4262      2.00000
     39       0.0428      2.00000
     40       0.6399      2.00000
     41       1.7458      2.00000
     42       2.7887      2.00000
     43       3.0304      2.00000
     44       3.1953      2.00000
     45       3.5350      2.00000
     46       3.9407      2.00000
     47       4.3106      2.00000
     48       4.4825      2.00000
     49       4.6325      2.00000
     50       4.7588      2.00000
     51       5.4770      2.00000
     52       5.6664      2.00000
     53       5.9306      2.00000
     54       6.2610      2.00000
     55       6.3304      2.00000
     56       6.3459      2.00000
     57       6.6096      2.00000
     58       6.7247      2.00000
     59       6.7322      2.00000
     60       7.1478      2.00000
     61       7.2976      2.00000
     62       7.3545      2.00000
     63       7.4461      2.00000
     64       7.5412      2.00000
     65       7.5729      2.00000
     66       7.7080      2.00003
     67       8.1318     -0.03402
     68       8.1612     -0.07091
     69       8.2546     -0.00910
     70       8.5251     -0.00000
     71       8.5647     -0.00000
     72       8.5867     -0.00000
     73       8.7807     -0.00000
     74       9.0447     -0.00000
     75       9.2663     -0.00000
     76       9.2697     -0.00000
     77       9.3240     -0.00000
     78       9.4755     -0.00000
     79       9.4785     -0.00000
     80       9.5465     -0.00000
     81       9.6350     -0.00000
     82       9.7663     -0.00000
     83       9.7819     -0.00000
     84       9.8191     -0.00000
     85       9.8914     -0.00000
     86       9.8995     -0.00000
     87      10.0116     -0.00000
     88      10.3593      0.00000
     89      10.3863      0.00000
     90      10.5283      0.00000
     91      10.7098      0.00000
     92      10.9332      0.00000
     93      10.9458      0.00000
     94      11.1381      0.00000
     95      11.4309      0.00000
     96      11.7513      0.00000
     97      11.8248      0.00000
     98      12.0185      0.00000
     99      12.2092      0.00000
    100      12.3501      0.00000
    101      12.6811      0.00000
    102      12.8465      0.00000
    103      13.0034      0.00000
    104      13.1919      0.00000
    105      13.4261      0.00000
    106      13.6010      0.00000
    107      13.7060      0.00000
    108      13.9206      0.00000
    109      14.0793      0.00000
    110      14.1221      0.00000
    111      14.5936      0.00000
    112      14.7728      0.00000
    113      15.1819      0.00000
    114      15.2479      0.00000
    115      15.4613      0.00000
    116      15.8158      0.00000
    117      15.9684      0.00000
    118      16.2740      0.00000
    119      16.6896      0.00000
    120      16.7871      0.00000
    121      16.8235      0.00000
    122      16.9413      0.00000
    123      17.1671      0.00000
    124      17.2321      0.00000
    125      17.4918      0.00000
    126      17.7761      0.00000
    127      17.7977      0.00000
    128      17.9967      0.00000

 k-point     3 :       0.3333    0.3333    0.0000
  band No.  band energies     occupation 
      1     -48.9383      2.00000
      2     -48.9380      2.00000
      3     -48.9372      2.00000
      4     -48.9369      2.00000
      5     -48.6481      2.00000
      6     -48.6447      2.00000
      7     -48.6031      2.00000
      8     -48.6025      2.00000
      9     -25.3360      2.00000
     10     -25.3345      2.00000
     11     -25.3261      2.00000
     12     -25.3250      2.00000
     13     -25.1838      2.00000
     14     -25.1813      2.00000
     15     -25.1729      2.00000
     16     -25.1716      2.00000
     17     -25.1294      2.00000
     18     -25.1279      2.00000
     19     -25.1217      2.00000
     20     -25.1207      2.00000
     21     -25.0387      2.00000
     22     -24.9904      2.00000
     23     -24.9898      2.00000
     24     -24.9746      2.00000
     25     -24.8772      2.00000
     26     -24.8764      2.00000
     27     -24.8723      2.00000
     28     -24.8718      2.00000
     29     -24.8100      2.00000
     30     -24.8099      2.00000
     31     -24.8087      2.00000
     32     -24.8085      2.00000
     33      -7.4249      2.00000
     34      -7.3222      2.00000
     35      -7.2938      2.00000
     36      -7.2443      2.00000
     37      -7.2443      2.00000
     38      -1.0819      2.00000
     39       0.1888      2.00000
     40       1.0241      2.00000
     41       1.2386      2.00000
     42       2.0631      2.00000
     43       2.2213      2.00000
     44       2.2766      2.00000
     45       3.2985      2.00000
     46       3.6985      2.00000
     47       4.8718      2.00000
     48       5.1299      2.00000
     49       5.1779      2.00000
     50       5.6961      2.00000
     51       5.9001      2.00000
     52       6.1322      2.00000
     53       6.2849      2.00000
     54       6.3642      2.00000
     55       6.4540      2.00000
     56       6.4575      2.00000
     57       6.6783      2.00000
     58       6.8567      2.00000
     59       6.9811      2.00000
     60       7.0540      2.00000
     61       7.3822      2.00000
     62       7.4663      2.00000
     63       7.5943      2.00000
     64       7.7379      2.00018
     65       7.7466      2.00029
     66       7.8376      2.01565
     67       8.0734      0.44442
     68       8.1318     -0.03408
     69       8.5224     -0.00000
     70       8.6484     -0.00000
     71       8.7507     -0.00000
     72       8.8359     -0.00000
     73       8.8565     -0.00000
     74       8.9080     -0.00000
     75       8.9726     -0.00000
     76       9.0811     -0.00000
     77       9.1149     -0.00000
     78       9.2165     -0.00000
     79       9.2320     -0.00000
     80       9.2802     -0.00000
     81       9.3733     -0.00000
     82       9.4055     -0.00000
     83       9.4375     -0.00000
     84       9.5837     -0.00000
     85       9.7150     -0.00000
     86       9.7243     -0.00000
     87       9.8327     -0.00000
     88       9.8694     -0.00000
     89      10.0219     -0.00000
     90      10.2699      0.00000
     91      10.3185      0.00000
     92      10.9522      0.00000
     93      11.0120      0.00000
     94      11.3133      0.00000
     95      11.8238      0.00000
     96      11.9134      0.00000
     97      12.0076      0.00000
     98      12.4807      0.00000
     99      12.4996      0.00000
    100      12.5734      0.00000
    101      12.6354      0.00000
    102      12.6414      0.00000
    103      13.0407      0.00000
    104      13.2878      0.00000
    105      13.5471      0.00000
    106      13.5647      0.00000
    107      13.5654      0.00000
    108      13.8781      0.00000
    109      13.9481      0.00000
    110      14.1468      0.00000
    111      14.1662      0.00000
    112      14.3693      0.00000
    113      14.4139      0.00000
    114      14.5840      0.00000
    115      14.7509      0.00000
    116      15.1654      0.00000
    117      15.5170      0.00000
    118      15.5682      0.00000
    119      16.2862      0.00000
    120      16.7493      0.00000
    121      16.8040      0.00000
    122      16.9937      0.00000
    123      17.3465      0.00000
    124      17.8381      0.00000
    125      17.8888      0.00000
    126      18.4895      0.00000
    127      18.4959      0.00000
    128      18.8622      0.00000

 k-point     4 :       0.0000    0.0000    0.5000
  band No.  band energies     occupation 
      1     -48.9411      2.00000
      2     -48.9411      2.00000
      3     -48.9368      2.00000
      4     -48.9367      2.00000
      5     -48.6467      2.00000
      6     -48.6434      2.00000
      7     -48.6015      2.00000
      8     -48.6010      2.00000
      9     -25.3337      2.00000
     10     -25.3319      2.00000
     11     -25.3288      2.00000
     12     -25.3267      2.00000
     13     -25.2261      2.00000
     14     -25.2261      2.00000
     15     -25.2250      2.00000
     16     -25.2250      2.00000
     17     -25.1702      2.00000
     18     -25.1702      2.00000
     19     -25.1701      2.00000
     20     -25.1701      2.00000
     21     -25.0380      2.00000
     22     -24.9973      2.00000
     23     -24.9868      2.00000
     24     -24.9769      2.00000
     25     -24.8314      2.00000
     26     -24.8314      2.00000
     27     -24.8275      2.00000
     28     -24.8275      2.00000
     29     -24.7555      2.00000
     30     -24.7555      2.00000
     31     -24.7547      2.00000
     32     -24.7547      2.00000
     33      -7.4237      2.00000
     34      -7.3229      2.00000
     35      -7.2952      2.00000
     36      -7.2441      2.00000
     37      -7.2441      2.00000
     38      -1.7136      2.00000
     39      -0.2449      2.00000
     40       1.4927      2.00000
     41       2.3840      2.00000
     42       2.3840      2.00000
     43       3.1936      2.00000
     44       3.1936      2.00000
     45       3.9174      2.00000
     46       4.0422      2.00000
     47       4.1009      2.00000
     48       4.2259      2.00000
     49       4.2400      2.00000
     50       5.1554      2.00000
     51       5.2839      2.00000
     52       5.4518      2.00000
     53       5.4518      2.00000
     54       6.0874      2.00000
     55       6.0874      2.00000
     56       6.4046      2.00000
     57       6.4046      2.00000
     58       6.7401      2.00000
     59       6.7401      2.00000
     60       6.8828      2.00000
     61       7.2005      2.00000
     62       7.2896      2.00000
     63       7.3872      2.00000
     64       7.4076      2.00000
     65       7.4183      2.00000
     66       7.4206      2.00000
     67       7.8404      2.01713
     68       8.3300     -0.00030
     69       8.5569     -0.00000
     70       8.7529     -0.00000
     71       9.1251     -0.00000
     72       9.1251     -0.00000
     73       9.2068     -0.00000
     74       9.3253     -0.00000
     75       9.3855     -0.00000
     76       9.3855     -0.00000
     77       9.4522     -0.00000
     78       9.4650     -0.00000
     79       9.5445     -0.00000
     80       9.5445     -0.00000
     81       9.6143     -0.00000
     82       9.6143     -0.00000
     83       9.6824     -0.00000
     84       9.7788     -0.00000
     85       9.7788     -0.00000
     86       9.8249     -0.00000
     87       9.8249     -0.00000
     88       9.8463     -0.00000
     89      10.1566      0.00000
     90      10.3408      0.00000
     91      10.7330      0.00000
     92      10.9325      0.00000
     93      11.0180      0.00000
     94      11.0180      0.00000
     95      11.4116      0.00000
     96      11.4691      0.00000
     97      11.4791      0.00000
     98      11.4916      0.00000
     99      12.2294      0.00000
    100      12.4823      0.00000
    101      12.6239      0.00000
    102      12.6271      0.00000
    103      12.6271      0.00000
    104      12.9429      0.00000
    105      13.3069      0.00000
    106      14.1519      0.00000
    107      14.1519      0.00000
    108      14.4834      0.00000
    109      14.5241      0.00000
    110      15.0734      0.00000
    111      15.3065      0.00000
    112      15.3065      0.00000
    113      15.3157      0.00000
    114      15.5947      0.00000
    115      15.5947      0.00000
    116      15.7662      0.00000
    117      16.2468      0.00000
    118      16.3111      0.00000
    119      16.3111      0.00000
    120      16.3965      0.00000
    121      16.6994      0.00000
    122      16.6994      0.00000
    123      17.1677      0.00000
    124      17.1677      0.00000
    125      17.7214      0.00000
    126      18.5376      0.00000
    127      18.9972      0.00000
    128      19.2614      0.00000

 k-point     5 :       0.3333    0.0000    0.5000
  band No.  band energies     occupation 
      1     -48.9394      2.00000
      2     -48.9393      2.00000
      3     -48.9372      2.00000
      4     -48.9372      2.00000
      5     -48.6473      2.00000
      6     -48.6441      2.00000
      7     -48.6023      2.00000
      8     -48.6018      2.00000
      9     -25.3326      2.00000
     10     -25.3308      2.00000
     11     -25.3300      2.00000
     12     -25.3279      2.00000
     13     -25.2217      2.00000
     14     -25.2206      2.00000
     15     -25.1797      2.00000
     16     -25.1792      2.00000
     17     -25.1741      2.00000
     18     -25.1741      2.00000
     19     -25.1241      2.00000
     20     -25.1239      2.00000
     21     -25.0362      2.00000
     22     -24.9958      2.00000
     23     -24.9870      2.00000
     24     -24.9770      2.00000
     25     -24.8765      2.00000
     26     -24.8718      2.00000
     27     -24.8309      2.00000
     28     -24.8269      2.00000
     29     -24.8088      2.00000
     30     -24.8079      2.00000
     31     -24.7566      2.00000
     32     -24.7558      2.00000
     33      -7.4242      2.00000
     34      -7.3222      2.00000
     35      -7.2945      2.00000
     36      -7.2444      2.00000
     37      -7.2441      2.00000
     38      -1.3390      2.00000
     39       0.2052      2.00000
     40       0.2230      2.00000
     41       1.5674      2.00000
     42       2.7926      2.00000
     43       3.0925      2.00000
     44       3.5383      2.00000
     45       3.9707      2.00000
     46       4.2606      2.00000
     47       4.3637      2.00000
     48       4.4659      2.00000
     49       4.5610      2.00000
     50       4.8477      2.00000
     51       5.2434      2.00000
     52       5.4526      2.00000
     53       5.5248      2.00000
     54       5.9695      2.00000
     55       6.1920      2.00000
     56       6.2382      2.00000
     57       6.3365      2.00000
     58       6.4406      2.00000
     59       6.6605      2.00000
     60       7.0412      2.00000
     61       7.4418      2.00000
     62       7.4659      2.00000
     63       7.6229      2.00000
     64       7.6777      2.00000
     65       7.8853      2.05263
     66       7.9411      2.04399
     67       8.0039      1.54571
     68       8.1492     -0.06617
     69       8.1740     -0.06643
     70       8.5583     -0.00000
     71       8.8729     -0.00000
     72       8.9999     -0.00000
     73       9.0338     -0.00000
     74       9.0652     -0.00000
     75       9.1757     -0.00000
     76       9.2792     -0.00000
     77       9.3685     -0.00000
     78       9.4584     -0.00000
     79       9.5372     -0.00000
     80       9.6152     -0.00000
     81       9.6277     -0.00000
     82       9.6808     -0.00000
     83       9.7586     -0.00000
     84       9.7856     -0.00000
     85       9.8071     -0.00000
     86       9.8382     -0.00000
     87      10.1824      0.00000
     88      10.1882      0.00000
     89      10.2466      0.00000
     90      10.2866      0.00000
     91      10.7619      0.00000
     92      10.8655      0.00000
     93      11.0692      0.00000
     94      11.1418      0.00000
     95      11.4496      0.00000
     96      11.5984      0.00000
     97      11.8833      0.00000
     98      11.9844      0.00000
     99      12.0907      0.00000
    100      12.3245      0.00000
    101      12.3903      0.00000
    102      12.7167      0.00000
    103      12.7801      0.00000
    104      13.2529      0.00000
    105      13.3445      0.00000
    106      13.3514      0.00000
    107      14.0503      0.00000
    108      14.3317      0.00000
    109      14.3619      0.00000
    110      14.4958      0.00000
    111      14.7403      0.00000
    112      14.8501      0.00000
    113      14.9514      0.00000
    114      15.5912      0.00000
    115      15.5955      0.00000
    116      15.9224      0.00000
    117      15.9285      0.00000
    118      16.1776      0.00000
    119      16.3901      0.00000
    120      16.5056      0.00000
    121      16.7879      0.00000
    122      16.9889      0.00000
    123      17.0628      0.00000
    124      17.1585      0.00000
    125      17.4070      0.00000
    126      17.5958      0.00000
    127      17.9602      0.00000
    128      18.1664      0.00000

 k-point     6 :       0.3333    0.3333    0.5000
  band No.  band energies     occupation 
      1     -48.9382      2.00000
      2     -48.9381      2.00000
      3     -48.9371      2.00000
      4     -48.9370      2.00000
      5     -48.6480      2.00000
      6     -48.6448      2.00000
      7     -48.6031      2.00000
      8     -48.6025      2.00000
      9     -25.3320      2.00000
     10     -25.3307      2.00000
     11     -25.3301      2.00000
     12     -25.3288      2.00000
     13     -25.1829      2.00000
     14     -25.1821      2.00000
     15     -25.1724      2.00000
     16     -25.1721      2.00000
     17     -25.1288      2.00000
     18     -25.1285      2.00000
     19     -25.1212      2.00000
     20     -25.1211      2.00000
     21     -25.0347      2.00000
     22     -24.9945      2.00000
     23     -24.9872      2.00000
     24     -24.9772      2.00000
     25     -24.8772      2.00000
     26     -24.8764      2.00000
     27     -24.8723      2.00000
     28     -24.8717      2.00000
     29     -24.8098      2.00000
     30     -24.8097      2.00000
     31     -24.8089      2.00000
     32     -24.8087      2.00000
     33      -7.4249      2.00000
     34      -7.3216      2.00000
     35      -7.2938      2.00000
     36      -7.2444      2.00000
     37      -7.2444      2.00000
     38      -1.0186      2.00000
     39       0.3251      2.00000
     40       0.6779      2.00000
     41       1.3555      2.00000
     42       1.9633      2.00000
     43       2.0118      2.00000
     44       2.2368      2.00000
     45       3.1725      2.00000
     46       4.8208      2.00000
     47       5.0435      2.00000
     48       5.2076      2.00000
     49       5.4655      2.00000
     50       5.7331      2.00000
     51       5.8600      2.00000
     52       6.0316      2.00000
     53       6.0868      2.00000
     54       6.1253      2.00000
     55       6.2196      2.00000
     56       6.3664      2.00000
     57       6.4032      2.00000
     58       6.4733      2.00000
     59       6.6533      2.00000
     60       6.9509      2.00000
     61       7.4336      2.00000
     62       7.5652      2.00000
     63       7.7268      2.00010
     64       7.8791      2.04694
     65       7.9017      2.06592
     66       7.9818      1.80672
     67       8.0515      0.77777
     68       8.1766     -0.06470
     69       8.2747     -0.00416
     70       8.3761     -0.00002
     71       8.4169     -0.00000
     72       8.4286     -0.00000
     73       8.5007     -0.00000
     74       8.8934     -0.00000
     75       8.9715     -0.00000
     76       9.2119     -0.00000
     77       9.3269     -0.00000
     78       9.3869     -0.00000
     79       9.4329     -0.00000
     80       9.4849     -0.00000
     81       9.4861     -0.00000
     82       9.5389     -0.00000
     83       9.5937     -0.00000
     84       9.7446     -0.00000
     85       9.8563     -0.00000
     86       9.8976     -0.00000
     87      10.2148      0.00000
     88      10.2196      0.00000
     89      10.2335      0.00000
     90      10.4386      0.00000
     91      10.7710      0.00000
     92      10.7792      0.00000
     93      10.9868      0.00000
     94      11.1464      0.00000
     95      11.2223      0.00000
     96      11.5384      0.00000
     97      11.5544      0.00000
     98      11.7528      0.00000
     99      11.9423      0.00000
    100      12.1540      0.00000
    101      12.3957      0.00000
    102      12.4284      0.00000
    103      13.0819      0.00000
    104      13.1978      0.00000
    105      13.2051      0.00000
    106      14.0990      0.00000
    107      14.1687      0.00000
    108      14.2986      0.00000
    109      14.3717      0.00000
    110      14.5880      0.00000
    111      15.0864      0.00000
    112      15.1167      0.00000
    113      15.2429      0.00000
    114      15.3342      0.00000
    115      15.4420      0.00000
    116      15.5631      0.00000
    117      15.8638      0.00000
    118      15.9792      0.00000
    119      16.1511      0.00000
    120      16.2083      0.00000
    121      16.2290      0.00000
    122      16.4059      0.00000
    123      16.4559      0.00000
    124      16.6826      0.00000
    125      17.0887      0.00000
    126      17.8581      0.00000
    127      18.2129      0.00000
    128      18.2300      0.00000


--------------------------------------------------------------------------------------------------------


 soft charge-density along one line, spin component           1
         0         1         2         3         4         5         6         7         8         9
 total charge-density along one line
 
 pseudopotential strength for first ion, spin component:           1
 -3.662 -19.713  -0.000  -0.009  -0.000   0.000   0.009   0.000
-19.713   7.717  -0.000  -0.004  -0.000  -0.000  -0.001  -0.000
 -0.000  -0.000 -22.589  -0.000  -0.000   7.195   0.000   0.000
 -0.009  -0.004  -0.000 -22.668  -0.000   0.000   7.248   0.000
 -0.000  -0.000  -0.000  -0.000 -22.589   0.000   0.000   7.195
  0.000  -0.000   7.195   0.000   0.000   6.557  -0.000  -0.000
  0.009  -0.001   0.000   7.248   0.000  -0.000   6.538  -0.000
  0.000  -0.000   0.000   0.000   7.195  -0.000  -0.000   6.557
 -0.000  -0.000  -0.000   0.000  -0.000   0.000  -0.000   0.000
 -0.000  -0.000  -0.009  -0.000   0.000   0.006   0.000  -0.000
 -0.032  -0.009   0.000  -0.006   0.000  -0.000   0.004  -0.000
 -0.000  -0.000   0.000  -0.000  -0.009  -0.000   0.000   0.006
  0.000   0.000   0.000   0.000  -0.000  -0.000  -0.000   0.000
 -0.000  -0.000  -0.000   0.000  -0.000   0.000  -0.000   0.000
 -0.000  -0.000  -0.011  -0.000   0.000   0.007   0.000  -0.000
 -0.040  -0.011   0.000  -0.007   0.000  -0.000   0.005  -0.000
 -0.000  -0.000   0.000  -0.000  -0.011  -0.000   0.000   0.007
  0.000   0.000   0.000   0.000  -0.000  -0.000  -0.000   0.000
 total augmentation occupancy for first ion, spin component:           1
  2.000   0.000   0.000   0.000   0.000   0.000   0.000   0.000   0.000   0.000   0.000   0.000   0.000   0.000   0.000   0.000
  0.000   1.000   0.000   0.000   0.000   0.000   0.000   0.000   0.000   0.000   0.000   0.000   0.000   0.000   0.000   0.000
  0.000   0.000   2.000   0.000   0.000   0.000   0.000   0.000   0.000   0.000   0.000   0.000   0.000   0.000   0.000   0.000
  0.000   0.000   0.000   2.000   0.000   0.000   0.000   0.000   0.000   0.000   0.000   0.000   0.000   0.000   0.000   0.000
  0.000   0.000   0.000   0.000   2.000   0.000   0.000   0.000   0.000   0.000   0.000   0.000   0.000   0.000   0.000   0.000
  0.000   0.000   0.000   0.000   0.000   0.000   0.000   0.000   0.000   0.000   0.000   0.000   0.000   0.000   0.000   0.000
  0.000   0.000   0.000   0.000   0.000   0.000   0.000   0.000   0.000   0.000   0.000   0.000   0.000   0.000   0.000   0.000
  0.000   0.000   0.000   0.000   0.000   0.000   0.000   0.000   0.000   0.000   0.000   0.000   0.000   0.000   0.000   0.000
  0.000   0.000   0.000   0.000   0.000   0.000   0.000   0.000   0.600   0.000   0.000   0.000   0.000   0.000   0.000   0.000
  0.000   0.000   0.000   0.000   0.000   0.000   0.000   0.000   0.000   0.600   0.000   0.000   0.000   0.000   0.000   0.000
  0.000   0.000   0.000   0.000   0.000   0.000   0.000   0.000   0.000   0.000   0.600   0.000   0.000   0.000   0.000   0.000
  0.000   0.000   0.000   0.000   0.000   0.000   0.000   0.000   0.000   0.000   0.000   0.600   0.000   0.000   0.000   0.000
  0.000   0.000   0.000   0.000   0.000   0.000   0.000   0.000   0.000   0.000   0.000   0.000   0.600   0.000   0.000   0.000
  0.000   0.000   0.000   0.000   0.000   0.000   0.000   0.000   0.000   0.000   0.000   0.000   0.000   0.000   0.000   0.000
  0.000   0.000   0.000   0.000   0.000   0.000   0.000   0.000   0.000   0.000   0.000   0.000   0.000   0.000   0.000   0.000
  0.000   0.000   0.000   0.000   0.000   0.000   0.000   0.000   0.000   0.000   0.000   0.000   0.000   0.000   0.000   0.000
  0.000   0.000   0.000   0.000   0.000   0.000   0.000   0.000   0.000   0.000   0.000   0.000   0.000   0.000   0.000   0.000
  0.000   0.000   0.000   0.000   0.000   0.000   0.000   0.000   0.000   0.000   0.000   0.000   0.000   0.000   0.000   0.000


------------------------ aborting loop because EDIFF is reached ----------------------------------------





 total charge

# of ion       s       p       d       tot
------------------------------------------
    1        2.193   6.120   1.936  10.250
    2        2.193   6.120   1.936  10.250
    3        2.189   6.084   1.894  10.168
    4        2.189   6.084   1.894  10.168
    5        2.189   6.084   1.894  10.168
    6        2.189   6.084   1.894  10.168
    7        2.204   6.115   1.985  10.305
    8        2.204   6.115   1.985  10.305
    9        0.414   0.403   0.000   0.817
   10        0.413   0.420   0.000   0.834
   11        0.414   0.403   0.000   0.817
   12        0.413   0.420   0.000   0.834
   13        0.414   0.403   0.000   0.817
   14        0.413   0.420   0.000   0.834
   15        0.414   0.403   0.000   0.817
   16        0.413   0.420   0.000   0.834
   17        0.987   1.105   9.977  12.069
--------------------------------------------------
tot         21.849  53.206  25.396 100.451
 
    CHARGE:  cpu time      0.0158: real time      0.0158
    FORLOC:  cpu time      0.0005: real time      0.0005
    FORNL :  cpu time      0.1427: real time      0.1427
    STRESS:  cpu time      0.4952: real time      0.4952
    FORCOR:  cpu time      0.0115: real time      0.0115
    FORHAR:  cpu time      0.0021: real time      0.0021
    OFIELD:  cpu time      0.0000: real time      0.0000

  FORCE on cell =-STRESS in cart. coord.  units (eV):
  Direction    XX          YY          ZZ          XY          YZ          ZX
  --------------------------------------------------------------------------------------
  Alpha Z   353.75657   353.75657   353.75657
  Ewald   -3102.58969 -3102.58969 -3618.38885     0.00000    -0.00000    -0.00000
  Hartree  1711.71062  1711.71062  1154.08425    -0.00000    -0.00000    -0.00000
  E(xc)    -654.52063  -654.52063  -655.08397     0.00000    -0.00000    -0.00000
  Local    -419.37915  -419.37915   682.03329     0.00000     0.00000     0.00000
  n-local   -94.73325  -112.22230   -72.05808    -3.37361    -0.00001     0.00000
  augment   617.31858   617.31858   601.26967    -0.00000    -0.00000    -0.00000
  Kinetic  1586.17454  1607.40699  1557.01513     3.08287     0.00001     0.00000
  Fock        0.00000     0.00000     0.00000     0.00000     0.00000     0.00000
  -------------------------------------------------------------------------------------
  Total      -0.39072    -0.39072     2.62802     0.00000     0.00000    -0.00000
  in kB      -2.19744    -2.19744    14.78023     0.00000     0.00000    -0.00000
  external pressure =        3.46 kB  Pullay stress =        0.00 kB


 VOLUME and BASIS-vectors are now :
 -----------------------------------------------------------------------------
  energy-cutoff  :      520.00
  volume of cell :      284.88
      direct lattice vectors                 reciprocal lattice vectors
     5.858455502  0.000000000  0.000000000     0.170693453  0.000000000  0.000000000
     0.000000000  5.858455502  0.000000000     0.000000000  0.170693453  0.000000000
     0.000000000  0.000000000  8.300273972     0.000000000  0.000000000  0.120477951

  length of vectors
     5.858455502  5.858455502  8.300273972     0.170693453  0.170693453  0.120477951


 FORCES acting on ions
    electron-ion (+dipol)            ewald-force                    non-local-force                 convergence-correction
 -----------------------------------------------------------------------------------------------
   0.948E-14 -.139E-12 -.462E+02   0.293E-13 -.697E-14 0.445E+02   0.529E-22 0.529E-22 0.900E+00   -.107E-11 -.960E-12 0.648E+00
   -.425E-14 0.155E-12 0.462E+02   0.115E-13 -.533E-14 -.445E+02   -.529E-22 -.529E-22 -.900E+00   0.423E-12 -.712E-12 -.648E+00
   -.528E-14 0.101E-11 -.443E+02   0.672E-14 0.902E-14 0.454E+02   0.106E-21 0.265E-22 -.112E+01   -.777E-12 0.582E-11 -.278E-01
   -.451E-13 0.249E-12 0.443E+02   0.628E-14 0.127E-13 -.454E+02   -.106E-21 -.265E-22 0.112E+01   0.103E-12 0.498E-11 0.278E-01
   0.683E-12 0.356E-13 -.443E+02   -.160E-13 -.805E-14 0.454E+02   0.000E+00 0.000E+00 -.112E+01   0.604E-11 -.252E-11 -.278E-01
   0.673E-12 -.123E-12 0.443E+02   -.230E-14 0.172E-15 -.454E+02   0.000E+00 0.265E-22 0.112E+01   0.180E-11 0.171E-11 0.278E-01
   0.750E-12 0.214E-11 -.219E+03   -.182E-13 0.668E-14 0.220E+03   0.000E+00 -.827E-23 -.626E+00   0.126E-11 -.325E-12 0.287E+00
   0.776E-12 0.300E-11 0.219E+03   0.525E-15 -.537E-14 -.220E+03   0.000E+00 0.000E+00 0.626E+00   0.175E-11 0.937E-12 -.287E+00
   0.956E+01 0.956E+01 -.298E-07   -.937E+01 -.937E+01 -.255E-14   -.608E-01 -.608E-01 -.132E-21   -.119E+00 -.119E+00 -.466E-13
   0.308E+02 0.308E+02 0.158E-06   -.327E+02 -.327E+02 -.790E-14   0.184E+01 0.184E+01 0.529E-22   -.146E-01 -.146E-01 -.351E-13
   0.956E+01 -.956E+01 0.211E-13   -.937E+01 0.937E+01 0.263E-13   -.608E-01 0.608E-01 0.000E+00   -.119E+00 0.119E+00 -.171E-12
   0.308E+02 -.308E+02 0.599E-13   -.327E+02 0.327E+02 0.103E-13   0.184E+01 -.184E+01 -.265E-22   -.146E-01 0.146E-01 0.136E-12
   -.956E+01 0.956E+01 -.146E-11   0.937E+01 -.937E+01 -.269E-14   0.608E-01 -.608E-01 0.993E-23   0.119E+00 -.119E+00 -.224E-12
   -.308E+02 0.308E+02 0.236E-13   0.327E+02 -.327E+02 0.309E-14   -.184E+01 0.184E+01 -.529E-22   0.146E-01 -.146E-01 0.927E-13
   -.956E+01 -.956E+01 0.298E-07   0.937E+01 0.937E+01 -.350E-14   0.608E-01 0.608E-01 0.397E-22   0.119E+00 0.119E+00 -.330E-12
   -.308E+02 -.308E+02 -.158E-06   0.327E+02 0.327E+02 0.212E-13   -.184E+01 -.184E+01 0.397E-22   0.146E-01 0.146E-01 0.260E-12
   0.116E-11 0.375E-11 0.279E-11   0.388E-13 0.970E-14 0.775E-14   0.000E+00 0.000E+00 -.265E-22   0.429E-12 0.127E-11 0.720E-12
 -----------------------------------------------------------------------------------------------
   0.452E-11 0.109E-10 0.157E-10   -.251E-13 0.259E-14 -.487E-14   -.222E-15 -.444E-15 -.444E-15   0.978E-11 0.997E-11 -.343E-11
 
 
 POSITION                                       TOTAL-FORCE (eV/Angst)
 -----------------------------------------------------------------------------------
      0.00000      0.00000      0.15500        -0.000000      0.000000     -0.072066
      0.00000      0.00000      3.99514        -0.000000      0.000000      0.072066
      0.00000      2.92923      8.26298        -0.000000      0.000000      0.005980
      0.00000      2.92923      4.18743        -0.000000      0.000000     -0.005980
      2.92923      0.00000      8.26298        -0.000000      0.000000      0.005980
      2.92923      0.00000      4.18743        -0.000000      0.000000     -0.005980
      2.92923      2.92923      0.38499        -0.000000      0.000000     -0.034138
      2.92923      2.92923      3.76515        -0.000000      0.000000      0.034138
      1.42176      1.42176      2.07507         0.010444      0.010444      0.000000
      1.25322      1.25322      6.22521        -0.074747     -0.074747      0.000000
      1.42176      4.43669      2.07507         0.010444     -0.010444      0.000000
      1.25322      4.60523      6.22521        -0.074747      0.074747      0.000000
      4.43669      1.42176      2.07507        -0.010444      0.010444      0.000000
      4.60523      1.25322      6.22521         0.074747     -0.074747      0.000000
      4.43669      4.43669      2.07507        -0.010444     -0.010444      0.000000
      4.60523      4.60523      6.22521         0.074747      0.074747      0.000000
      2.92923      2.92923      6.22521        -0.000000      0.000000      0.000000
 -----------------------------------------------------------------------------------
    total drift:                                0.000000      0.000000      0.000000


--------------------------------------------------------------------------------------------------------



  FREE ENERGIE OF THE ION-ELECTRON SYSTEM (eV)
  ---------------------------------------------------
  free  energy   TOTEN  =       -98.63600274 eV

  energy  without entropy=      -98.64733661  energy(sigma->0) =      -98.63978069
 


--------------------------------------------------------------------------------------------------------


    POTLOK:  cpu time      0.0109: real time      0.0109


--------------------------------------------------------------------------------------------------------


 writing wavefunctions
     LOOP+:  cpu time     12.1031: real time     12.1040
    4ORBIT:  cpu time      0.0000: real time      0.0000



 total charge

# of ion       s       p       d       tot
------------------------------------------
    1        2.193   6.120   1.936  10.250
    2        2.193   6.120   1.936  10.250
    3        2.189   6.084   1.894  10.168
    4        2.189   6.084   1.894  10.168
    5        2.189   6.084   1.894  10.168
    6        2.189   6.084   1.894  10.168
    7        2.204   6.115   1.985  10.305
    8        2.204   6.115   1.985  10.305
    9        0.414   0.403   0.000   0.817
   10        0.413   0.420   0.000   0.834
   11        0.414   0.403   0.000   0.817
   12        0.413   0.420   0.000   0.834
   13        0.414   0.403   0.000   0.817
   14        0.413   0.420   0.000   0.834
   15        0.414   0.403   0.000   0.817
   16        0.413   0.420   0.000   0.834
   17        0.987   1.105   9.977  12.069
--------------------------------------------------
tot         21.849  53.206  25.396 100.451
 

 total amount of memory used by VASP MPI-rank0    58074. kBytes
=======================================================================

   base                                    :      30000. kBytes
   nonl-proj                               :      22178. kBytes
   fftplans                                :        689. kBytes
   grid                                    :       3407. kBytes
   one-center                              :        264. kBytes
   wavefun                                 :       1536. kBytes
 
  
  
 General timing and accounting informations for this job:
 ========================================================
  
                  Total CPU time used (sec):       15.452
                            User time (sec):       13.379
                          System time (sec):        2.074
                         Elapsed time (sec):       15.727
  
                   Maximum memory used (kb):      237568.
                   Average memory used (kb):          N/A
  
                          Minor page faults:        30940
                          Major page faults:           19
                 Voluntary context switches:           90
