PROCAR new format
# of k-points:    6         # of bands:  128         # of ions:   17

 k-point     1 :    0.00000000 0.00000000 0.00000000     weight = 0.05555556

band     1 # energy  -48.94128996 # occ.  2.00000000
 
ion      s      p      d    tot
    1  0.003  0.000  0.000  0.003
    2  0.003  0.000  0.000  0.003
    3  0.246  0.000  0.000  0.246
    4  0.246  0.000  0.000  0.246
    5  0.246  0.000  0.000  0.246
    6  0.246  0.000  0.000  0.246
    7  0.003  0.000  0.000  0.003
    8  0.003  0.000  0.000  0.003
    9  0.000  0.000  0.000  0.000
   10  0.000  0.000  0.000  0.000
   11  0.000  0.000  0.000  0.000
   12  0.000  0.000  0.000  0.000
   13  0.000  0.000  0.000  0.000
   14  0.000  0.000  0.000  0.000
   15  0.000  0.000  0.000  0.000
   16  0.000  0.000  0.000  0.000
   17  0.000  0.000  0.000  0.000
tot    0.995  0.000  0.000  0.995
 
band     2 # energy  -48.94089286 # occ.  2.00000000
 
ion      s      p      d    tot
    1  0.003  0.000  0.000  0.003
    2  0.003  0.000  0.000  0.003
    3  0.246  0.000  0.000  0.246
    4  0.246  0.000  0.000  0.246
    5  0.246  0.000  0.000  0.246
    6  0.246  0.000  0.000  0.246
    7  0.003  0.000  0.000  0.003
    8  0.003  0.000  0.000  0.003
    9  0.000  0.000  0.000  0.000
   10  0.000  0.000  0.000  0.000
   11  0.000  0.000  0.000  0.000
   12  0.000  0.000  0.000  0.000
   13  0.000  0.000  0.000  0.000
   14  0.000  0.000  0.000  0.000
   15  0.000  0.000  0.000  0.000
   16  0.000  0.000  0.000  0.000
   17  0.000  0.000  0.000  0.000
tot    0.995  0.000  0.000  0.995
 
band     3 # energy  -48.93696017 # occ.  2.00000000
 
ion      s      p      d    tot
    1  0.000  0.000  0.000  0.000
    2  0.000  0.000  0.000  0.000
    3  0.249  0.000  0.000  0.249
    4  0.249  0.000  0.000  0.249
    5  0.249  0.000  0.000  0.249
    6  0.249  0.000  0.000  0.249
    7  0.000  0.000  0.000  0.000
    8  0.000  0.000  0.000  0.000
    9  0.000  0.000  0.000  0.000
   10  0.000  0.000  0.000  0.000
   11  0.000  0.000  0.000  0.000
   12  0.000  0.000  0.000  0.000
   13  0.000  0.000  0.000  0.000
   14  0.000  0.000  0.000  0.000
   15  0.000  0.000  0.000  0.000
   16  0.000  0.000  0.000  0.000
   17  0.000  0.000  0.000  0.000
tot    0.995  0.000  0.000  0.995
 
band     4 # energy  -48.93663566 # occ.  2.00000000
 
ion      s      p      d    tot
    1  0.000  0.000  0.000  0.000
    2  0.000  0.000  0.000  0.000
    3  0.249  0.000  0.000  0.249
    4  0.249  0.000  0.000  0.249
    5  0.249  0.000  0.000  0.249
    6  0.249  0.000  0.000  0.249
    7  0.000  0.000  0.000  0.000
    8  0.000  0.000  0.000  0.000
    9  0.000  0.000  0.000  0.000
   10  0.000  0.000  0.000  0.000
   11  0.000  0.000  0.000  0.000
   12  0.000  0.000  0.000  0.000
   13  0.000  0.000  0.000  0.000
   14  0.000  0.000  0.000  0.000
   15  0.000  0.000  0.000  0.000
   16  0.000  0.000  0.000  0.000
   17  0.000  0.000  0.000  0.000
tot    0.995  0.000  0.000  0.995
 
band     5 # energy  -48.64670741 # occ.  2.00000000
 
ion      s      p      d    tot
    1  0.001  0.000  0.000  0.001
    2  0.001  0.000  0.000  0.001
    3  0.001  0.000  0.000  0.001
    4  0.001  0.000  0.000  0.001
    5  0.001  0.000  0.000  0.001
    6  0.001  0.000  0.000  0.001
    7  0.494  0.000  0.000  0.494
    8  0.494  0.000  0.000  0.494
    9  0.000  0.000  0.000  0.000
   10  0.000  0.000  0.000  0.000
   11  0.000  0.000  0.000  0.000
   12  0.000  0.000  0.000  0.000
   13  0.000  0.000  0.000  0.000
   14  0.000  0.000  0.000  0.000
   15  0.000  0.000  0.000  0.000
   16  0.000  0.000  0.000  0.000
   17  0.000  0.000  0.000  0.000
tot    0.995  0.000  0.000  0.995
 
band     6 # energy  -48.64337024 # occ.  2.00000000
 
ion      s      p      d    tot
    1  0.001  0.000  0.000  0.001
    2  0.001  0.000  0.000  0.001
    3  0.001  0.000  0.000  0.001
    4  0.001  0.000  0.000  0.001
    5  0.001  0.000  0.000  0.001
    6  0.001  0.000  0.000  0.001
    7  0.494  0.000  0.000  0.494
    8  0.494  0.000  0.000  0.494
    9  0.000  0.000  0.000  0.000
   10  0.000  0.000  0.000  0.000
   11  0.000  0.000  0.000  0.000
   12  0.000  0.000  0.000  0.000
   13  0.000  0.000  0.000  0.000
   14  0.000  0.000  0.000  0.000
   15  0.000  0.000  0.000  0.000
   16  0.000  0.000  0.000  0.000
   17  0.000  0.000  0.000  0.000
tot    0.995  0.000  0.000  0.995
 
band     7 # energy  -48.60157571 # occ.  2.00000000
 
ion      s      p      d    tot
    1  0.494  0.000  0.000  0.494
    2  0.494  0.000  0.000  0.494
    3  0.002  0.000  0.000  0.002
    4  0.002  0.000  0.000  0.002
    5  0.002  0.000  0.000  0.002
    6  0.002  0.000  0.000  0.002
    7  0.000  0.000  0.000  0.000
    8  0.000  0.000  0.000  0.000
    9  0.000  0.000  0.000  0.000
   10  0.000  0.000  0.000  0.000
   11  0.000  0.000  0.000  0.000
   12  0.000  0.000  0.000  0.000
   13  0.000  0.000  0.000  0.000
   14  0.000  0.000  0.000  0.000
   15  0.000  0.000  0.000  0.000
   16  0.000  0.000  0.000  0.000
   17  0.000  0.000  0.000  0.000
tot    0.995  0.000  0.000  0.995
 
band     8 # energy  -48.60093203 # occ.  2.00000000
 
ion      s      p      d    tot
    1  0.494  0.000  0.000  0.494
    2  0.494  0.000  0.000  0.494
    3  0.002  0.000  0.000  0.002
    4  0.002  0.000  0.000  0.002
    5  0.002  0.000  0.000  0.002
    6  0.002  0.000  0.000  0.002
    7  0.001  0.000  0.000  0.001
    8  0.001  0.000  0.000  0.001
    9  0.000  0.000  0.000  0.000
   10  0.000  0.000  0.000  0.000
   11  0.000  0.000  0.000  0.000
   12  0.000  0.000  0.000  0.000
   13  0.000  0.000  0.000  0.000
   14  0.000  0.000  0.000  0.000
   15  0.000  0.000  0.000  0.000
   16  0.000  0.000  0.000  0.000
   17  0.000  0.000  0.000  0.000
tot    0.995  0.000  0.000  0.995
 
band     9 # energy  -25.33814191 # occ.  2.00000000
 
ion      s      p      d    tot
    1  0.000  0.003  0.000  0.003
    2  0.000  0.003  0.000  0.003
    3  0.000  0.243  0.000  0.243
    4  0.000  0.243  0.000  0.243
    5  0.000  0.243  0.000  0.243
    6  0.000  0.243  0.000  0.243
    7  0.000  0.002  0.000  0.002
    8  0.000  0.002  0.000  0.002
    9  0.000  0.000  0.000  0.000
   10  0.000  0.000  0.000  0.000
   11  0.000  0.000  0.000  0.000
   12  0.000  0.000  0.000  0.000
   13  0.000  0.000  0.000  0.000
   14  0.000  0.000  0.000  0.000
   15  0.000  0.000  0.000  0.000
   16  0.000  0.000  0.000  0.000
   17  0.000  0.000  0.000  0.000
tot    0.000  0.983  0.000  0.983
 
band    10 # energy  -25.33234128 # occ.  2.00000000
 
ion      s      p      d    tot
    1  0.000  0.000  0.000  0.000
    2  0.000  0.000  0.000  0.000
    3  0.000  0.246  0.000  0.246
    4  0.000  0.246  0.000  0.246
    5  0.000  0.246  0.000  0.246
    6  0.000  0.246  0.000  0.246
    7  0.000  0.000  0.000  0.000
    8  0.000  0.000  0.000  0.000
    9  0.000  0.000  0.000  0.000
   10  0.000  0.000  0.000  0.000
   11  0.000  0.000  0.000  0.000
   12  0.000  0.000  0.000  0.000
   13  0.000  0.000  0.000  0.000
   14  0.000  0.000  0.000  0.000
   15  0.000  0.000  0.000  0.000
   16  0.000  0.000  0.000  0.000
   17  0.000  0.000  0.000  0.000
tot    0.000  0.984  0.000  0.984
 
band    11 # energy  -25.32747363 # occ.  2.00000000
 
ion      s      p      d    tot
    1  0.000  0.003  0.000  0.003
    2  0.000  0.003  0.000  0.003
    3  0.000  0.244  0.000  0.244
    4  0.000  0.244  0.000  0.244
    5  0.000  0.244  0.000  0.244
    6  0.000  0.244  0.000  0.244
    7  0.000  0.002  0.000  0.002
    8  0.000  0.002  0.000  0.002
    9  0.000  0.000  0.000  0.000
   10  0.000  0.000  0.000  0.000
   11  0.000  0.000  0.000  0.000
   12  0.000  0.000  0.000  0.000
   13  0.000  0.000  0.000  0.000
   14  0.000  0.000  0.000  0.000
   15  0.000  0.000  0.000  0.000
   16  0.000  0.000  0.000  0.000
   17  0.000  0.000  0.000  0.000
tot    0.000  0.984  0.000  0.984
 
band    12 # energy  -25.32319451 # occ.  2.00000000
 
ion      s      p      d    tot
    1  0.000  0.000  0.000  0.000
    2  0.000  0.000  0.000  0.000
    3  0.000  0.246  0.000  0.246
    4  0.000  0.246  0.000  0.246
    5  0.000  0.246  0.000  0.246
    6  0.000  0.246  0.000  0.246
    7  0.000  0.000  0.000  0.000
    8  0.000  0.000  0.000  0.000
    9  0.000  0.000  0.000  0.000
   10  0.000  0.000  0.000  0.000
   11  0.000  0.000  0.000  0.000
   12  0.000  0.000  0.000  0.000
   13  0.000  0.000  0.000  0.000
   14  0.000  0.000  0.000  0.000
   15  0.000  0.000  0.000  0.000
   16  0.000  0.000  0.000  0.000
   17  0.000  0.000  0.000  0.000
tot    0.000  0.984  0.000  0.984
 
band    13 # energy  -25.22670482 # occ.  2.00000000
 
ion      s      p      d    tot
    1  0.000  0.012  0.000  0.012
    2  0.000  0.012  0.000  0.012
    3  0.000  0.294  0.000  0.294
    4  0.000  0.294  0.000  0.294
    5  0.000  0.108  0.000  0.108
    6  0.000  0.108  0.000  0.108
    7  0.000  0.075  0.000  0.075
    8  0.000  0.075  0.000  0.075
    9  0.000  0.000  0.000  0.000
   10  0.000  0.000  0.000  0.000
   11  0.000  0.000  0.000  0.000
   12  0.000  0.000  0.000  0.000
   13  0.000  0.000  0.000  0.000
   14  0.000  0.000  0.000  0.000
   15  0.000  0.000  0.000  0.000
   16  0.000  0.000  0.000  0.000
   17  0.000  0.000  0.000  0.000
tot    0.000  0.979  0.000  0.979
 
band    14 # energy  -25.22670482 # occ.  2.00000000
 
ion      s      p      d    tot
    1  0.000  0.012  0.000  0.012
    2  0.000  0.012  0.000  0.012
    3  0.000  0.108  0.000  0.108
    4  0.000  0.108  0.000  0.108
    5  0.000  0.294  0.000  0.294
    6  0.000  0.294  0.000  0.294
    7  0.000  0.075  0.000  0.075
    8  0.000  0.075  0.000  0.075
    9  0.000  0.000  0.000  0.000
   10  0.000  0.000  0.000  0.000
   11  0.000  0.000  0.000  0.000
   12  0.000  0.000  0.000  0.000
   13  0.000  0.000  0.000  0.000
   14  0.000  0.000  0.000  0.000
   15  0.000  0.000  0.000  0.000
   16  0.000  0.000  0.000  0.000
   17  0.000  0.000  0.000  0.000
tot    0.000  0.979  0.000  0.979
 
band    15 # energy  -25.22442139 # occ.  2.00000000
 
ion      s      p      d    tot
    1  0.000  0.012  0.000  0.012
    2  0.000  0.012  0.000  0.012
    3  0.000  0.112  0.000  0.112
    4  0.000  0.112  0.000  0.112
    5  0.000  0.292  0.000  0.292
    6  0.000  0.292  0.000  0.292
    7  0.000  0.074  0.000  0.074
    8  0.000  0.074  0.000  0.074
    9  0.000  0.000  0.000  0.000
   10  0.000  0.000  0.000  0.000
   11  0.000  0.000  0.000  0.000
   12  0.000  0.000  0.000  0.000
   13  0.000  0.000  0.000  0.000
   14  0.000  0.000  0.000  0.000
   15  0.000  0.000  0.000  0.000
   16  0.000  0.000  0.000  0.000
   17  0.000  0.000  0.000  0.000
tot    0.000  0.979  0.000  0.979
 
band    16 # energy  -25.22442139 # occ.  2.00000000
 
ion      s      p      d    tot
    1  0.000  0.012  0.000  0.012
    2  0.000  0.012  0.000  0.012
    3  0.000  0.292  0.000  0.292
    4  0.000  0.292  0.000  0.292
    5  0.000  0.112  0.000  0.112
    6  0.000  0.112  0.000  0.112
    7  0.000  0.074  0.000  0.074
    8  0.000  0.074  0.000  0.074
    9  0.000  0.000  0.000  0.000
   10  0.000  0.000  0.000  0.000
   11  0.000  0.000  0.000  0.000
   12  0.000  0.000  0.000  0.000
   13  0.000  0.000  0.000  0.000
   14  0.000  0.000  0.000  0.000
   15  0.000  0.000  0.000  0.000
   16  0.000  0.000  0.000  0.000
   17  0.000  0.000  0.000  0.000
tot    0.000  0.979  0.000  0.979
 
band    17 # energy  -25.17076629 # occ.  2.00000000
 
ion      s      p      d    tot
    1  0.000  0.073  0.000  0.073
    2  0.000  0.073  0.000  0.073
    3  0.000  0.187  0.000  0.187
    4  0.000  0.187  0.000  0.187
    5  0.000  0.225  0.000  0.225
    6  0.000  0.225  0.000  0.225
    7  0.000  0.005  0.000  0.005
    8  0.000  0.005  0.000  0.005
    9  0.000  0.000  0.000  0.000
   10  0.000  0.000  0.000  0.000
   11  0.000  0.000  0.000  0.000
   12  0.000  0.000  0.000  0.000
   13  0.000  0.000  0.000  0.000
   14  0.000  0.000  0.000  0.000
   15  0.000  0.000  0.000  0.000
   16  0.000  0.000  0.000  0.000
   17  0.000  0.000  0.000  0.000
tot    0.000  0.980  0.000  0.980
 
band    18 # energy  -25.17076629 # occ.  2.00000000
 
ion      s      p      d    tot
    1  0.000  0.073  0.000  0.073
    2  0.000  0.073  0.000  0.073
    3  0.000  0.225  0.000  0.225
    4  0.000  0.225  0.000  0.225
    5  0.000  0.187  0.000  0.187
    6  0.000  0.187  0.000  0.187
    7  0.000  0.005  0.000  0.005
    8  0.000  0.005  0.000  0.005
    9  0.000  0.000  0.000  0.000
   10  0.000  0.000  0.000  0.000
   11  0.000  0.000  0.000  0.000
   12  0.000  0.000  0.000  0.000
   13  0.000  0.000  0.000  0.000
   14  0.000  0.000  0.000  0.000
   15  0.000  0.000  0.000  0.000
   16  0.000  0.000  0.000  0.000
   17  0.000  0.000  0.000  0.000
tot    0.000  0.980  0.000  0.980
 
band    19 # energy  -25.16948483 # occ.  2.00000000
 
ion      s      p      d    tot
    1  0.000  0.073  0.000  0.073
    2  0.000  0.073  0.000  0.073
    3  0.000  0.297  0.000  0.297
    4  0.000  0.297  0.000  0.297
    5  0.000  0.115  0.000  0.115
    6  0.000  0.115  0.000  0.115
    7  0.000  0.005  0.000  0.005
    8  0.000  0.005  0.000  0.005
    9  0.000  0.000  0.000  0.000
   10  0.000  0.000  0.000  0.000
   11  0.000  0.000  0.000  0.000
   12  0.000  0.000  0.000  0.000
   13  0.000  0.000  0.000  0.000
   14  0.000  0.000  0.000  0.000
   15  0.000  0.000  0.000  0.000
   16  0.000  0.000  0.000  0.000
   17  0.000  0.000  0.000  0.000
tot    0.000  0.980  0.000  0.980
 
band    20 # energy  -25.16948483 # occ.  2.00000000
 
ion      s      p      d    tot
    1  0.000  0.073  0.000  0.073
    2  0.000  0.073  0.000  0.073
    3  0.000  0.115  0.000  0.115
    4  0.000  0.115  0.000  0.115
    5  0.000  0.297  0.000  0.297
    6  0.000  0.297  0.000  0.297
    7  0.000  0.005  0.000  0.005
    8  0.000  0.005  0.000  0.005
    9  0.000  0.000  0.000  0.000
   10  0.000  0.000  0.000  0.000
   11  0.000  0.000  0.000  0.000
   12  0.000  0.000  0.000  0.000
   13  0.000  0.000  0.000  0.000
   14  0.000  0.000  0.000  0.000
   15  0.000  0.000  0.000  0.000
   16  0.000  0.000  0.000  0.000
   17  0.000  0.000  0.000  0.000
tot    0.000  0.980  0.000  0.980
 
band    21 # energy  -25.04218572 # occ.  2.00000000
 
ion      s      p      d    tot
    1  0.000  0.000  0.000  0.000
    2  0.000  0.000  0.000  0.000
    3  0.000  0.001  0.000  0.001
    4  0.000  0.001  0.000  0.001
    5  0.000  0.001  0.000  0.001
    6  0.000  0.001  0.000  0.001
    7  0.000  0.488  0.000  0.488
    8  0.000  0.488  0.000  0.488
    9  0.000  0.000  0.000  0.000
   10  0.000  0.000  0.000  0.000
   11  0.000  0.000  0.000  0.000
   12  0.000  0.000  0.000  0.000
   13  0.000  0.000  0.000  0.000
   14  0.000  0.000  0.000  0.000
   15  0.000  0.000  0.000  0.000
   16  0.000  0.000  0.000  0.000
   17  0.001  0.000  0.001  0.002
tot    0.001  0.981  0.001  0.983
 
band    22 # energy  -24.99299621 # occ.  2.00000000
 
ion      s      p      d    tot
    1  0.000  0.001  0.000  0.001
    2  0.000  0.001  0.000  0.001
    3  0.000  0.001  0.000  0.001
    4  0.000  0.001  0.000  0.001
    5  0.000  0.001  0.000  0.001
    6  0.000  0.001  0.000  0.001
    7  0.000  0.489  0.000  0.489
    8  0.000  0.489  0.000  0.489
    9  0.000  0.000  0.000  0.000
   10  0.000  0.000  0.000  0.000
   11  0.000  0.000  0.000  0.000
   12  0.000  0.000  0.000  0.000
   13  0.000  0.000  0.000  0.000
   14  0.000  0.000  0.000  0.000
   15  0.000  0.000  0.000  0.000
   16  0.000  0.000  0.000  0.000
   17  0.000  0.001  0.000  0.001
tot    0.000  0.985  0.000  0.985
 
band    23 # energy  -24.98938112 # occ.  2.00000000
 
ion      s      p      d    tot
    1  0.000  0.488  0.000  0.488
    2  0.000  0.488  0.000  0.488
    3  0.000  0.002  0.000  0.002
    4  0.000  0.002  0.000  0.002
    5  0.000  0.002  0.000  0.002
    6  0.000  0.002  0.000  0.002
    7  0.000  0.000  0.000  0.000
    8  0.000  0.000  0.000  0.000
    9  0.000  0.000  0.000  0.000
   10  0.000  0.000  0.000  0.000
   11  0.000  0.000  0.000  0.000
   12  0.000  0.000  0.000  0.000
   13  0.000  0.000  0.000  0.000
   14  0.000  0.000  0.000  0.000
   15  0.000  0.000  0.000  0.000
   16  0.000  0.000  0.000  0.000
   17  0.000  0.000  0.000  0.000
tot    0.000  0.982  0.000  0.982
 
band    24 # energy  -24.97432237 # occ.  2.00000000
 
ion      s      p      d    tot
    1  0.000  0.488  0.000  0.488
    2  0.000  0.488  0.000  0.488
    3  0.000  0.001  0.000  0.001
    4  0.000  0.001  0.000  0.001
    5  0.000  0.001  0.000  0.001
    6  0.000  0.001  0.000  0.001
    7  0.000  0.001  0.000  0.001
    8  0.000  0.001  0.000  0.001
    9  0.000  0.000  0.000  0.000
   10  0.000  0.000  0.000  0.000
   11  0.000  0.000  0.000  0.000
   12  0.000  0.000  0.000  0.000
   13  0.000  0.000  0.000  0.000
   14  0.000  0.000  0.000  0.000
   15  0.000  0.000  0.000  0.000
   16  0.000  0.000  0.000  0.000
   17  0.000  0.000  0.000  0.000
tot    0.000  0.984  0.000  0.984
 
band    25 # energy  -24.83141251 # occ.  2.00000000
 
ion      s      p      d    tot
    1  0.000  0.007  0.000  0.007
    2  0.000  0.007  0.000  0.007
    3  0.000  0.044  0.000  0.044
    4  0.000  0.044  0.000  0.044
    5  0.000  0.037  0.000  0.037
    6  0.000  0.037  0.000  0.037
    7  0.000  0.406  0.000  0.406
    8  0.000  0.406  0.000  0.406
    9  0.000  0.000  0.000  0.000
   10  0.000  0.000  0.000  0.000
   11  0.000  0.000  0.000  0.000
   12  0.000  0.000  0.000  0.000
   13  0.000  0.000  0.000  0.000
   14  0.000  0.000  0.000  0.000
   15  0.000  0.000  0.000  0.000
   16  0.000  0.000  0.000  0.000
   17  0.000  0.000  0.000  0.000
tot    0.000  0.988  0.000  0.988
 
band    26 # energy  -24.83141251 # occ.  2.00000000
 
ion      s      p      d    tot
    1  0.000  0.007  0.000  0.007
    2  0.000  0.007  0.000  0.007
    3  0.000  0.037  0.000  0.037
    4  0.000  0.037  0.000  0.037
    5  0.000  0.044  0.000  0.044
    6  0.000  0.044  0.000  0.044
    7  0.000  0.406  0.000  0.406
    8  0.000  0.406  0.000  0.406
    9  0.000  0.000  0.000  0.000
   10  0.000  0.000  0.000  0.000
   11  0.000  0.000  0.000  0.000
   12  0.000  0.000  0.000  0.000
   13  0.000  0.000  0.000  0.000
   14  0.000  0.000  0.000  0.000
   15  0.000  0.000  0.000  0.000
   16  0.000  0.000  0.000  0.000
   17  0.000  0.000  0.000  0.000
tot    0.000  0.988  0.000  0.988
 
band    27 # energy  -24.82752971 # occ.  2.00000000
 
ion      s      p      d    tot
    1  0.000  0.008  0.000  0.008
    2  0.000  0.008  0.000  0.008
    3  0.000  0.067  0.000  0.067
    4  0.000  0.067  0.000  0.067
    5  0.000  0.011  0.000  0.011
    6  0.000  0.011  0.000  0.011
    7  0.000  0.407  0.000  0.407
    8  0.000  0.407  0.000  0.407
    9  0.000  0.000  0.000  0.000
   10  0.000  0.000  0.000  0.000
   11  0.000  0.000  0.000  0.000
   12  0.000  0.000  0.000  0.000
   13  0.000  0.000  0.000  0.000
   14  0.000  0.000  0.000  0.000
   15  0.000  0.000  0.000  0.000
   16  0.000  0.000  0.000  0.000
   17  0.000  0.000  0.000  0.000
tot    0.000  0.988  0.000  0.988
 
band    28 # energy  -24.82752971 # occ.  2.00000000
 
ion      s      p      d    tot
    1  0.000  0.008  0.000  0.008
    2  0.000  0.008  0.000  0.008
    3  0.000  0.011  0.000  0.011
    4  0.000  0.011  0.000  0.011
    5  0.000  0.067  0.000  0.067
    6  0.000  0.067  0.000  0.067
    7  0.000  0.407  0.000  0.407
    8  0.000  0.407  0.000  0.407
    9  0.000  0.000  0.000  0.000
   10  0.000  0.000  0.000  0.000
   11  0.000  0.000  0.000  0.000
   12  0.000  0.000  0.000  0.000
   13  0.000  0.000  0.000  0.000
   14  0.000  0.000  0.000  0.000
   15  0.000  0.000  0.000  0.000
   16  0.000  0.000  0.000  0.000
   17  0.000  0.000  0.000  0.000
tot    0.000  0.988  0.000  0.988
 
band    29 # energy  -24.75562267 # occ.  2.00000000
 
ion      s      p      d    tot
    1  0.000  0.399  0.000  0.399
    2  0.000  0.399  0.000  0.399
    3  0.000  0.057  0.000  0.057
    4  0.000  0.057  0.000  0.057
    5  0.000  0.033  0.000  0.033
    6  0.000  0.033  0.000  0.033
    7  0.000  0.005  0.000  0.005
    8  0.000  0.005  0.000  0.005
    9  0.000  0.000  0.000  0.000
   10  0.000  0.000  0.000  0.000
   11  0.000  0.000  0.000  0.000
   12  0.000  0.000  0.000  0.000
   13  0.000  0.000  0.000  0.000
   14  0.000  0.000  0.000  0.000
   15  0.000  0.000  0.000  0.000
   16  0.000  0.000  0.000  0.000
   17  0.000  0.000  0.000  0.000
tot    0.000  0.988  0.000  0.988
 
band    30 # energy  -24.75562267 # occ.  2.00000000
 
ion      s      p      d    tot
    1  0.000  0.399  0.000  0.399
    2  0.000  0.399  0.000  0.399
    3  0.000  0.033  0.000  0.033
    4  0.000  0.033  0.000  0.033
    5  0.000  0.057  0.000  0.057
    6  0.000  0.057  0.000  0.057
    7  0.000  0.005  0.000  0.005
    8  0.000  0.005  0.000  0.005
    9  0.000  0.000  0.000  0.000
   10  0.000  0.000  0.000  0.000
   11  0.000  0.000  0.000  0.000
   12  0.000  0.000  0.000  0.000
   13  0.000  0.000  0.000  0.000
   14  0.000  0.000  0.000  0.000
   15  0.000  0.000  0.000  0.000
   16  0.000  0.000  0.000  0.000
   17  0.000  0.000  0.000  0.000
tot    0.000  0.988  0.000  0.988
 
band    31 # energy  -24.75454332 # occ.  2.00000000
 
ion      s      p      d    tot
    1  0.000  0.399  0.000  0.399
    2  0.000  0.399  0.000  0.399
    3  0.000  0.034  0.000  0.034
    4  0.000  0.034  0.000  0.034
    5  0.000  0.056  0.000  0.056
    6  0.000  0.056  0.000  0.056
    7  0.000  0.005  0.000  0.005
    8  0.000  0.005  0.000  0.005
    9  0.000  0.000  0.000  0.000
   10  0.000  0.000  0.000  0.000
   11  0.000  0.000  0.000  0.000
   12  0.000  0.000  0.000  0.000
   13  0.000  0.000  0.000  0.000
   14  0.000  0.000  0.000  0.000
   15  0.000  0.000  0.000  0.000
   16  0.000  0.000  0.000  0.000
   17  0.000  0.000  0.000  0.000
tot    0.000  0.988  0.000  0.988
 
band    32 # energy  -24.75454332 # occ.  2.00000000
 
ion      s      p      d    tot
    1  0.000  0.399  0.000  0.399
    2  0.000  0.399  0.000  0.399
    3  0.000  0.056  0.000  0.056
    4  0.000  0.056  0.000  0.056
    5  0.000  0.034  0.000  0.034
    6  0.000  0.034  0.000  0.034
    7  0.000  0.005  0.000  0.005
    8  0.000  0.005  0.000  0.005
    9  0.000  0.000  0.000  0.000
   10  0.000  0.000  0.000  0.000
   11  0.000  0.000  0.000  0.000
   12  0.000  0.000  0.000  0.000
   13  0.000  0.000  0.000  0.000
   14  0.000  0.000  0.000  0.000
   15  0.000  0.000  0.000  0.000
   16  0.000  0.000  0.000  0.000
   17  0.000  0.000  0.000  0.000
tot    0.000  0.988  0.000  0.988
 
band    33 # energy   -7.42369733 # occ.  2.00000000
 
ion      s      p      d    tot
    1  0.000  0.000  0.000  0.000
    2  0.000  0.000  0.000  0.000
    3  0.000  0.000  0.000  0.000
    4  0.000  0.000  0.000  0.000
    5  0.000  0.000  0.000  0.000
    6  0.000  0.000  0.000  0.000
    7  0.000  0.000  0.000  0.000
    8  0.000  0.000  0.000  0.000
    9  0.000  0.000  0.000  0.000
   10  0.000  0.000  0.000  0.001
   11  0.000  0.000  0.000  0.000
   12  0.000  0.000  0.000  0.001
   13  0.000  0.000  0.000  0.000
   14  0.000  0.000  0.000  0.001
   15  0.000  0.000  0.000  0.000
   16  0.000  0.000  0.000  0.001
   17  0.000  0.000  0.983  0.983
tot    0.002  0.002  0.983  0.987
 
band    34 # energy   -7.32346971 # occ.  2.00000000
 
ion      s      p      d    tot
    1  0.000  0.000  0.000  0.000
    2  0.000  0.000  0.000  0.000
    3  0.000  0.000  0.000  0.000
    4  0.000  0.000  0.000  0.000
    5  0.000  0.000  0.000  0.000
    6  0.000  0.000  0.000  0.000
    7  0.000  0.001  0.001  0.002
    8  0.000  0.001  0.001  0.002
    9  0.000  0.000  0.000  0.000
   10  0.000  0.000  0.000  0.000
   11  0.000  0.000  0.000  0.000
   12  0.000  0.000  0.000  0.000
   13  0.000  0.000  0.000  0.000
   14  0.000  0.000  0.000  0.000
   15  0.000  0.000  0.000  0.000
   16  0.000  0.000  0.000  0.000
   17  0.000  0.000  0.984  0.984
tot    0.002  0.002  0.986  0.990
 
band    35 # energy   -7.29516159 # occ.  2.00000000
 
ion      s      p      d    tot
    1  0.000  0.000  0.000  0.000
    2  0.000  0.000  0.000  0.000
    3  0.000  0.000  0.000  0.000
    4  0.000  0.000  0.000  0.000
    5  0.000  0.000  0.000  0.000
    6  0.000  0.000  0.000  0.000
    7  0.000  0.000  0.000  0.000
    8  0.000  0.000  0.000  0.000
    9  0.000  0.000  0.000  0.000
   10  0.000  0.000  0.000  0.000
   11  0.000  0.000  0.000  0.000
   12  0.000  0.000  0.000  0.000
   13  0.000  0.000  0.000  0.000
   14  0.000  0.000  0.000  0.000
   15  0.000  0.000  0.000  0.000
   16  0.000  0.000  0.000  0.000
   17  0.000  0.000  0.986  0.986
tot    0.000  0.000  0.986  0.987
 
band    36 # energy   -7.24407333 # occ.  2.00000000
 
ion      s      p      d    tot
    1  0.000  0.000  0.000  0.000
    2  0.000  0.000  0.000  0.000
    3  0.000  0.000  0.000  0.000
    4  0.000  0.000  0.000  0.000
    5  0.000  0.000  0.000  0.000
    6  0.000  0.000  0.000  0.000
    7  0.000  0.000  0.000  0.000
    8  0.000  0.000  0.000  0.000
    9  0.000  0.000  0.000  0.000
   10  0.000  0.000  0.000  0.000
   11  0.000  0.000  0.000  0.000
   12  0.000  0.000  0.000  0.000
   13  0.000  0.000  0.000  0.000
   14  0.000  0.000  0.000  0.000
   15  0.000  0.000  0.000  0.000
   16  0.000  0.000  0.000  0.000
   17  0.000  0.000  0.987  0.987
tot    0.000  0.000  0.987  0.988
 
band    37 # energy   -7.24407333 # occ.  2.00000000
 
ion      s      p      d    tot
    1  0.000  0.000  0.000  0.000
    2  0.000  0.000  0.000  0.000
    3  0.000  0.000  0.000  0.000
    4  0.000  0.000  0.000  0.000
    5  0.000  0.000  0.000  0.000
    6  0.000  0.000  0.000  0.000
    7  0.000  0.000  0.000  0.000
    8  0.000  0.000  0.000  0.000
    9  0.000  0.000  0.000  0.000
   10  0.000  0.000  0.000  0.000
   11  0.000  0.000  0.000  0.000
   12  0.000  0.000  0.000  0.000
   13  0.000  0.000  0.000  0.000
   14  0.000  0.000  0.000  0.000
   15  0.000  0.000  0.000  0.000
   16  0.000  0.000  0.000  0.000
   17  0.000  0.000  0.987  0.987
tot    0.000  0.000  0.987  0.988
 
band    38 # energy   -1.82712799 # occ.  2.00000000
 
ion      s      p      d    tot
    1  0.005  0.000  0.000  0.006
    2  0.005  0.000  0.000  0.006
    3  0.006  0.001  0.000  0.007
    4  0.006  0.001  0.000  0.007
    5  0.006  0.001  0.000  0.007
    6  0.006  0.001  0.000  0.007
    7  0.008  0.001  0.002  0.011
    8  0.008  0.001  0.002  0.011
    9  0.004  0.000  0.000  0.004
   10  0.037  0.000  0.000  0.037
   11  0.004  0.000  0.000  0.004
   12  0.037  0.000  0.000  0.037
   13  0.004  0.000  0.000  0.004
   14  0.037  0.000  0.000  0.037
   15  0.004  0.000  0.000  0.004
   16  0.037  0.000  0.000  0.037
   17  0.196  0.000  0.002  0.198
tot    0.410  0.007  0.007  0.424
 
band    39 # energy    0.10891458 # occ.  2.00000000
 
ion      s      p      d    tot
    1  0.008  0.004  0.000  0.012
    2  0.008  0.004  0.000  0.012
    3  0.003  0.003  0.000  0.007
    4  0.003  0.003  0.000  0.007
    5  0.003  0.003  0.000  0.007
    6  0.003  0.003  0.000  0.007
    7  0.004  0.006  0.001  0.011
    8  0.004  0.006  0.001  0.011
    9  0.049  0.000  0.000  0.050
   10  0.003  0.001  0.000  0.004
   11  0.049  0.000  0.000  0.050
   12  0.003  0.001  0.000  0.004
   13  0.049  0.000  0.000  0.050
   14  0.003  0.001  0.000  0.004
   15  0.049  0.000  0.000  0.050
   16  0.003  0.001  0.000  0.004
   17  0.057  0.000  0.001  0.058
tot    0.305  0.038  0.003  0.346
 
band    40 # energy    1.48455676 # occ.  2.00000000
 
ion      s      p      d    tot
    1  0.010  0.005  0.005  0.019
    2  0.010  0.005  0.005  0.019
    3  0.000  0.001  0.003  0.004
    4  0.000  0.001  0.003  0.004
    5  0.000  0.001  0.003  0.004
    6  0.000  0.001  0.003  0.004
    7  0.009  0.001  0.006  0.015
    8  0.009  0.001  0.006  0.015
    9  0.001  0.001  0.000  0.002
   10  0.019  0.023  0.000  0.042
   11  0.001  0.001  0.000  0.002
   12  0.019  0.023  0.000  0.042
   13  0.001  0.001  0.000  0.002
   14  0.019  0.023  0.000  0.042
   15  0.001  0.001  0.000  0.002
   16  0.019  0.023  0.000  0.042
   17  0.181  0.000  0.000  0.181
tot    0.298  0.110  0.033  0.441
 
band    41 # energy    2.37845221 # occ.  2.00000000
 
ion      s      p      d    tot
    1  0.000  0.002  0.008  0.010
    2  0.000  0.002  0.008  0.010
    3  0.000  0.003  0.009  0.012
    4  0.000  0.003  0.009  0.012
    5  0.000  0.003  0.010  0.013
    6  0.000  0.003  0.010  0.013
    7  0.000  0.001  0.007  0.008
    8  0.000  0.001  0.007  0.008
    9  0.000  0.000  0.000  0.000
   10  0.010  0.002  0.000  0.012
   11  0.000  0.000  0.000  0.000
   12  0.105  0.002  0.000  0.107
   13  0.000  0.000  0.000  0.000
   14  0.105  0.002  0.000  0.107
   15  0.000  0.000  0.000  0.000
   16  0.010  0.002  0.000  0.012
   17  0.000  0.086  0.000  0.086
tot    0.232  0.112  0.067  0.411
 
band    42 # energy    2.37845221 # occ.  2.00000000
 
ion      s      p      d    tot
    1  0.000  0.002  0.008  0.010
    2  0.000  0.002  0.008  0.010
    3  0.000  0.003  0.010  0.013
    4  0.000  0.003  0.010  0.013
    5  0.000  0.003  0.009  0.012
    6  0.000  0.003  0.009  0.012
    7  0.000  0.001  0.007  0.008
    8  0.000  0.001  0.007  0.008
    9  0.000  0.000  0.000  0.000
   10  0.105  0.002  0.000  0.107
   11  0.000  0.000  0.000  0.000
   12  0.010  0.002  0.000  0.012
   13  0.000  0.000  0.000  0.000
   14  0.010  0.002  0.000  0.012
   15  0.000  0.000  0.000  0.000
   16  0.105  0.002  0.000  0.107
   17  0.000  0.086  0.000  0.086
tot    0.232  0.112  0.067  0.411
 
band    43 # energy    2.65869299 # occ.  2.00000000
 
ion      s      p      d    tot
    1  0.025  0.000  0.002  0.027
    2  0.025  0.000  0.002  0.027
    3  0.023  0.000  0.003  0.025
    4  0.023  0.000  0.003  0.025
    5  0.023  0.000  0.003  0.025
    6  0.023  0.000  0.003  0.025
    7  0.023  0.001  0.001  0.025
    8  0.023  0.001  0.001  0.025