<?xml version="1.0" encoding="ISO-8859-1"?>
<modeling>
 <generator>
  <i name="program" type="string">vasp </i>
  <i name="version" type="string">6.5.0  </i>
  <i name="subversion" type="string">16Dec24 (build Apr 17 2025 17:55:45) complex                          parallel </i>
  <i name="platform" type="string">LinuxIFC </i>
  <i name="date" type="string">2025 06 04 </i>
  <i name="time" type="string">14:39:28 </i>
 </generator>
 <incar>
  <i type="int" name="ISTART">     1</i>
  <i type="string" name="PREC">N</i>
  <i type="string" name="ALGO">N</i>
  <i type="int" name="ICHARG">    11</i>
  <i type="int" name="NELM">   500</i>
  <i type="int" name="IBRION">    -1</i>
  <i name="EDIFF">      0.00000100</i>
  <i name="EDIFFG">     -0.01000000</i>
  <i type="int" name="NSW">     0</i>
  <i type="int" name="ISIF">     3</i>
  <i name="SYMPREC">      0.00000100</i>
  <i name="ENCUT">    520.00000000</i>
  <i type="int" name="NEDOS">  1000</i>
  <i type="logical" name="LREAL"> F  </i>
  <i type="int" name="ISMEAR">     1</i>
  <i name="SIGMA">      0.10000000</i>
  <i type="int" name="LORBIT">    10</i>
  <i type="logical" name="LAECHG"> T  </i>
 </incar>
 <primitive_cell>
  <structure name="primitive_cell" >
   <crystal>
    <varray name="basis" >
     <v>       5.85845550       0.00000000       0.00000000 </v>
     <v>       0.00000000       5.85845550       0.00000000 </v>
     <v>       0.00000000       0.00000000       8.30027397 </v>
    </varray>
    <i name="volume">    284.87786034 </i>
    <varray name="rec_basis" >
     <v>       0.17069345       0.00000000       0.00000000 </v>
     <v>       0.00000000       0.17069345       0.00000000 </v>
     <v>       0.00000000       0.00000000       0.12047795 </v>
    </varray>
   </crystal>
   <varray name="positions" >
    <v>       0.00000000       0.00000000       0.01867368 </v>
    <v>       0.00000000       0.00000000       0.48132632 </v>
    <v>       0.00000000       0.50000000       0.99550713 </v>
    <v>       0.00000000       0.50000000       0.50449287 </v>
    <v>       0.50000000       0.00000000       0.99550713 </v>
    <v>       0.50000000       0.00000000       0.50449287 </v>
    <v>       0.50000000       0.50000000       0.04638282 </v>
    <v>       0.50000000       0.50000000       0.45361718 </v>
    <v>       0.24268531       0.24268531       0.25000000 </v>
    <v>       0.21391683       0.21391683       0.75000000 </v>
    <v>       0.24268531       0.75731469       0.25000000 </v>
    <v>       0.21391683       0.78608317       0.75000000 </v>
    <v>       0.75731469       0.24268531       0.25000000 </v>
    <v>       0.78608317       0.21391683       0.75000000 </v>
    <v>       0.75731469       0.75731469       0.25000000 </v>
    <v>       0.78608317       0.78608317       0.75000000 </v>
    <v>       0.50000000       0.50000000       0.75000000 </v>
   </varray>
  </structure>
  <varray name="primitive_index" >
   <v type="int" >        1 </v>
   <v type="int" >        2 </v>
   <v type="int" >        3 </v>
   <v type="int" >        4 </v>
   <v type="int" >        5 </v>
   <v type="int" >        6 </v>
   <v type="int" >        7 </v>
   <v type="int" >        8 </v>
   <v type="int" >        9 </v>
   <v type="int" >       10 </v>
   <v type="int" >       11 </v>
   <v type="int" >       12 </v>
   <v type="int" >       13 </v>
   <v type="int" >       14 </v>
   <v type="int" >       15 </v>
   <v type="int" >       16 </v>
   <v type="int" >       17 </v>
  </varray>
 </primitive_cell>
 <kpoints>
  <generation param="Gamma">
   <v type="int" name="divisions">       3        3        2 </v>
   <v name="usershift">      0.00000000       0.00000000       0.00000000 </v>
   <v name="genvec1">      0.33333333       0.00000000       0.00000000 </v>
   <v name="genvec2">      0.00000000       0.33333333       0.00000000 </v>
   <v name="genvec3">      0.00000000       0.00000000       0.50000000 </v>
   <v name="shift">      0.00000000       0.00000000       0.00000000 </v>
  </generation>
  <varray name="kpointlist" >
   <v>       0.00000000       0.00000000       0.00000000 </v>
   <v>       0.33333333       0.00000000       0.00000000 </v>
   <v>       0.33333333       0.33333333       0.00000000 </v>
   <v>       0.00000000       0.00000000       0.50000000 </v>
   <v>       0.33333333       0.00000000       0.50000000 </v>
   <v>       0.33333333       0.33333333       0.50000000 </v>
  </varray>
  <varray name="weights" >
   <v>       0.05555556 </v>
   <v>       0.22222222 </v>
   <v>       0.22222222 </v>
   <v>       0.05555556 </v>
   <v>       0.22222222 </v>
   <v>       0.22222222 </v>
  </varray>
 </kpoints>
 <parameters>
  <separator name="general" >
   <i type="string" name="SYSTEM">unknown system</i>
   <i type="logical" name="LCOMPAT"> F  </i>
  </separator>
  <separator name="electronic" >
   <i type="string" name="PREC">n</i>
   <i name="ENMAX">    520.00000000</i>
   <i name="ENAUG">    490.69000000</i>
   <i name="EDIFF">      0.00000100</i>
   <i type="int" name="IALGO">    38</i>
   <i type="int" name="IWAVPR">    10</i>
   <i type="int" name="NBANDS">   128</i>
   <i type="int" name="NBANDSLOW">    -1</i>
   <i type="int" name="NBANDSHIGH">    -1</i>
   <i name="NELECT">    133.00000000</i>
   <i type="int" name="TURBO">     0</i>
   <i type="int" name="IRESTART">     0</i>
   <i type="int" name="NREBOOT">     0</i>
   <i type="int" name="NMIN">     0</i>
   <i name="EREF">      0.00000000</i>
   <separator name="electronic smearing" >
    <i type="int" name="ISMEAR">     1</i>
    <i name="SIGMA">      0.10000000</i>
    <i name="KSPACING">      0.50000000</i>
    <i type="logical" name="KGAMMA"> T  </i>
    <i type="logical" name="KBLOWUP"> T  </i>
   </separator>
   <separator name="electronic projectors" >
    <i type="logical" name="LREAL"> F  </i>
    <v name="ROPT">      0.00000000      0.00000000      0.00000000</v>
    <i type="int" name="LMAXPAW">  -100</i>
    <i type="int" name="LMAXMIX">     2</i>
    <i type="logical" name="NLSPLINE"> F  </i>
   </separator>
   <separator name="electronic startup" >
    <i type="int" name="ISTART">     0</i>
    <i type="int" name="ICHARG">    11</i>
    <i type="int" name="INIWAV">     1</i>
   </separator>
   <separator name="electronic spin" >
    <i type="int" name="ISPIN">     1</i>
    <i type="logical" name="LNONCOLLINEAR"> F  </i>
    <v name="MAGMOM">      1.00000000      1.00000000      1.00000000      1.00000000      1.00000000      1.00000000      1.00000000      1.00000000      1.00000000      1.00000000      1.00000000      1.00000000      1.00000000      1.00000000      1.00000000      1.00000000      1.00000000</v>
    <i name="NUPDOWN">     -1.00000000</i>
    <i type="logical" name="LSORBIT"> F  </i>
    <v name="SAXIS">      0.00000000      0.00000000      1.00000000</v>
    <i type="logical" name="LSPIRAL"> F  </i>
    <v name="QSPIRAL">      0.00000000      0.00000000      0.00000000</v>
    <i type="logical" name="LZEROZ"> F  </i>
   </separator>
   <separator name="electronic exchange-correlation" >
    <i type="logical" name="LASPH"> F  </i>
   </separator>
   <separator name="electronic convergence" >
    <i type="int" name="NELM">   500</i>
    <i type="int" name="NELMDL">     0</i>
    <i type="int" name="NELMIN">     2</i>
    <i name="ENINI">    520.00000000</i>
    <separator name="electronic convergence detail" >
     <i type="logical" name="LDIAG"> T  </i>
     <i type="logical" name="LSUBROT"> F  </i>
     <i name="WEIMIN">      0.00000000</i>
     <i name="EBREAK">      0.00000000</i>
     <i name="DEPER">      0.30000000</i>
     <i type="int" name="NRMM">     4</i>
     <i name="TIME">      0.40000000</i>
    </separator>
   </separator>
   <separator name="electronic mixer" >
    <i name="AMIX">      0.40000000</i>
    <i name="BMIX">      1.00000000</i>
    <i name="AMIN">      0.10000000</i>
    <i name="AMIX_MAG">      1.60000000</i>
    <i name="BMIX_MAG">      1.00000000</i>
    <separator name="electronic mixer details" >
     <i type="int" name="IMIX">     4</i>
     <i type="logical" name="MIXFIRST"> F  </i>
     <i type="int" name="MAXMIX">   -45</i>
     <i name="WC">    100.00000000</i>
     <i type="int" name="INIMIX">     1</i>
     <i type="int" name="MIXPRE">     1</i>
     <i type="int" name="MREMOVE">     5</i>
    </separator>
   </separator>
   <separator name="electronic dipolcorrection" >
    <i type="logical" name="LDIPOL"> F  </i>
    <i type="logical" name="LMONO"> F  </i>
    <i type="int" name="IDIPOL">     0</i>
    <i name="EPSILON">      1.00000000</i>
    <v name="DIPOL">   -100.00000000   -100.00000000   -100.00000000</v>
    <i name="EFIELD">      0.00000000</i>
    <i type="logical" name="LVACPOTAV"> F  </i>
   </separator>
  </separator>
  <separator name="grids" >
   <i type="int" name="NGX">    36</i>
   <i type="int" name="NGY">    36</i>
   <i type="int" name="NGZ">    48</i>
   <i type="int" name="NGXF">    72</i>
   <i type="int" name="NGYF">    72</i>
   <i type="int" name="NGZF">    96</i>
   <i type="logical" name="ADDGRID"> F  </i>
  </separator>
  <separator name="ionic" >
   <i type="int" name="NSW">     0</i>
   <i type="int" name="IBRION">    -1</i>
   <i type="int" name="MDALGO">     0</i>
   <i type="int" name="ISIF">     3</i>
   <i name="PSTRESS">      0.00000000</i>
   <i name="EDIFFG">     -0.01000000</i>
   <i type="int" name="NFREE">     0</i>
   <i name="POTIM">      0.50000000</i>
   <i name="SMASS">     -3.00000000</i>
   <i name="SCALEE">      1.00000000</i>
  </separator>
  <separator name="ionic md" >
   <i name="TEBEG">      0.00010000</i>
   <i name="TEEND">      0.00010000</i>
   <i type="int" name="NBLOCK">     1</i>
   <i type="int" name="KBLOCK">     1</i>
   <i type="int" name="NPACO">   256</i>
   <i name="APACO">     10.00000000</i>
  </separator>
  <separator name="symmetry" >
   <i type="int" name="ISYM">     2</i>
   <i name="SYMPREC">      0.00000100</i>
  </separator>
  <separator name="dos" >
   <i type="int" name="LORBIT">    10</i>
   <v name="RWIGS">     -1.00000000     -1.00000000     -1.00000000</v>
   <i type="int" name="NEDOS">  1000</i>
   <i name="EMIN">     10.00000000</i>
   <i name="EMAX">    -10.00000000</i>
   <i name="EFERMI">      0.00000000</i>
  </separator>
  <separator name="writing" >
   <i type="int" name="NWRITE">     2</i>
   <i type="logical" name="LWAVE"> T  </i>
   <i type="logical" name="LDOWNSAMPLE"> F  </i>
   <i type="logical" name="LCHARG"> T  </i>
   <i type="logical" name="LPARD"> F  </i>
   <i type="logical" name="LVTOT"> F  </i>
   <i type="logical" name="LVHAR"> F  </i>
   <i type="logical" name="LELF"> F  </i>
   <i type="logical" name="LOPTICS"> F  </i>
   <v name="STM">      0.00000000      0.00000000      0.00000000      0.00000000      0.00000000      0.00000000      0.00000000</v>
  </separator>
  <separator name="performance" >
   <i type="int" name="NPAR">    64</i>
   <i type="int" name="NSIM">     4</i>
   <i type="int" name="NBLK">    -1</i>
   <i type="logical" name="LPLANE"> T  </i>
   <i type="logical" name="LSCALAPACK"> T  </i>
   <i type="logical" name="LSCAAWARE"> F  </i>
   <i type="logical" name="LSCALU"> F  </i>
   <i type="logical" name="LASYNC"> F  </i>
   <i type="logical" name="LORBITALREAL"> F  </i>
  </separator>
  <separator name="miscellaneous" >
   <i type="int" name="IDIOT">     3</i>
   <i type="int" name="PHON_NSTRUCT">    -1</i>
   <i type="logical" name="LMUSIC"> F  </i>
   <v name="POMASS">     47.88000000     26.98100000     69.72300000</v>
   <v name="DARWINR">      0.00000000      0.00000000      0.00000000</v>
   <v name="DARWINV">      1.00000000      1.00000000      1.00000000</v>
   <i type="logical" name="LCORR"> T  </i>
  </separator>
  <i type="logical" name="GGA_COMPAT"> T  </i>
  <i type="logical" name="LBERRY"> F  </i>
  <i type="int" name="ICORELEVEL">     0</i>
  <i type="logical" name="LDAU"> F  </i>
  <i type="int" name="I_CONSTRAINED_M">     0</i>
  <separator name="electronic exchange-correlation" >
   <i type="string" name="GGA    ">PE</i>
   <i type="string" name="XC_C">1</i>
   <i type="int" name="VOSKOWN">     0</i>
   <i type="logical" name="LHFCALC"> F  </i>
   <i type="string" name="PRECFOCK"></i>
   <i type="logical" name="LSYMGRAD"> F  </i>
   <i type="logical" name="LHFONE"> F  </i>
   <i type="logical" name="LRHFCALC"> F  </i>
   <i type="logical" name="LTHOMAS"> F  </i>
   <i type="logical" name="LMODELHF"> F  </i>
   <i type="logical" name="LFOCKACE"> F  </i>
   <i name="ENCUT4O">     -1.00000000</i>
   <i type="int" name="EXXOEP">     0</i>
   <i type="int" name="FOURORBIT">     0</i>
   <i name="AEXX">      0.00000000</i>
   <i name="HFALPHA">      0.00000000</i>
   <i name="MCALPHA">      0.00000000</i>
   <i name="ALDAX">      1.00000000</i>
   <i name="AGGAX">      1.00000000</i>
   <i name="AMGGAX">      1.00000000</i>
   <i name="ALDAC">      1.00000000</i>
   <i name="AGGAC">      1.00000000</i>
   <i name="AMGGAC">      1.00000000</i>
   <i type="int" name="NKREDX">     1</i>
   <i type="int" name="NKREDY">     1</i>
   <i type="int" name="NKREDZ">     1</i>
   <i type="logical" name="SHIFTRED"> F  </i>
   <i type="logical" name="ODDONLY"> F  </i>
   <i type="logical" name="EVENONLY"> F  </i>
   <i type="int" name="LMAXFOCK">     0</i>
   <i type="int" name="NMAXFOCKAE">     0</i>
   <i type="logical" name="LFOCKAEDFT"> F  </i>
   <i name="HFSCREEN">      0.00000000</i>
   <i name="HFSCREENC">      0.00000000</i>
   <i type="int" name="NBANDSGWLOW">     0</i>
  </separator>
  <separator name="vdW DFT" >
   <i type="logical" name="LUSE_VDW"> F  </i>
   <i type="int" name="IVDW_NL">    -1</i>
   <i type="logical" name="LSPIN_VDW"> F  </i>
   <i name="ZAB_VDW">     -0.84910000</i>
   <i name="GAMMA_VDW">      1.39626340</i>
   <i name="ALPHA_VDW">      0.00000000</i>
   <i name="PARAM1">      0.12340000</i>
   <i name="PARAM2">      1.00000000</i>
   <i name="BPARAM">      6.30000000</i>
   <i name="CPARAM">      0.00930000</i>
  </separator>
  <separator name="model GW" >
   <i type="int" name="MODEL_GW">     0</i>
   <i name="MODEL_EPS0">     10.05451272</i>
   <i name="MODEL_ALPHA">      1.00000000</i>
  </separator>
  <separator name="linear response parameters" >
   <i type="logical" name="LEPSILON"> F  </i>
   <i type="logical" name="LRPA"> F  </i>
   <i type="logical" name="LNABLA"> F  </i>
   <i type="logical" name="LVEL"> F  </i>
   <i name="CSHIFT">      0.10000000</i>
   <i name="OMEGAMAX">     -1.00000000</i>
   <i name="DEG_THRESHOLD">      0.00200000</i>
   <i name="RTIME">     -0.10000000</i>
   <i name="WPLASMAI">      0.00000000</i>
   <v name="DFIELD">      0.00000000      0.00000000      0.00000000</v>
   <v name="WPLASMA">      0.00000000      0.00000000      0.00000000      0.00000000      0.00000000      0.00000000      0.00000000      0.00000000      0.00000000</v>
  </separator>
  <separator name="orbital magnetization" >
   <i type="logical" name="NUCIND"> F  </i>
   <v name="MAGPOS">      0.00000000      0.00000000      0.00000000</v>
   <i type="logical" name="LNICSALL"> T  </i>
   <i type="logical" name="ORBITALMAG"> F  </i>
   <i type="logical" name="LMAGBLOCH"> F  </i>
   <i type="logical" name="LCHIMAG"> F  </i>
   <i type="logical" name="LGAUGE"> T  </i>
   <i type="int" name="MAGATOM">     0</i>
   <v name="MAGDIPOL">      0.00000000      0.00000000      0.00000000</v>
   <v name="AVECCONST">      0.00000000      0.00000000      0.00000000</v>
  </separator>
  <separator name="response functions" >
   <i type="logical" name="LALL_IN_ONE"> F  </i>
   <i type="int" name="IALL_IN_ONE">    -1</i>
   <i type="int" name="NBANDS_WAVE">    -1</i>
   <i type="logical" name="LFINITE_TEMPERATURE"> F  </i>
   <i type="logical" name="LADDER"> F  </i>
   <i type="logical" name="LRPAFORCE"> F  </i>
   <i type="logical" name="LFXC"> F  </i>
   <i type="logical" name="LHARTREE"> T  </i>
   <i type="int" name="IBSE">     2</i>
   <v type="int" name="KPOINT">    -1     0     0     0</v>
   <i type="logical" name="LTCTC"> F  </i>
   <i type="logical" name="LTCTE"> F  </i>
   <i type="logical" name="LTETE"> F  </i>
   <i type="logical" name="LTRIPLET"> F  </i>
   <i type="logical" name="LFXCEPS"> F  </i>
   <i type="logical" name="LFXHEG"> F  </i>
   <i type="int" name="NATURALO">     2</i>
   <i type="logical" name="LHOLEGF"> F  </i>
   <i type="logical" name="L2ORDER"> F  </i>
   <i type="logical" name="LDMP1"> F  </i>
   <i type="logical" name="LMP2LT"> F  </i>
   <i type="logical" name="LSMP2LT"> F  </i>
   <i type="logical" name="LGWLF"> F  </i>
   <i name="ENCUTGW">     -1.60000002</i>
   <i name="ENCUTGWSOFT">     -1.60000002</i>
   <i name="ENCUTLF">     -1.00000000</i>
   <i type="logical" name="ESF_SPLINES"> F  </i>
   <i name="ESF_CONV">      0.01000000</i>
   <i type="int" name="ESF_NINTER">    15</i>
   <i type="int" name="LMAXMP2">    -1</i>
   <i name="SCISSOR">      0.00000000</i>
   <i type="int" name="NOMEGA">     0</i>
   <i type="int" name="NOMEGAR">     0</i>
   <i type="int" name="NBANDSGW">    -1</i>
   <i type="int" name="NBANDSO">    -1</i>
   <i type="int" name="NBANDSV">    -1</i>
   <i type="int" name="NELMGW">     1</i>
   <i type="int" name="NELMHF">     1</i>
   <i type="int" name="DIM">     3</i>
   <i type="int" name="IESPILON">     4</i>
   <i type="int" name="ANTIRES">     0</i>
   <i name="OMEGAMAX">    -30.00000000</i>
   <i name="OMEGAMIN">    -30.00000000</i>
   <i name="OMEGATL">   -200.00000000</i>
   <i type="int" name="OMEGAGRID">     0</i>
   <i name="CSHIFT">     -0.10000000</i>
   <i type="logical" name="LSELFENERGY"> F  </i>
   <i type="logical" name="LSPECTRAL"> F  </i>
   <i type="logical" name="LSPECTRALGW"> F  </i>
   <i type="logical" name="LSINGLES"> F  </i>
   <i type="logical" name="LFERMIGW"> F  </i>
   <i type="logical" name="ODDONLYGW"> F  </i>
   <i type="logical" name="EVENONLYGW"> F  </i>
   <i type="int" name="NKREDLFX">     1</i>
   <i type="int" name="NKREDLFY">     1</i>
   <i type="int" name="NKREDLFZ">     1</i>
   <i type="int" name="MAXMEM">  2800</i>
   <i type="int" name="TELESCOPE">     0</i>
   <i type="int" name="NTAUPAR">    -1</i>
   <i type="int" name="NOMEGAPAR">    -1</i>
   <i name="DAMP_NEWTON">      0.80000001</i>
   <i name="LAMBDA">      1.00000000</i>
  </separator>
  <separator name="External order field" >
   <i name="OFIELD_KAPPA">      0.00000000</i>
   <v name="OFIELD_K">      0.00000000      0.00000000      0.00000000</v>
   <i name="OFIELD_Q6_NEAR">      0.00000000</i>
   <i name="OFIELD_Q6_FAR">      0.00000000</i>
   <i name="OFIELD_A">      0.00000000</i>
  </separator>
  <separator name="optional k-points parameters" >
   <i type="int" name="KPOINTS_OPT_MODE">     1</i>
   <i type="logical" name="LKPOINTS_OPT"> F  </i>
  </separator>
 </parameters>
 <atominfo>
  <atoms>      17 </atoms>
  <types>       3 </types>
  <array name="atoms" >
   <dimension dim="1">ion</dimension>
   <field type="string">element</field>
   <field type="int">atomtype</field>
   <set>
    <rc><c>Ti</c><c>   1</c></rc>
    <rc><c>Ti</c><c>   1</c></rc>
    <rc><c>Ti</c><c>   1</c></rc>
    <rc><c>Ti</c><c>   1</c></rc>
    <rc><c>Ti</c><c>   1</c></rc>
    <rc><c>Ti</c><c>   1</c></rc>
    <rc><c>Ti</c><c>   1</c></rc>
    <rc><c>Ti</c><c>   1</c></rc>
    <rc><c>Al</c><c>   2</c></rc>
    <rc><c>Al</c><c>   2</c></rc>
    <rc><c>Al</c><c>   2</c></rc>
    <rc><c>Al</c><c>   2</c></rc>
    <rc><c>Al</c><c>   2</c></rc>
    <rc><c>Al</c><c>   2</c></rc>
    <rc><c>Al</c><c>   2</c></rc>
    <rc><c>Al</c><c>   2</c></rc>
    <rc><c>Ga</c><c>   3</c></rc>
   </set>
  </array>
  <array name="atomtypes" >
   <dimension dim="1">type</dimension>
   <field type="int">atomspertype</field>
   <field type="string">element</field>
   <field>mass</field>
   <field>valence</field>
   <field type="string">pseudopotential</field>
   <set>
    <rc><c>   8</c><c>Ti</c><c>     47.88000000</c><c>     12.00000000</c><c>  PAW_PBE Ti_sv 26Sep2005               </c></rc>
    <rc><c>   8</c><c>Al</c><c>     26.98100000</c><c>      3.00000000</c><c>  PAW_PBE Al 04Jan2001                  </c></rc>
    <rc><c>   1</c><c>Ga</c><c>     69.72300000</c><c>     13.00000000</c><c>  PAW_PBE Ga_d 06Jul2010                </c></rc>
   </set>
  </array>
 </atominfo>
 <structure name="initialpos" >
  <crystal>
   <varray name="basis" >
    <v>       5.85845550       0.00000000       0.00000000 </v>
    <v>       0.00000000       5.85845550       0.00000000 </v>
    <v>       0.00000000       0.00000000       8.30027397 </v>
   </varray>
   <i name="volume">    284.87786034 </i>
   <varray name="rec_basis" >
    <v>       0.17069345       0.00000000       0.00000000 </v>
    <v>       0.00000000       0.17069345       0.00000000 </v>
    <v>       0.00000000       0.00000000       0.12047795 </v>
   </varray>
  </crystal>
  <varray name="positions" >
   <v>       0.00000000       0.00000000       0.01867368 </v>
   <v>       0.00000000       0.00000000       0.48132632 </v>
   <v>       0.00000000       0.50000000       0.99550713 </v>
   <v>       0.00000000       0.50000000       0.50449287 </v>
   <v>       0.50000000       0.00000000       0.99550713 </v>
   <v>       0.50000000       0.00000000       0.50449287 </v>
   <v>       0.50000000       0.50000000       0.04638282 </v>
   <v>       0.50000000       0.50000000       0.45361718 </v>
   <v>       0.24268531       0.24268531       0.25000000 </v>
   <v>       0.21391683       0.21391683       0.75000000 </v>
   <v>       0.24268531       0.75731469       0.25000000 </v>
   <v>       0.21391683       0.78608317       0.75000000 </v>
   <v>       0.75731469       0.24268531       0.25000000 </v>
   <v>       0.78608317       0.21391683       0.75000000 </v>
   <v>       0.75731469       0.75731469       0.25000000 </v>
   <v>       0.78608317       0.78608317       0.75000000 </v>
   <v>       0.50000000       0.50000000       0.75000000 </v>
  </varray>
 </structure>
 <calculation>
  <scstep>
   <time name="dav">    0.83    0.83</time>
   <time name="total">    0.84    0.84</time>
   <energy>
    <i name="alphaZ">    353.75656847 </i>
    <i name="ewald">  -9823.54474122 </i>
    <i name="hartreedc">  -4574.44964710 </i>
    <i name="XCdc">    321.98796991 </i>
    <i name="pawpsdc">  14842.87852822 </i>
    <i name="pawaedc"> -14742.74479515 </i>
    <i name="eentropy">     -0.01278567 </i>
    <i name="bandstr">   -650.59438287 </i>
    <i name="atom">  15281.81476201 </i>
    <i name="e_fr_energy">   1009.09147661 </i>
    <i name="e_wo_entrp">   1009.10426228 </i>
    <i name="e_0_energy">   1009.09573850 </i>
   </energy>
  </scstep>
  <scstep>
   <time name="dav">    0.85    0.85</time>
   <time name="total">    0.85    0.85</time>
   <energy>
    <i name="e_fr_energy">     -9.91502603 </i>
    <i name="e_wo_entrp">     -9.91325265 </i>
    <i name="e_0_energy">     -9.91443491 </i>
   </energy>
  </scstep>
  <scstep>
   <time name="dav">    2.37    2.37</time>
   <time name="total">    2.37    2.37</time>
   <energy>
    <i name="e_fr_energy">    -95.71768427 </i>
    <i name="e_wo_entrp">    -95.72893128 </i>
    <i name="e_0_energy">    -95.72143327 </i>
   </energy>
  </scstep>
  <scstep>
   <time name="dav">    0.81    0.81</time>
   <time name="total">    0.81    0.81</time>
   <energy>
    <i name="e_fr_energy">    -98.55670631 </i>
    <i name="e_wo_entrp">    -98.56803793 </i>
    <i name="e_0_energy">    -98.56048351 </i>
   </energy>
  </scstep>
  <scstep>
   <time name="dav">    1.79    1.79</time>
   <time name="total">    1.79    1.79</time>
   <energy>
    <i name="e_fr_energy">    -98.63489806 </i>
    <i name="e_wo_entrp">    -98.64623195 </i>
    <i name="e_0_energy">    -98.63867602 </i>
   </energy>
  </scstep>
  <scstep>
   <time name="dav">    1.08    1.08</time>
   <time name="total">    1.08    1.08</time>
   <energy>
    <i name="e_fr_energy">    -98.63595105 </i>
    <i name="e_wo_entrp">    -98.64728493 </i>
    <i name="e_0_energy">    -98.63972901 </i>
   </energy>
  </scstep>
  <scstep>
   <time name="dav">    1.89    1.89</time>
   <time name="total">    1.89    1.89</time>
   <energy>
    <i name="e_fr_energy">    -98.63600256 </i>
    <i name="e_wo_entrp">    -98.64733644 </i>
    <i name="e_0_energy">    -98.63978052 </i>
   </energy>
  </scstep>
  <scstep>
   <time name="dav">    0.97    0.97</time>
   <time name="total">    0.98    0.98</time>
   <energy>
    <i name="alphaZ">    353.75656847 </i>
    <i name="ewald">  -9823.54474122 </i>
    <i name="hartreedc">  -4574.44964710 </i>
    <i name="XCdc">    321.98796991 </i>
    <i name="pawpsdc">  14842.87852822 </i>
    <i name="pawaedc"> -14742.74479515 </i>
    <i name="eentropy">      0.01133388 </i>
    <i name="bandstr">  -1758.34598176 </i>
    <i name="atom">  15281.81476201 </i>
    <i name="e_fr_energy">    -98.63600274 </i>
    <i name="e_wo_entrp">    -98.64733661 </i>
    <i name="e_0_energy">    -98.63978069 </i>
   </energy>
  </scstep>
  <structure>
   <crystal>
    <varray name="basis" >
     <v>       5.85845550       0.00000000       0.00000000 </v>
     <v>       0.00000000       5.85845550       0.00000000 </v>
     <v>       0.00000000       0.00000000       8.30027397 </v>
    </varray>
    <i name="volume">    284.87786034 </i>
    <varray name="rec_basis" >
     <v>       0.17069345       0.00000000       0.00000000 </v>
     <v>       0.00000000       0.17069345       0.00000000 </v>
     <v>       0.00000000       0.00000000       0.12047795 </v>
    </varray>
   </crystal>
   <varray name="positions" >
    <v>       0.00000000       0.00000000       0.01867368 </v>
    <v>       0.00000000       0.00000000       0.48132632 </v>
    <v>       0.00000000       0.50000000       0.99550713 </v>
    <v>       0.00000000       0.50000000       0.50449287 </v>
    <v>       0.50000000       0.00000000       0.99550713 </v>
    <v>       0.50000000       0.00000000       0.50449287 </v>
    <v>       0.50000000       0.50000000       0.04638282 </v>
    <v>       0.50000000       0.50000000       0.45361718 </v>
    <v>       0.24268531       0.24268531       0.25000000 </v>
    <v>       0.21391683       0.21391683       0.75000000 </v>
    <v>       0.24268531       0.75731469       0.25000000 </v>
    <v>       0.21391683       0.78608317       0.75000000 </v>
    <v>       0.75731469       0.24268531       0.25000000 </v>
    <v>       0.78608317       0.21391683       0.75000000 </v>
    <v>       0.75731469       0.75731469       0.25000000 </v>
    <v>       0.78608317       0.78608317       0.75000000 </v>
    <v>       0.50000000       0.50000000       0.75000000 </v>
   </varray>
  </structure>
  <varray name="forces" >
   <v>      -0.00000000       0.00000000      -0.07206586 </v>
   <v>      -0.00000000       0.00000000       0.07206586 </v>
   <v>      -0.00000000       0.00000000       0.00598003 </v>
   <v>      -0.00000000       0.00000000      -0.00598003 </v>
   <v>      -0.00000000       0.00000000       0.00598003 </v>
   <v>      -0.00000000       0.00000000      -0.00598003 </v>
   <v>      -0.00000000       0.00000000      -0.03413795 </v>
   <v>      -0.00000000       0.00000000       0.03413795 </v>
   <v>       0.01044445       0.01044445       0.00000000 </v>
   <v>      -0.07474702      -0.07474702       0.00000000 </v>
   <v>       0.01044445      -0.01044445       0.00000000 </v>
   <v>      -0.07474702       0.07474702       0.00000000 </v>
   <v>      -0.01044445       0.01044445       0.00000000 </v>
   <v>       0.07474702      -0.07474702       0.00000000 </v>
   <v>      -0.01044445      -0.01044445       0.00000000 </v>
   <v>       0.07474702       0.07474702       0.00000000 </v>
   <v>      -0.00000000       0.00000000       0.00000000 </v>
  </varray>
  <varray name="stress" >
   <v>      -2.19744198       0.00000000      -0.00000000 </v>
   <v>       0.00000000      -2.19744198       0.00000000 </v>
   <v>      -0.00000000       0.00000000      14.78022810 </v>
  </varray>
  <energy>
   <i name="e_fr_energy">    -98.63600274 </i>
   <i name="e_wo_entrp">    -98.64733661 </i>
   <i name="e_0_energy">    -98.63978069 </i>
  </energy>
  <time name="totalsc">   12.10   12.10</time>
  <eigenvalues>
   <array>
    <dimension dim="1">band</dimension>
    <dimension dim="2">kpoint</dimension>
    <dimension dim="3">spin</dimension>
    <field>eigene</field>
    <field>occ</field>
    <set>
     <set comment="spin 1">
      <set comment="kpoint 1">
       <r>  -48.9413    1.0000 </r>
       <r>  -48.9409    1.0000 </r>
       <r>  -48.9370    1.0000 </r>
       <r>  -48.9366    1.0000 </r>
       <r>  -48.6467    1.0000 </r>
       <r>  -48.6434    1.0000 </r>
       <r>  -48.6016    1.0000 </r>
       <r>  -48.6009    1.0000 </r>
       <r>  -25.3381    1.0000 </r>
       <r>  -25.3323    1.0000 </r>
       <r>  -25.3275    1.0000 </r>
       <r>  -25.3232    1.0000 </r>
       <r>  -25.2267    1.0000 </r>
       <r>  -25.2267    1.0000 </r>
       <r>  -25.2244    1.0000 </r>
       <r>  -25.2244    1.0000 </r>
       <r>  -25.1708    1.0000 </r>
       <r>  -25.1708    1.0000 </r>
       <r>  -25.1695    1.0000 </r>
       <r>  -25.1695    1.0000 </r>
       <r>  -25.0422    1.0000 </r>
       <r>  -24.9930    1.0000 </r>
       <r>  -24.9894    1.0000 </r>
       <r>  -24.9743    1.0000 </r>
       <r>  -24.8314    1.0000 </r>
       <r>  -24.8314    1.0000 </r>
       <r>  -24.8275    1.0000 </r>
       <r>  -24.8275    1.0000 </r>
       <r>  -24.7556    1.0000 </r>
       <r>  -24.7556    1.0000 </r>
       <r>  -24.7545    1.0000 </r>
       <r>  -24.7545    1.0000 </r>
       <r>   -7.4237    1.0000 </r>
       <r>   -7.3235    1.0000 </r>
       <r>   -7.2952    1.0000 </r>
       <r>   -7.2441    1.0000 </r>
       <r>   -7.2441    1.0000 </r>
       <r>   -1.8271    1.0000 </r>
       <r>    0.1089    1.0000 </r>
       <r>    1.4846    1.0000 </r>
       <r>    2.3785    1.0000 </r>
       <r>    2.3785    1.0000 </r>
       <r>    2.6587    1.0000 </r>
       <r>    3.1984    1.0000 </r>
       <r>    3.1984    1.0000 </r>
       <r>    3.5327    1.0000 </r>
       <r>    4.4678    1.0000 </r>
       <r>    4.8673    1.0000 </r>
       <r>    4.9799    1.0000 </r>
       <r>    5.2656    1.0000 </r>
       <r>    5.2656    1.0000 </r>
       <r>    5.7328    1.0000 </r>
       <r>    6.0722    1.0000 </r>
       <r>    6.1898    1.0000 </r>
       <r>    6.3784    1.0000 </r>
       <r>    6.3784    1.0000 </r>
       <r>    6.6693    1.0000 </r>
       <r>    6.6806    1.0000 </r>
       <r>    6.6806    1.0000 </r>
       <r>    6.7344    1.0000 </r>
       <r>    6.7344    1.0000 </r>
       <r>    6.7903    1.0000 </r>
       <r>    6.8722    1.0000 </r>
       <r>    7.2712    1.0000 </r>
       <r>    7.4555    1.0000 </r>
       <r>    7.6937    1.0000 </r>
       <r>    7.8765    1.0222 </r>
       <r>    7.9252    1.0339 </r>
       <r>    7.9252    1.0339 </r>
       <r>    8.3905   -0.0000 </r>
       <r>    8.5081   -0.0000 </r>
       <r>    8.8061   -0.0000 </r>
       <r>    9.1680   -0.0000 </r>
       <r>    9.2223   -0.0000 </r>
       <r>    9.2223   -0.0000 </r>
       <r>    9.4270   -0.0000 </r>
       <r>    9.4907   -0.0000 </r>
       <r>    9.5311   -0.0000 </r>
       <r>    9.5606   -0.0000 </r>
       <r>    9.5688   -0.0000 </r>
       <r>    9.5842   -0.0000 </r>
       <r>    9.5842   -0.0000 </r>
       <r>    9.7237   -0.0000 </r>
       <r>    9.7237   -0.0000 </r>
       <r>    9.8998   -0.0000 </r>
       <r>   10.0397    0.0000 </r>
       <r>   10.0397    0.0000 </r>
       <r>   10.6486    0.0000 </r>
       <r>   10.7151    0.0000 </r>
       <r>   10.7151    0.0000 </r>
       <r>   10.9172    0.0000 </r>
       <r>   11.3594    0.0000 </r>
       <r>   11.3769    0.0000 </r>
       <r>   11.4464    0.0000 </r>
       <r>   11.6194    0.0000 </r>
       <r>   11.6194    0.0000 </r>
       <r>   11.7231    0.0000 </r>
       <r>   12.0956    0.0000 </r>
       <r>   12.0956    0.0000 </r>
       <r>   12.1237    0.0000 </r>
       <r>   12.3085    0.0000 </r>
       <r>   12.3590    0.0000 </r>
       <r>   12.8547    0.0000 </r>
       <r>   13.1607    0.0000 </r>
       <r>   13.3683    0.0000 </r>
       <r>   13.3683    0.0000 </r>
       <r>   13.4135    0.0000 </r>
       <r>   13.4587    0.0000 </r>
       <r>   13.6275    0.0000 </r>
       <r>   14.8726    0.0000 </r>
       <r>   14.9332    0.0000 </r>
       <r>   14.9332    0.0000 </r>
       <r>   14.9571    0.0000 </r>
       <r>   14.9571    0.0000 </r>
       <r>   15.5667    0.0000 </r>
       <r>   16.4224    0.0000 </r>
       <r>   16.4311    0.0000 </r>
       <r>   16.4415    0.0000 </r>
       <r>   16.9217    0.0000 </r>
       <r>   16.9217    0.0000 </r>
       <r>   17.4818    0.0000 </r>
       <r>   17.8282    0.0000 </r>
       <r>   17.9857    0.0000 </r>
       <r>   17.9857    0.0000 </r>
       <r>   18.4765    0.0000 </r>
       <r>   18.5707    0.0000 </r>
       <r>   18.5709    0.0000 </r>
       <r>   18.8649    0.0000 </r>
      </set>
      <set comment="kpoint 2">
       <r>  -48.9395    1.0000 </r>
       <r>  -48.9392    1.0000 </r>
       <r>  -48.9374    1.0000 </r>
       <r>  -48.9370    1.0000 </r>
       <r>  -48.6474    1.0000 </r>
       <r>  -48.6440    1.0000 </r>
       <r>  -48.6024    1.0000 </r>
       <r>  -48.6017    1.0000 </r>
       <r>  -25.3368    1.0000 </r>
       <r>  -25.3337    1.0000 </r>
       <r>  -25.3266    1.0000 </r>
       <r>  -25.3242    1.0000 </r>
       <r>  -25.2222    1.0000 </r>
       <r>  -25.2201    1.0000 </r>
       <r>  -25.1804    1.0000 </r>
       <r>  -25.1785    1.0000 </r>
       <r>  -25.1748    1.0000 </r>
       <r>  -25.1734    1.0000 </r>
       <r>  -25.1246    1.0000 </r>
       <r>  -25.1234    1.0000 </r>
       <r>  -25.0404    1.0000 </r>
       <r>  -24.9916    1.0000 </r>
       <r>  -24.9895    1.0000 </r>
       <r>  -24.9745    1.0000 </r>
       <r>  -24.8765    1.0000 </r>
       <r>  -24.8718    1.0000 </r>
       <r>  -24.8309    1.0000 </r>
       <r>  -24.8269    1.0000 </r>
       <r>  -24.8091    1.0000 </r>
       <r>  -24.8076    1.0000 </r>
       <r>  -24.7567    1.0000 </r>
       <r>  -24.7557    1.0000 </r>
       <r>   -7.4242    1.0000 </r>
       <r>   -7.3228    1.0000 </r>
       <r>   -7.2945    1.0000 </r>
       <r>   -7.2443    1.0000 </r>
       <r>   -7.2441    1.0000 </r>
       <r>   -1.4262    1.0000 </r>
       <r>    0.0428    1.0000 </r>
       <r>    0.6399    1.0000 </r>
       <r>    1.7458    1.0000 </r>
       <r>    2.7887    1.0000 </r>
       <r>    3.0304    1.0000 </r>
       <r>    3.1953    1.0000 </r>
       <r>    3.5350    1.0000 </r>
       <r>    3.9407    1.0000 </r>
       <r>    4.3106    1.0000 </r>
       <r>    4.4825    1.0000 </r>
       <r>    4.6325    1.0000 </r>
       <r>    4.7588    1.0000 </r>
       <r>    5.4770    1.0000 </r>
       <r>    5.6664    1.0000 </r>
       <r>    5.9306    1.0000 </r>
       <r>    6.2610    1.0000 </r>
       <r>    6.3304    1.0000 </r>
       <r>    6.3459    1.0000 </r>
       <r>    6.6096    1.0000 </r>
       <r>    6.7247    1.0000 </r>
       <r>    6.7322    1.0000 </r>
       <r>    7.1478    1.0000 </r>
       <r>    7.2976    1.0000 </r>
       <r>    7.3545    1.0000 </r>
       <r>    7.4461    1.0000 </r>
       <r>    7.5412    1.0000 </r>
       <r>    7.5729    1.0000 </r>
       <r>    7.7080    1.0000 </r>
       <r>    8.1318   -0.0170 </r>
       <r>    8.1612   -0.0355 </r>
       <r>    8.2546   -0.0046 </r>
       <r>    8.5251   -0.0000 </r>
       <r>    8.5647   -0.0000 </r>
       <r>    8.5867   -0.0000 </r>
       <r>    8.7807   -0.0000 </r>
       <r>    9.0447   -0.0000 </r>
       <r>    9.2663   -0.0000 </r>
       <r>    9.2697   -0.0000 </r>
       <r>    9.3240   -0.0000 </r>
       <r>    9.4755   -0.0000 </r>
       <r>    9.4785   -0.0000 </r>
       <r>    9.5465   -0.0000 </r>
       <r>    9.6350   -0.0000 </r>
       <r>    9.7663   -0.0000 </r>
       <r>    9.7819   -0.0000 </r>
       <r>    9.8191   -0.0000 </r>
       <r>    9.8914   -0.0000 </r>
       <r>    9.8995   -0.0000 </r>
       <r>   10.0116   -0.0000 </r>
       <r>   10.3593    0.0000 </r>
       <r>   10.3863    0.0000 </r>
       <r>   10.5283    0.0000 </r>
       <r>   10.7098    0.0000 </r>
       <r>   10.9332    0.0000 </r>
       <r>   10.9458    0.0000 </r>
       <r>   11.1381    0.0000 </r>
       <r>   11.4309    0.0000 </r>
       <r>   11.7513    0.0000 </r>
       <r>   11.8248    0.0000 </r>
       <r>   12.0185    0.0000 </r>
       <r>   12.2092    0.0000 </r>
       <r>   12.3501    0.0000 </r>
       <r>   12.6811    0.0000 </r>
       <r>   12.8465    0.0000 </r>
       <r>   13.0034    0.0000 </r>
       <r>   13.1919    0.0000 </r>
       <r>   13.4261    0.0000 </r>
       <r>   13.6010    0.0000 </r>
       <r>   13.7060    0.0000 </r>
       <r>   13.9206    0.0000 </r>
       <r>   14.0793    0.0000 </r>
       <r>   14.1221    0.0000 </r>
       <r>   14.5936    0.0000 </r>
       <r>   14.7728    0.0000 </r>
       <r>   15.1819    0.0000 </r>
       <r>   15.2479    0.0000 </r>
       <r>   15.4613    0.0000 </r>
       <r>   15.8158    0.0000 </r>
       <r>   15.9684    0.0000 </r>
       <r>   16.2740    0.0000 </r>
       <r>   16.6896    0.0000 </r>
       <r>   16.7871    0.0000 </r>
       <r>   16.8235    0.0000 </r>
       <r>   16.9413    0.0000 </r>
       <r>   17.1671    0.0000 </r>
       <r>   17.2321    0.0000 </r>
       <r>   17.4918    0.0000 </r>
       <r>   17.7761    0.0000 </r>
       <r>   17.7977    0.0000 </r>
       <r>   17.9967    0.0000 </r>
      </set>
      <set comment="kpoint 3">
       <r>  -48.9383    1.0000 </r>
       <r>  -48.9380    1.0000 </r>
       <r>  -48.9372    1.0000 </r>
       <r>  -48.9369    1.0000 </r>
       <r>  -48.6481    1.0000 </r>
       <r>  -48.6447    1.0000 </r>
       <r>  -48.6031    1.0000 </r>
       <r>  -48.6025    1.0000 </r>
       <r>  -25.3360    1.0000 </r>
       <r>  -25.3345    1.0000 </r>
       <r>  -25.3261    1.0000 </r>
       <r>  -25.3250    1.0000 </r>
       <r>  -25.1838    1.0000 </r>
       <r>  -25.1813    1.0000 </r>
       <r>  -25.1729    1.0000 </r>
       <r>  -25.1716    1.0000 </r>
       <r>  -25.1294    1.0000 </r>
       <r>  -25.1279    1.0000 </r>
       <r>  -25.1217    1.0000 </r>
       <r>  -25.1207    1.0000 </r>
       <r>  -25.0387    1.0000 </r>
       <r>  -24.9904    1.0000 </r>
       <r>  -24.9898    1.0000 </r>
       <r>  -24.9746    1.0000 </r>
       <r>  -24.8772    1.0000 </r>
       <r>  -24.8764    1.0000 </r>
       <r>  -24.8723    1.0000 </r>
       <r>  -24.8718    1.0000 </r>
       <r>  -24.8100    1.0000 </r>
       <r>  -24.8099    1.0000 </r>
       <r>  -24.8087    1.0000 </r>
       <r>  -24.8085    1.0000 </r>
       <r>   -7.4249    1.0000 </r>
       <r>   -7.3222    1.0000 </r>
       <r>   -7.2938    1.0000 </r>
       <r>   -7.2443    1.0000 </r>
       <r>   -7.2443    1.0000 </r>
       <r>   -1.0819    1.0000 </r>
       <r>    0.1888    1.0000 </r>
       <r>    1.0241    1.0000 </r>
       <r>    1.2386    1.0000 </r>
       <r>    2.0631    1.0000 </r>
       <r>    2.2213    1.0000 </r>
       <r>    2.2766    1.0000 </r>
       <r>    3.2985    1.0000 </r>
       <r>    3.6985    1.0000 </r>
       <r>    4.8718    1.0000 </r>
       <r>    5.1299    1.0000 </r>
       <r>    5.1779    1.0000 </r>
       <r>    5.6961    1.0000 </r>
       <r>    5.9001    1.0000 </r>
       <r>    6.1322    1.0000 </r>
       <r>    6.2849    1.0000 </r>
       <r>    6.3642    1.0000 </r>
       <r>    6.4540    1.0000 </r>
       <r>    6.4575    1.0000 </r>
       <r>    6.6783    1.0000 </r>
       <r>    6.8567    1.0000 </r>
       <r>    6.9811    1.0000 </r>
       <r>    7.0540    1.0000 </r>
       <r>    7.3822    1.0000 </r>
       <r>    7.4663    1.0000 </r>
       <r>    7.5943    1.0000 </r>
       <r>    7.7379    1.0001 </r>
       <r>    7.7466    1.0001 </r>
       <r>    7.8376    1.0078 </r>
       <r>    8.0734    0.2222 </r>
       <r>    8.1318   -0.0170 </r>
       <r>    8.5224   -0.0000 </r>
       <r>    8.6484   -0.0000 </r>
       <r>    8.7507   -0.0000 </r>
       <r>    8.8359   -0.0000 </r>
       <r>    8.8565   -0.0000 </r>
       <r>    8.9080   -0.0000 </r>
       <r>    8.9726   -0.0000 </r>
       <r>    9.0811   -0.0000 </r>
       <r>    9.1149   -0.0000 </r>
       <r>    9.2165   -0.0000 </r>
       <r>    9.2320   -0.0000 </r>
       <r>    9.2802   -0.0000 </r>
       <r>    9.3733   -0.0000 </r>
       <r>    9.4055   -0.0000 </r>
       <r>    9.4375   -0.0000 </r>
       <r>    9.5837   -0.0000 </r>
       <r>    9.7150   -0.0000 </r>
       <r>    9.7243   -0.0000 </r>
       <r>    9.8327   -0.0000 </r>
       <r>    9.8694   -0.0000 </r>
       <r>   10.0219   -0.0000 </r>
       <r>   10.2699    0.0000 </r>
       <r>   10.3185    0.0000 </r>
       <r>   10.9522    0.0000 </r>
       <r>   11.0120    0.0000 </r>
       <r>   11.3133    0.0000 </r>
       <r>   11.8238    0.0000 </r>
       <r>   11.9134    0.0000 </r>
       <r>   12.0076    0.0000 </r>
       <r>   12.4807    0.0000 </r>
       <r>   12.4996    0.0000 </r>
       <r>   12.5734    0.0000 </r>
       <r>   12.6354    0.0000 </r>
       <r>   12.6414    0.0000 </r>
       <r>   13.0407    0.0000 </r>
       <r>   13.2878    0.0000 </r>
       <r>   13.5471    0.0000 </r>
       <r>   13.5647    0.0000 </r>
       <r>   13.5654    0.0000 </r>
       <r>   13.8781    0.0000 </r>
       <r>   13.9481    0.0000 </r>
       <r>   14.1468    0.0000 </r>
       <r>   14.1662    0.0000 </r>
       <r>   14.3693    0.0000 </r>
       <r>   14.4139    0.0000 </r>
       <r>   14.5840    0.0000 </r>
       <r>   14.7509    0.0000 </r>
       <r>   15.1654    0.0000 </r>
       <r>   15.5170    0.0000 </r>
       <r>   15.5682    0.0000 </r>
       <r>   16.2862    0.0000 </r>
       <r>   16.7493    0.0000 </r>
       <r>   16.8040    0.0000 </r>
       <r>   16.9937    0.0000 </r>
       <r>   17.3465    0.0000 </r>
       <r>   17.8381    0.0000 </r>
       <r>   17.8888    0.0000 </r>
       <r>   18.4895    0.0000 </r>
       <r>   18.4959    0.0000 </r>
       <r>   18.8622    0.0000 </r>
      </set>
      <set comment="kpoint 4">
       <r>  -48.9411    1.0000 </r>
       <r>  -48.9411    1.0000 </r>
       <r>  -48.9368    1.0000 </r>
       <r>  -48.9367    1.0000 </r>
       <r>  -48.6467    1.0000 </r>
       <r>  -48.6434    1.0000 </r>
       <r>  -48.6015    1.0000 </r>
       <r>  -48.6010    1.0000 </r>
       <r>  -25.3337    1.0000 </r>
       <r>  -25.3319    1.0000 </r>
       <r>  -25.3288    1.0000 </r>
       <r>  -25.3267    1.0000 </r>
       <r>  -25.2261    1.0000 </r>
       <r>  -25.2261    1.0000 </r>
       <r>  -25.2250    1.0000 </r>
       <r>  -25.2250    1.0000 </r>
       <r>  -25.1702    1.0000 </r>
       <r>  -25.1702    1.0000 </r>
       <r>  -25.1701    1.0000 </r>
       <r>  -25.1701    1.0000 </r>
       <r>  -25.0380    1.0000 </r>
       <r>  -24.9973    1.0000 </r>
       <r>  -24.9868    1.0000 </r>
       <r>  -24.9769    1.0000 </r>
       <r>  -24.8314    1.0000 </r>
       <r>  -24.8314    1.0000 </r>
       <r>  -24.8275    1.0000 </r>
       <r>  -24.8275    1.0000 </r>
       <r>  -24.7555    1.0000 </r>
       <r>  -24.7555    1.0000 </r>
       <r>  -24.7547    1.0000 </r>
       <r>  -24.7547    1.0000 </r>
       <r>   -7.4237    1.0000 </r>
       <r>   -7.3229    1.0000 </r>
       <r>   -7.2952    1.0000 </r>
       <r>   -7.2441    1.0000 </r>
       <r>   -7.2441    1.0000 </r>
       <r>   -1.7136    1.0000 </r>
       <r>   -0.2449    1.0000 </r>
       <r>    1.4927    1.0000 </r>
       <r>    2.3840    1.0000 </r>
       <r>    2.3840    1.0000 </r>
       <r>    3.1936    1.0000 </r>
       <r>    3.1936    1.0000 </r>
       <r>    3.9174    1.0000 </r>
       <r>    4.0422    1.0000 </r>
       <r>    4.1009    1.0000 </r>
       <r>    4.2259    1.0000 </r>
       <r>    4.2400    1.0000 </r>
       <r>    5.1554    1.0000 </r>
       <r>    5.2839    1.0000 </r>
       <r>    5.4518    1.0000 </r>
       <r>    5.4518    1.0000 </r>
       <r>    6.0874    1.0000 </r>
       <r>    6.0874    1.0000 </r>
       <r>    6.4046    1.0000 </r>
       <r>    6.4046    1.0000 </r>
       <r>    6.7401    1.0000 </r>
       <r>    6.7401    1.0000 </r>
       <r>    6.8828    1.0000 </r>
       <r>    7.2005    1.0000 </r>
       <r>    7.2896    1.0000 </r>
       <r>    7.3872    1.0000 </r>
       <r>    7.4076    1.0000 </r>
       <r>    7.4183    1.0000 </r>
       <r>    7.4206    1.0000 </r>
       <r>    7.8404    1.0086 </r>
       <r>    8.3300   -0.0001 </r>
       <r>    8.5569   -0.0000 </r>
       <r>    8.7529   -0.0000 </r>
       <r>    9.1251   -0.0000 </r>
       <r>    9.1251   -0.0000 </r>
       <r>    9.2068   -0.0000 </r>
       <r>    9.3253   -0.0000 </r>
       <r>    9.3855   -0.0000 </r>
       <r>    9.3855   -0.0000 </r>
       <r>    9.4522   -0.0000 </r>
       <r>    9.4650   -0.0000 </r>
       <r>    9.5445   -0.0000 </r>
       <r>    9.5445   -0.0000 </r>
       <r>    9.6143   -0.0000 </r>
       <r>    9.6143   -0.0000 </r>
       <r>    9.6824   -0.0000 </r>
       <r>    9.7788   -0.0000 </r>
       <r>    9.7788   -0.0000 </r>
       <r>    9.8249   -0.0000 </r>
       <r>    9.8249   -0.0000 </r>
       <r>    9.8463   -0.0000 </r>
       <r>   10.1566    0.0000 </r>
       <r>   10.3408    0.0000 </r>
       <r>   10.7330    0.0000 </r>
       <r>   10.9325    0.0000 </r>
       <r>   11.0180    0.0000 </r>
       <r>   11.0180    0.0000 </r>
       <r>   11.4116    0.0000 </r>
       <r>   11.4691    0.0000 </r>
       <r>   11.4791    0.0000 </r>
       <r>   11.4916    0.0000 </r>
       <r>   12.2294    0.0000 </r>
       <r>   12.4823    0.0000 </r>
       <r>   12.6239    0.0000 </r>
       <r>   12.6271    0.0000 </r>
       <r>   12.6271    0.0000 </r>
       <r>   12.9429    0.0000 </r>
       <r>   13.3069    0.0000 </r>
       <r>   14.1519    0.0000 </r>
       <r>   14.1519    0.0000 </r>
       <r>   14.4834    0.0000 </r>
       <r>   14.5241    0.0000 </r>
       <r>   15.0734    0.0000 </r>
       <r>   15.3065    0.0000 </r>
       <r>   15.3065    0.0000 </r>
       <r>   15.3157    0.0000 </r>
       <r>   15.5947    0.0000 </r>
       <r>   15.5947    0.0000 </r>
       <r>   15.7662    0.0000 </r>
       <r>   16.2468    0.0000 </r>
       <r>   16.3111    0.0000 </r>
       <r>   16.3111    0.0000 </r>
       <r>   16.3965    0.0000 </r>
       <r>   16.6994    0.0000 </r>
       <r>   16.6994    0.0000 </r>
       <r>   17.1677    0.0000 </r>
       <r>   17.1677    0.0000 </r>
       <r>   17.7214    0.0000 </r>
       <r>   18.5376    0.0000 </r>
       <r>   18.9972    0.0000 </r>
       <r>   19.2614    0.0000 </r>
      </set>
      <set comment="kpoint 5">
       <r>  -48.9394    1.0000 </r>
       <r>  -48.9393    1.0000 </r>
       <r>  -48.9372    1.0000 </r>
       <r>  -48.9372    1.0000 </r>
       <r>  -48.6473    1.0000 </r>
       <r>  -48.6441    1.0000 </r>
       <r>  -48.6023    1.0000 </r>
       <r>  -48.6018    1.0000 </r>
       <r>  -25.3326    1.0000 </r>
       <r>  -25.3308    1.0000 </r>
       <r>  -25.3300    1.0000 </r>
       <r>  -25.3279    1.0000 </r>
       <r>  -25.2217    1.0000 </r>
       <r>  -25.2206    1.0000 </r>
       <r>  -25.1797    1.0000 </r>
       <r>  -25.1792    1.0000 </r>
       <r>  -25.1741    1.0000 </r>
       <r>  -25.1741    1.0000 </r>
       <r>  -25.1241    1.0000 </r>
       <r>  -25.1239    1.0000 </r>
       <r>  -25.0362    1.0000 </r>
       <r>  -24.9958    1.0000 </r>
       <r>  -24.9870    1.0000 </r>
       <r>  -24.9770    1.0000 </r>
       <r>  -24.8765    1.0000 </r>
       <r>  -24.8718    1.0000 </r>
       <r>  -24.8309    1.0000 </r>
       <r>  -24.8269    1.0000 </r>
       <r>  -24.8088    1.0000 </r>
       <r>  -24.8079    1.0000 </r>
       <r>  -24.7566    1.0000 </r>
       <r>  -24.7558    1.0000 </r>
       <r>   -7.4242    1.0000 </r>
       <r>   -7.3222    1.0000 </r>
       <r>   -7.2945    1.0000 </r>
       <r>   -7.2444    1.0000 </r>
       <r>   -7.2441    1.0000 </r>
       <r>   -1.3390    1.0000 </r>
       <r>    0.2052    1.0000 </r>
       <r>    0.2230    1.0000 </r>
       <r>    1.5674    1.0000 </r>
       <r>    2.7926    1.0000 </r>
       <r>    3.0925    1.0000 </r>
       <r>    3.5383    1.0000 </r>
       <r>    3.9707    1.0000 </r>
       <r>    4.2606    1.0000 </r>
       <r>    4.3637    1.0000 </r>
       <r>    4.4659    1.0000 </r>
       <r>    4.5610    1.0000 </r>
       <r>    4.8477    1.0000 </r>
       <r>    5.2434    1.0000 </r>
       <r>    5.4526    1.0000 </r>
       <r>    5.5248    1.0000 </r>
       <r>    5.9695    1.0000 </r>
       <r>    6.1920    1.0000 </r>
       <r>    6.2382    1.0000 </r>
       <r>    6.3365    1.0000 </r>
       <r>    6.4406    1.0000 </r>
       <r>    6.6605    1.0000 </r>
       <r>    7.0412    1.0000 </r>
       <r>    7.4418    1.0000 </r>
       <r>    7.4659    1.0000 </r>
       <r>    7.6229    1.0000 </r>
       <r>    7.6777    1.0000 </r>
       <r>    7.8853    1.0263 </r>
       <r>    7.9411    1.0220 </r>
       <r>    8.0039    0.7729 </r>
       <r>    8.1492   -0.0331 </r>
       <r>    8.1740   -0.0332 </r>
       <r>    8.5583   -0.0000 </r>
       <r>    8.8729   -0.0000 </r>
       <r>    8.9999   -0.0000 </r>
       <r>    9.0338   -0.0000 </r>
       <r>    9.0652   -0.0000 </r>
       <r>    9.1757   -0.0000 </r>
       <r>    9.2792   -0.0000 </r>
       <r>    9.3685   -0.0000 </r>
       <r>    9.4584   -0.0000 </r>
       <r>    9.5372   -0.0000 </r>
       <r>    9.6152   -0.0000 </r>
       <r>    9.6277   -0.0000 </r>
       <r>    9.6808   -0.0000 </r>
       <r>    9.7586   -0.0000 </r>
       <r>    9.7856   -0.0000 </r>
       <r>    9.8071   -0.0000 </r>
       <r>    9.8382   -0.0000 </r>
       <r>   10.1824    0.0000 </r>
       <r>   10.1882    0.0000 </r>
       <r>   10.2466    0.0000 </r>
       <r>   10.2866    0.0000 </r>
       <r>   10.7619    0.0000 </r>
       <r>   10.8655    0.0000 </r>
       <r>   11.0692    0.0000 </r>
       <r>   11.1418    0.0000 </r>
       <r>   11.4496    0.0000 </r>
       <r>   11.5984    0.0000 </r>
       <r>   11.8833    0.0000 </r>
       <r>   11.9844    0.0000 </r>
       <r>   12.0907    0.0000 </r>
       <r>   12.3245    0.0000 </r>
       <r>   12.3903    0.0000 </r>
       <r>   12.7167    0.0000 </r>
       <r>   12.7801    0.0000 </r>
       <r>   13.2529    0.0000 </r>
       <r>   13.3445    0.0000 </r>
       <r>   13.3514    0.0000 </r>
       <r>   14.0503    0.0000 </r>
       <r>   14.3317    0.0000 </r>
       <r>   14.3619    0.0000 </r>
       <r>   14.4958    0.0000 </r>
       <r>   14.7403    0.0000 </r>
       <r>   14.8501    0.0000 </r>
       <r>   14.9514    0.0000 </r>
       <r>   15.5912    0.0000 </r>
       <r>   15.5955    0.0000 </r>
       <r>   15.9224    0.0000 </r>
       <r>   15.9285    0.0000 </r>
       <r>   16.1776    0.0000 </r>
       <r>   16.3901    0.0000 </r>
       <r>   16.5056    0.0000 </r>
       <r>   16.7879    0.0000 </r>
       <r>   16.9889    0.0000 </r>
       <r>   17.0628    0.0000 </r>
       <r>   17.1585    0.0000 </r>
       <r>   17.4070    0.0000 </r>
       <r>   17.5958    0.0000 </r>
       <r>   17.9602    0.0000 </r>
       <r>   18.1664    0.0000 </r>
      </set>
      <set comment="kpoint 6">
       <r>  -48.9382    1.0000 </r>
       <r>  -48.9381    1.0000 </r>
       <r>  -48.9371    1.0000 </r>
       <r>  -48.9370    1.0000 </r>
       <r>  -48.6480    1.0000 </r>
       <r>  -48.6448    1.0000 </r>
       <r>  -48.6031    1.0000 </r>
       <r>  -48.6025    1.0000 </r>
       <r>  -25.3320    1.0000 </r>
       <r>  -25.3307    1.0000 </r>
       <r>  -25.3301    1.0000 </r>
       <r>  -25.3288    1.0000 </r>
       <r>  -25.1829    1.0000 </r>
       <r>  -25.1821    1.0000 </r>
       <r>  -25.1724    1.0000 </r>
       <r>  -25.1721    1.0000 </r>
       <r>  -25.1288    1.0000 </r>
       <r>  -25.1285    1.0000 </r>
       <r>  -25.1212    1.0000 </r>
       <r>  -25.1211    1.0000 </r>
       <r>  -25.0347    1.0000 </r>
       <r>  -24.9945    1.0000 </r>
       <r>  -24.9872    1.0000 </r>
       <r>  -24.9772    1.0000 </r>
       <r>  -24.8772    1.0000 </r>
       <r>  -24.8764    1.0000 </r>
       <r>  -24.8723    1.0000 </r>
       <r>  -24.8717    1.0000 </r>
       <r>  -24.8098    1.0000 </r>
       <r>  -24.8097    1.0000 </r>
       <r>  -24.8089    1.0000 </r>
       <r>  -24.8087    1.0000 </r>
       <r>   -7.4249    1.0000 </r>
       <r>   -7.3216    1.0000 </r>
       <r>   -7.2938    1.0000 </r>
       <r>   -7.2444    1.0000 </r>
       <r>   -7.2444    1.0000 </r>
       <r>   -1.0186    1.0000 </r>
       <r>    0.3251    1.0000 </r>
       <r>    0.6779    1.0000 </r>
       <r>    1.3555    1.0000 </r>
       <r>    1.9633    1.0000 </r>
       <r>    2.0118    1.0000 </r>
       <r>    2.2368    1.0000 </r>
       <r>    3.1725    1.0000 </r>
       <r>    4.8208    1.0000 </r>
       <r>    5.0435    1.0000 </r>
       <r>    5.2076    1.0000 </r>
       <r>    5.4655    1.0000 </r>
       <r>    5.7331    1.0000 </r>
       <r>    5.8600    1.0000 </r>
       <r>    6.0316    1.0000 </r>
       <r>    6.0868    1.0000 </r>
       <r>    6.1253    1.0000 </r>
       <r>    6.2196    1.0000 </r>
       <r>    6.3664    1.0000 </r>
       <r>    6.4032    1.0000 </r>
       <r>    6.4733    1.0000 </r>
       <r>    6.6533    1.0000 </r>
       <r>    6.9509    1.0000 </r>
       <r>    7.4336    1.0000 </r>
       <r>    7.5652    1.0000 </r>
       <r>    7.7268    1.0000 </r>
       <r>    7.8791    1.0235 </r>
       <r>    7.9017    1.0330 </r>
       <r>    7.9818    0.9034 </r>
       <r>    8.0515    0.3889 </r>
       <r>    8.1766   -0.0323 </r>
       <r>    8.2747   -0.0021 </r>
       <r>    8.3761   -0.0000 </r>
       <r>    8.4169   -0.0000 </r>
       <r>    8.4286   -0.0000 </r>
       <r>    8.5007   -0.0000 </r>
       <r>    8.8934   -0.0000 </r>
       <r>    8.9715   -0.0000 </r>
       <r>    9.2119   -0.0000 </r>
       <r>    9.3269   -0.0000 </r>
       <r>    9.3869   -0.0000 </r>
       <r>    9.4329   -0.0000 </r>
       <r>    9.4849   -0.0000 </r>
       <r>    9.4861   -0.0000 </r>
       <r>    9.5389   -0.0000 </r>
       <r>    9.5937   -0.0000 </r>
       <r>    9.7446   -0.0000 </r>
       <r>    9.8563   -0.0000 </r>
       <r>    9.8976   -0.0000 </r>
       <r>   10.2148    0.0000 </r>
       <r>   10.2196    0.0000 </r>
       <r>   10.2335    0.0000 </r>
       <r>   10.4386    0.0000 </r>
       <r>   10.7710    0.0000 </r>
       <r>   10.7792    0.0000 </r>
       <r>   10.9868    0.0000 </r>
       <r>   11.1464    0.0000 </r>
       <r>   11.2223    0.0000 </r>
       <r>   11.5384    0.0000 </r>
       <r>   11.5544    0.0000 </r>
       <r>   11.7528    0.0000 </r>
       <r>   11.9423    0.0000 </r>
       <r>   12.1540    0.0000 </r>
       <r>   12.3957    0.0000 </r>
       <r>   12.4284    0.0000 </r>
       <r>   13.0819    0.0000 </r>
       <r>   13.1978    0.0000 </r>
       <r>   13.2051    0.0000 </r>
       <r>   14.0990    0.0000 </r>
       <r>   14.1687    0.0000 </r>
       <r>   14.2986    0.0000 </r>
       <r>   14.3717    0.0000 </r>
       <r>   14.5880    0.0000 </r>
       <r>   15.0864    0.0000 </r>
       <r>   15.1167    0.0000 </r>
       <r>   15.2429    0.0000 </r>
       <r>   15.3342    0.0000 </r>
       <r>   15.4420    0.0000 </r>
       <r>   15.5631    0.0000 </r>
       <r>   15.8638    0.0000 </r>
       <r>   15.9792    0.0000 </r>
       <r>   16.1511    0.0000 </r>
       <r>   16.2083    0.0000 </r>
       <r>   16.2290    0.0000 </r>
       <r>   16.4059    0.0000 </r>
       <r>   16.4559    0.0000 </r>
       <r>   16.6826    0.0000 </r>
       <r>   17.0887    0.0000 </r>
       <r>   17.8581    0.0000 </r>
       <r>   18.2129    0.0000 </r>
       <r>   18.2300    0.0000 </r>
      </set>
     </set>
    </set>
   </array>
  </eigenvalues>
  <separator name="orbital magnetization" >
   <v name="MAGDIPOLOUT">      0.00000000      0.00000000      0.00000000</v>
  </separator>
  <dos>
   <i name="efermi">      8.03827391 </i>
   <total>
    <array>
     <dimension dim="1">gridpoints</dimension>
     <dimension dim="2">spin</dimension>
     <field>energy</field>
     <field>total</field>
     <field>integrated</field>
     <set>
      <set comment="spin 1">
       <r>   -52.3514     0.0000     0.0000 </r>
       <r>   -52.2763     0.0000     0.0000 </r>
       <r>   -52.2012     0.0000     0.0000 </r>
       <r>   -52.1261     0.0000     0.0000 </r>
       <r>   -52.0510     0.0000     0.0000 </r>
       <r>   -51.9759     0.0000     0.0000 </r>
       <r>   -51.9008     0.0000     0.0000 </r>
       <r>   -51.8257     0.0000     0.0000 </r>
       <r>   -51.7506     0.0000     0.0000 </r>
       <r>   -51.6755     0.0000     0.0000 </r>
       <r>   -51.6004     0.0000     0.0000 </r>
       <r>   -51.5253     0.0000     0.0000 </r>
       <r>   -51.4502     0.0000     0.0000 </r>
       <r>   -51.3752     0.0000     0.0000 </r>
       <r>   -51.3001     0.0000     0.0000 </r>
       <r>   -51.2250     0.0000     0.0000 </r>
       <r>   -51.1499     0.0000     0.0000 </r>
       <r>   -51.0748     0.0000     0.0000 </r>
       <r>   -50.9997     0.0000     0.0000 </r>
       <r>   -50.9246     0.0000     0.0000 </r>
       <r>   -50.8495     0.0000     0.0000 </r>
       <r>   -50.7744     0.0000     0.0000 </r>
       <r>   -50.6993     0.0000     0.0000 </r>
       <r>   -50.6242     0.0000     0.0000 </r>
       <r>   -50.5491     0.0000     0.0000 </r>
       <r>   -50.4740     0.0000     0.0000 </r>
       <r>   -50.3989     0.0000     0.0000 </r>
       <r>   -50.3238     0.0000     0.0000 </r>
       <r>   -50.2487     0.0000     0.0000 </r>
       <r>   -50.1736     0.0000     0.0000 </r>
       <r>   -50.0985     0.0000     0.0000 </r>
       <r>   -50.0234     0.0000     0.0000 </r>
       <r>   -49.9483     0.0000     0.0000 </r>
       <r>   -49.8732     0.0000     0.0000 </r>
       <r>   -49.7981    -0.0000    -0.0000 </r>
       <r>   -49.7230    -0.0000    -0.0000 </r>
       <r>   -49.6479    -0.0000    -0.0000 </r>
       <r>   -49.5728    -0.0000    -0.0000 </r>
       <r>   -49.4977    -0.0000    -0.0000 </r>
       <r>   -49.4226    -0.0000    -0.0000 </r>
       <r>   -49.3475    -0.0000    -0.0000 </r>
       <r>   -49.2724    -0.0013    -0.0001 </r>
       <r>   -49.1973    -0.0796    -0.0061 </r>
       <r>   -49.1222    -1.2924    -0.1031 </r>
       <r>   -49.0471    -2.0481    -0.2569 </r>
       <r>   -48.9720    27.9468     1.8418 </r>
       <r>   -48.8969    62.5039     6.5357 </r>
       <r>   -48.8218    22.1317     8.1978 </r>
       <r>   -48.7467    -4.4943     7.8603 </r>
       <r>   -48.6716    19.6502     9.3360 </r>
       <r>   -48.5965    57.5973    13.6614 </r>
       <r>   -48.5214    32.6080    16.1102 </r>
       <r>   -48.4463     0.2926    16.1322 </r>
       <r>   -48.3712    -1.6030    16.0118 </r>
       <r>   -48.2961    -0.1533    16.0003 </r>
       <r>   -48.2210    -0.0037    16.0000 </r>
       <r>   -48.1459    -0.0000    16.0000 </r>
       <r>   -48.0708    -0.0000    16.0000 </r>
       <r>   -47.9957    -0.0000    16.0000 </r>
       <r>   -47.9206    -0.0000    16.0000 </r>
       <r>   -47.8455     0.0000    16.0000 </r>
       <r>   -47.7704     0.0000    16.0000 </r>
       <r>   -47.6953     0.0000    16.0000 </r>
       <r>   -47.6202     0.0000    16.0000 </r>
       <r>   -47.5451     0.0000    16.0000 </r>
       <r>   -47.4701     0.0000    16.0000 </r>
       <r>   -47.3950     0.0000    16.0000 </r>
       <r>   -47.3199     0.0000    16.0000 </r>
       <r>   -47.2448     0.0000    16.0000 </r>
       <r>   -47.1697     0.0000    16.0000 </r>
       <r>   -47.0946     0.0000    16.0000 </r>
       <r>   -47.0195     0.0000    16.0000 </r>
       <r>   -46.9444     0.0000    16.0000 </r>
       <r>   -46.8693     0.0000    16.0000 </r>
       <r>   -46.7942     0.0000    16.0000 </r>
       <r>   -46.7191     0.0000    16.0000 </r>
       <r>   -46.6440     0.0000    16.0000 </r>
       <r>   -46.5689     0.0000    16.0000 </r>
       <r>   -46.4938     0.0000    16.0000 </r>
       <r>   -46.4187     0.0000    16.0000 </r>
       <r>   -46.3436     0.0000    16.0000 </r>
       <r>   -46.2685     0.0000    16.0000 </r>
       <r>   -46.1934     0.0000    16.0000 </r>
       <r>   -46.1183     0.0000    16.0000 </r>
       <r>   -46.0432     0.0000    16.0000 </r>
       <r>   -45.9681     0.0000    16.0000 </r>
       <r>   -45.8930     0.0000    16.0000 </r>
       <r>   -45.8179     0.0000    16.0000 </r>
       <r>   -45.7428     0.0000    16.0000 </r>
       <r>   -45.6677     0.0000    16.0000 </r>
       <r>   -45.5926     0.0000    16.0000 </r>
       <r>   -45.5175     0.0000    16.0000 </r>
       <r>   -45.4424     0.0000    16.0000 </r>
       <r>   -45.3673     0.0000    16.0000 </r>
       <r>   -45.2922     0.0000    16.0000 </r>
       <r>   -45.2171     0.0000    16.0000 </r>
       <r>   -45.1420     0.0000    16.0000 </r>
       <r>   -45.0669     0.0000    16.0000 </r>
       <r>   -44.9918     0.0000    16.0000 </r>
       <r>   -44.9167     0.0000    16.0000 </r>
       <r>   -44.8416     0.0000    16.0000 </r>
       <r>   -44.7665     0.0000    16.0000 </r>
       <r>   -44.6914     0.0000    16.0000 </r>
       <r>   -44.6163     0.0000    16.0000 </r>
       <r>   -44.5412     0.0000    16.0000 </r>
       <r>   -44.4661     0.0000    16.0000 </r>
       <r>   -44.3910     0.0000    16.0000 </r>
       <r>   -44.3159     0.0000    16.0000 </r>
       <r>   -44.2408     0.0000    16.0000 </r>
       <r>   -44.1657     0.0000    16.0000 </r>
       <r>   -44.0906     0.0000    16.0000 </r>
       <r>   -44.0155     0.0000    16.0000 </r>
       <r>   -43.9404     0.0000    16.0000 </r>
       <r>   -43.8653     0.0000    16.0000 </r>
       <r>   -43.7902     0.0000    16.0000 </r>
       <r>   -43.7151     0.0000    16.0000 </r>
       <r>   -43.6400     0.0000    16.0000 </r>
       <r>   -43.5650     0.0000    16.0000 </r>
       <r>   -43.4899     0.0000    16.0000 </r>
       <r>   -43.4148     0.0000    16.0000 </r>
       <r>   -43.3397     0.0000    16.0000 </r>
       <r>   -43.2646     0.0000    16.0000 </r>
       <r>   -43.1895     0.0000    16.0000 </r>
       <r>   -43.1144     0.0000    16.0000 </r>
       <r>   -43.0393     0.0000    16.0000 </r>
       <r>   -42.9642     0.0000    16.0000 </r>
       <r>   -42.8891     0.0000    16.0000 </r>
       <r>   -42.8140     0.0000    16.0000 </r>
       <r>   -42.7389     0.0000    16.0000 </r>
       <r>   -42.6638     0.0000    16.0000 </r>
       <r>   -42.5887     0.0000    16.0000 </r>
       <r>   -42.5136     0.0000    16.0000 </r>
       <r>   -42.4385     0.0000    16.0000 </r>
       <r>   -42.3634     0.0000    16.0000 </r>
       <r>   -42.2883     0.0000    16.0000 </r>
       <r>   -42.2132     0.0000    16.0000 </r>
       <r>   -42.1381     0.0000    16.0000 </r>
       <r>   -42.0630     0.0000    16.0000 </r>
       <r>   -41.9879     0.0000    16.0000 </r>
       <r>   -41.9128     0.0000    16.0000 </r>
       <r>   -41.8377     0.0000    16.0000 </r>
       <r>   -41.7626     0.0000    16.0000 </r>
       <r>   -41.6875     0.0000    16.0000 </r>
       <r>   -41.6124     0.0000    16.0000 </r>
       <r>   -41.5373     0.0000    16.0000 </r>
       <r>   -41.4622     0.0000    16.0000 </r>
       <r>   -41.3871     0.0000    16.0000 </r>
       <r>   -41.3120     0.0000    16.0000 </r>
       <r>   -41.2369     0.0000    16.0000 </r>
       <r>   -41.1618     0.0000    16.0000 </r>
       <r>   -41.0867     0.0000    16.0000 </r>
       <r>   -41.0116     0.0000    16.0000 </r>
       <r>   -40.9365     0.0000    16.0000 </r>
       <r>   -40.8614     0.0000    16.0000 </r>
       <r>   -40.7863     0.0000    16.0000 </r>
       <r>   -40.7112     0.0000    16.0000 </r>
       <r>   -40.6361     0.0000    16.0000 </r>
       <r>   -40.5610     0.0000    16.0000 </r>
       <r>   -40.4859     0.0000    16.0000 </r>
       <r>   -40.4108     0.0000    16.0000 </r>
       <r>   -40.3357     0.0000    16.0000 </r>
       <r>   -40.2606     0.0000    16.0000 </r>
       <r>   -40.1855     0.0000    16.0000 </r>
       <r>   -40.1104     0.0000    16.0000 </r>
       <r>   -40.0353     0.0000    16.0000 </r>
       <r>   -39.9602     0.0000    16.0000 </r>
       <r>   -39.8851     0.0000    16.0000 </r>
       <r>   -39.8100     0.0000    16.0000 </r>
       <r>   -39.7349     0.0000    16.0000 </r>
       <r>   -39.6599     0.0000    16.0000 </r>
       <r>   -39.5848     0.0000    16.0000 </r>
       <r>   -39.5097     0.0000    16.0000 </r>
       <r>   -39.4346     0.0000    16.0000 </r>
       <r>   -39.3595     0.0000    16.0000 </r>
       <r>   -39.2844     0.0000    16.0000 </r>
       <r>   -39.2093     0.0000    16.0000 </r>
       <r>   -39.1342     0.0000    16.0000 </r>
       <r>   -39.0591     0.0000    16.0000 </r>
       <r>   -38.9840     0.0000    16.0000 </r>
       <r>   -38.9089     0.0000    16.0000 </r>
       <r>   -38.8338     0.0000    16.0000 </r>
       <r>   -38.7587     0.0000    16.0000 </r>
       <r>   -38.6836     0.0000    16.0000 </r>
       <r>   -38.6085     0.0000    16.0000 </r>
       <r>   -38.5334     0.0000    16.0000 </r>
       <r>   -38.4583     0.0000    16.0000 </r>
       <r>   -38.3832     0.0000    16.0000 </r>
       <r>   -38.3081     0.0000    16.0000 </r>
       <r>   -38.2330     0.0000    16.0000 </r>
       <r>   -38.1579     0.0000    16.0000 </r>
       <r>   -38.0828     0.0000    16.0000 </r>
       <r>   -38.0077     0.0000    16.0000 </r>
       <r>   -37.9326     0.0000    16.0000 </r>
       <r>   -37.8575     0.0000    16.0000 </r>
       <r>   -37.7824     0.0000    16.0000 </r>
       <r>   -37.7073     0.0000    16.0000 </r>
       <r>   -37.6322     0.0000    16.0000 </r>
       <r>   -37.5571     0.0000    16.0000 </r>
       <r>   -37.4820     0.0000    16.0000 </r>
       <r>   -37.4069     0.0000    16.0000 </r>
       <r>   -37.3318     0.0000    16.0000 </r>
       <r>   -37.2567     0.0000    16.0000 </r>
       <r>   -37.1816     0.0000    16.0000 </r>
       <r>   -37.1065     0.0000    16.0000 </r>
       <r>   -37.0314     0.0000    16.0000 </r>
       <r>   -36.9563     0.0000    16.0000 </r>
       <r>   -36.8812     0.0000    16.0000 </r>
       <r>   -36.8061     0.0000    16.0000 </r>
       <r>   -36.7310     0.0000    16.0000 </r>
       <r>   -36.6559     0.0000    16.0000 </r>
       <r>   -36.5808     0.0000    16.0000 </r>
       <r>   -36.5057     0.0000    16.0000 </r>
       <r>   -36.4306     0.0000    16.0000 </r>
       <r>   -36.3555     0.0000    16.0000 </r>
       <r>   -36.2804     0.0000    16.0000 </r>
       <r>   -36.2053     0.0000    16.0000 </r>
       <r>   -36.1302     0.0000    16.0000 </r>
       <r>   -36.0551     0.0000    16.0000 </r>
       <r>   -35.9800     0.0000    16.0000 </r>
       <r>   -35.9049     0.0000    16.0000 </r>
       <r>   -35.8298     0.0000    16.0000 </r>
       <r>   -35.7548     0.0000    16.0000 </r>
       <r>   -35.6797     0.0000    16.0000 </r>
       <r>   -35.6046     0.0000    16.0000 </r>
       <r>   -35.5295     0.0000    16.0000 </r>
       <r>   -35.4544     0.0000    16.0000 </r>
       <r>   -35.3793     0.0000    16.0000 </r>
       <r>   -35.3042     0.0000    16.0000 </r>
       <r>   -35.2291     0.0000    16.0000 </r>
       <r>   -35.1540     0.0000    16.0000 </r>
       <r>   -35.0789     0.0000    16.0000 </r>
       <r>   -35.0038     0.0000    16.0000 </r>
       <r>   -34.9287     0.0000    16.0000 </r>
       <r>   -34.8536     0.0000    16.0000 </r>
       <r>   -34.7785     0.0000    16.0000 </r>
       <r>   -34.7034     0.0000    16.0000 </r>
       <r>   -34.6283     0.0000    16.0000 </r>
       <r>   -34.5532     0.0000    16.0000 </r>
       <r>   -34.4781     0.0000    16.0000 </r>
       <r>   -34.4030     0.0000    16.0000 </r>
       <r>   -34.3279     0.0000    16.0000 </r>
       <r>   -34.2528     0.0000    16.0000 </r>
       <r>   -34.1777     0.0000    16.0000 </r>
       <r>   -34.1026     0.0000    16.0000 </r>
       <r>   -34.0275     0.0000    16.0000 </r>
       <r>   -33.9524     0.0000    16.0000 </r>
       <r>   -33.8773     0.0000    16.0000 </r>
       <r>   -33.8022     0.0000    16.0000 </r>
       <r>   -33.7271     0.0000    16.0000 </r>
       <r>   -33.6520     0.0000    16.0000 </r>
       <r>   -33.5769     0.0000    16.0000 </r>
       <r>   -33.5018     0.0000    16.0000 </r>
       <r>   -33.4267     0.0000    16.0000 </r>
       <r>   -33.3516     0.0000    16.0000 </r>
       <r>   -33.2765     0.0000    16.0000 </r>
       <r>   -33.2014     0.0000    16.0000 </r>
       <r>   -33.1263     0.0000    16.0000 </r>
       <r>   -33.0512     0.0000    16.0000 </r>
       <r>   -32.9761     0.0000    16.0000 </r>
       <r>   -32.9010     0.0000    16.0000 </r>
       <r>   -32.8259     0.0000    16.0000 </r>
       <r>   -32.7508     0.0000    16.0000 </r>
       <r>   -32.6757     0.0000    16.0000 </r>
       <r>   -32.6006     0.0000    16.0000 </r>
       <r>   -32.5255     0.0000    16.0000 </r>
       <r>   -32.4504     0.0000    16.0000 </r>
       <r>   -32.3753     0.0000    16.0000 </r>
       <r>   -32.3002     0.0000    16.0000 </r>
       <r>   -32.2251     0.0000    16.0000 </r>
       <r>   -32.1500     0.0000    16.0000 </r>
       <r>   -32.0749     0.0000    16.0000 </r>
       <r>   -31.9998     0.0000    16.0000 </r>
       <r>   -31.9247     0.0000    16.0000 </r>
       <r>   -31.8497     0.0000    16.0000 </r>
       <r>   -31.7746     0.0000    16.0000 </r>
       <r>   -31.6995     0.0000    16.0000 </r>
       <r>   -31.6244     0.0000    16.0000 </r>
       <r>   -31.5493     0.0000    16.0000 </r>
       <r>   -31.4742     0.0000    16.0000 </r>
       <r>   -31.3991     0.0000    16.0000 </r>
       <r>   -31.3240     0.0000    16.0000 </r>
       <r>   -31.2489     0.0000    16.0000 </r>
       <r>   -31.1738     0.0000    16.0000 </r>
       <r>   -31.0987     0.0000    16.0000 </r>
       <r>   -31.0236     0.0000    16.0000 </r>
       <r>   -30.9485     0.0000    16.0000 </r>
       <r>   -30.8734     0.0000    16.0000 </r>
       <r>   -30.7983     0.0000    16.0000 </r>
       <r>   -30.7232     0.0000    16.0000 </r>
       <r>   -30.6481     0.0000    16.0000 </r>
       <r>   -30.5730     0.0000    16.0000 </r>
       <r>   -30.4979     0.0000    16.0000 </r>
       <r>   -30.4228     0.0000    16.0000 </r>
       <r>   -30.3477     0.0000    16.0000 </r>
       <r>   -30.2726     0.0000    16.0000 </r>
       <r>   -30.1975     0.0000    16.0000 </r>
       <r>   -30.1224     0.0000    16.0000 </r>
       <r>   -30.0473     0.0000    16.0000 </r>
       <r>   -29.9722     0.0000    16.0000 </r>
       <r>   -29.8971     0.0000    16.0000 </r>
       <r>   -29.8220     0.0000    16.0000 </r>
       <r>   -29.7469     0.0000    16.0000 </r>
       <r>   -29.6718     0.0000    16.0000 </r>
       <r>   -29.5967     0.0000    16.0000 </r>
       <r>   -29.5216     0.0000    16.0000 </r>
       <r>   -29.4465     0.0000    16.0000 </r>
       <r>   -29.3714     0.0000    16.0000 </r>
       <r>   -29.2963     0.0000    16.0000 </r>
       <r>   -29.2212     0.0000    16.0000 </r>
       <r>   -29.1461     0.0000    16.0000 </r>
       <r>   -29.0710     0.0000    16.0000 </r>
       <r>   -28.9959     0.0000    16.0000 </r>
       <r>   -28.9208     0.0000    16.0000 </r>
       <r>   -28.8457     0.0000    16.0000 </r>
       <r>   -28.7706     0.0000    16.0000 </r>
       <r>   -28.6955     0.0000    16.0000 </r>
       <r>   -28.6204     0.0000    16.0000 </r>
       <r>   -28.5453     0.0000    16.0000 </r>
       <r>   -28.4702     0.0000    16.0000 </r>
       <r>   -28.3951     0.0000    16.0000 </r>
       <r>   -28.3200     0.0000    16.0000 </r>
       <r>   -28.2449     0.0000    16.0000 </r>
       <r>   -28.1698     0.0000    16.0000 </r>
       <r>   -28.0947     0.0000    16.0000 </r>
       <r>   -28.0196     0.0000    16.0000 </r>
       <r>   -27.9446     0.0000    16.0000 </r>
       <r>   -27.8695     0.0000    16.0000 </r>
       <r>   -27.7944     0.0000    16.0000 </r>
       <r>   -27.7193     0.0000    16.0000 </r>
       <r>   -27.6442     0.0000    16.0000 </r>
       <r>   -27.5691     0.0000    16.0000 </r>
       <r>   -27.4940     0.0000    16.0000 </r>
       <r>   -27.4189     0.0000    16.0000 </r>
       <r>   -27.3438     0.0000    16.0000 </r>
       <r>   -27.2687     0.0000    16.0000 </r>
       <r>   -27.1936     0.0000    16.0000 </r>
       <r>   -27.1185     0.0000    16.0000 </r>
       <r>   -27.0434     0.0000    16.0000 </r>
       <r>   -26.9683     0.0000    16.0000 </r>
       <r>   -26.8932     0.0000    16.0000 </r>
       <r>   -26.8181     0.0000    16.0000 </r>
       <r>   -26.7430     0.0000    16.0000 </r>
       <r>   -26.6679     0.0000    16.0000 </r>
       <r>   -26.5928     0.0000    16.0000 </r>
       <r>   -26.5177     0.0000    16.0000 </r>
       <r>   -26.4426     0.0000    16.0000 </r>
       <r>   -26.3675     0.0000    16.0000 </r>
       <r>   -26.2924     0.0000    16.0000 </r>
       <r>   -26.2173     0.0000    16.0000 </r>
       <r>   -26.1422    -0.0000    16.0000 </r>
       <r>   -26.0671    -0.0000    16.0000 </r>
       <r>   -25.9920    -0.0000    16.0000 </r>
       <r>   -25.9169    -0.0000    16.0000 </r>
       <r>   -25.8418    -0.0000    16.0000 </r>
       <r>   -25.7667    -0.0000    16.0000 </r>
       <r>   -25.6916    -0.0002    16.0000 </r>
       <r>   -25.6165    -0.0213    15.9984 </r>
       <r>   -25.5414    -0.5699    15.9556 </r>
       <r>   -25.4663    -2.9994    15.7303 </r>
       <r>   -25.3912    10.5387    16.5218 </r>
       <r>   -25.3161    54.2411    20.5952 </r>
       <r>   -25.2410    62.4647    25.2862 </r>
       <r>   -25.1659    90.5700    32.0878 </r>
       <r>   -25.0908    90.9525    38.9181 </r>
       <r>   -25.0157    55.2226    43.0653 </r>
       <r>   -24.9406    54.4229    47.1523 </r>
       <r>   -24.8655    68.5685    52.3017 </r>
       <r>   -24.7904    97.3704    59.6140 </r>
       <r>   -24.7153    55.9168    63.8132 </r>
       <r>   -24.6402     5.6381    64.2367 </r>
       <r>   -24.5651    -2.6385    64.0385 </r>
       <r>   -24.4900    -0.4904    64.0017 </r>
       <r>   -24.4149    -0.0220    64.0000 </r>
       <r>   -24.3398    -0.0003    64.0000 </r>
       <r>   -24.2647    -0.0000    64.0000 </r>
       <r>   -24.1896    -0.0000    64.0000 </r>
       <r>   -24.1145    -0.0000    64.0000 </r>
       <r>   -24.0395     0.0000    64.0000 </r>
       <r>   -23.9644     0.0000    64.0000 </r>
       <r>   -23.8893     0.0000    64.0000 </r>
       <r>   -23.8142     0.0000    64.0000 </r>
       <r>   -23.7391     0.0000    64.0000 </r>
       <r>   -23.6640     0.0000    64.0000 </r>
       <r>   -23.5889     0.0000    64.0000 </r>
       <r>   -23.5138     0.0000    64.0000 </r>
       <r>   -23.4387     0.0000    64.0000 </r>
       <r>   -23.3636     0.0000    64.0000 </r>
       <r>   -23.2885     0.0000    64.0000 </r>
       <r>   -23.2134     0.0000    64.0000 </r>
       <r>   -23.1383     0.0000    64.0000 </r>
       <r>   -23.0632     0.0000    64.0000 </r>
       <r>   -22.9881     0.0000    64.0000 </r>
       <r>   -22.9130     0.0000    64.0000 </r>
       <r>   -22.8379     0.0000    64.0000 </r>
       <r>   -22.7628     0.0000    64.0000 </r>
       <r>   -22.6877     0.0000    64.0000 </r>
       <r>   -22.6126     0.0000    64.0000 </r>
       <r>   -22.5375     0.0000    64.0000 </r>
       <r>   -22.4624     0.0000    64.0000 </r>
       <r>   -22.3873     0.0000    64.0000 </r>
       <r>   -22.3122     0.0000    64.0000 </r>
       <r>   -22.2371     0.0000    64.0000 </r>
       <r>   -22.1620     0.0000    64.0000 </r>
       <r>   -22.0869     0.0000    64.0000 </r>
       <r>   -22.0118     0.0000    64.0000 </r>
       <r>   -21.9367     0.0000    64.0000 </r>
       <r>   -21.8616     0.0000    64.0000 </r>
       <r>   -21.7865     0.0000    64.0000 </r>
       <r>   -21.7114     0.0000    64.0000 </r>
       <r>   -21.6363     0.0000    64.0000 </r>
       <r>   -21.5612     0.0000    64.0000 </r>
       <r>   -21.4861     0.0000    64.0000 </r>
       <r>   -21.4110     0.0000    64.0000 </r>
       <r>   -21.3359     0.0000    64.0000 </r>
       <r>   -21.2608     0.0000    64.0000 </r>
       <r>   -21.1857     0.0000    64.0000 </r>
       <r>   -21.1106     0.0000    64.0000 </r>
       <r>   -21.0355     0.0000    64.0000 </r>
       <r>   -20.9604     0.0000    64.0000 </r>
       <r>   -20.8853     0.0000    64.0000 </r>
       <r>   -20.8102     0.0000    64.0000 </r>
       <r>   -20.7351     0.0000    64.0000 </r>
       <r>   -20.6600     0.0000    64.0000 </r>
       <r>   -20.5849     0.0000    64.0000 </r>
       <r>   -20.5098     0.0000    64.0000 </r>
       <r>   -20.4347     0.0000    64.0000 </r>
       <r>   -20.3596     0.0000    64.0000 </r>
       <r>   -20.2845     0.0000    64.0000 </r>
       <r>   -20.2094     0.0000    64.0000 </r>
       <r>   -20.1344     0.0000    64.0000 </r>
       <r>   -20.0593     0.0000    64.0000 </r>
       <r>   -19.9842     0.0000    64.0000 </r>
       <r>   -19.9091     0.0000    64.0000 </r>
       <r>   -19.8340     0.0000    64.0000 </r>
       <r>   -19.7589     0.0000    64.0000 </r>
       <r>   -19.6838     0.0000    64.0000 </r>
       <r>   -19.6087     0.0000    64.0000 </r>
       <r>   -19.5336     0.0000    64.0000 </r>
       <r>   -19.4585     0.0000    64.0000 </r>
       <r>   -19.3834     0.0000    64.0000 </r>
       <r>   -19.3083     0.0000    64.0000 </r>
       <r>   -19.2332     0.0000    64.0000 </r>
       <r>   -19.1581     0.0000    64.0000 </r>
       <r>   -19.0830     0.0000    64.0000 </r>
       <r>   -19.0079     0.0000    64.0000 </r>
       <r>   -18.9328     0.0000    64.0000 </r>
       <r>   -18.8577     0.0000    64.0000 </r>
       <r>   -18.7826     0.0000    64.0000 </r>
       <r>   -18.7075     0.0000    64.0000 </r>
       <r>   -18.6324     0.0000    64.0000 </r>
       <r>   -18.5573     0.0000    64.0000 </r>
       <r>   -18.4822     0.0000    64.0000 </r>
       <r>   -18.4071     0.0000    64.0000 </r>
       <r>   -18.3320     0.0000    64.0000 </r>
       <r>   -18.2569     0.0000    64.0000 </r>
       <r>   -18.1818     0.0000    64.0000 </r>
       <r>   -18.1067     0.0000    64.0000 </r>
       <r>   -18.0316     0.0000    64.0000 </r>
       <r>   -17.9565     0.0000    64.0000 </r>
       <r>   -17.8814     0.0000    64.0000 </r>
       <r>   -17.8063     0.0000    64.0000 </r>
       <r>   -17.7312     0.0000    64.0000 </r>
       <r>   -17.6561     0.0000    64.0000 </r>
       <r>   -17.5810     0.0000    64.0000 </r>
       <r>   -17.5059     0.0000    64.0000 </r>
       <r>   -17.4308     0.0000    64.0000 </r>
       <r>   -17.3557     0.0000    64.0000 </r>
       <r>   -17.2806     0.0000    64.0000 </r>
       <r>   -17.2055     0.0000    64.0000 </r>
[...]
        <r>  0.0000  0.0387  0.0000 </r>
        <r>  0.0000  0.0000  0.0000 </r>
        <r>  0.0019  0.0307  0.0000 </r>
        <r>  0.0000  0.0011  0.0000 </r>
        <r>  0.0019  0.0307  0.0000 </r>
        <r>  0.0000  0.0011  0.0000 </r>
        <r>  0.0000  0.0387  0.0000 </r>
        <r>  0.0000  0.0000  0.0000 </r>
        <r>  0.0000  0.0000  0.0030 </r>
       </set>
       <set comment="band 105">
        <r>  0.0004  0.0018  0.0253 </r>
        <r>  0.0004  0.0018  0.0253 </r>
        <r>  0.0065  0.0038  0.0203 </r>
        <r>  0.0065  0.0038  0.0203 </r>
        <r>  0.0065  0.0038  0.0203 </r>
        <r>  0.0065  0.0038  0.0203 </r>
        <r>  0.0000  0.0004  0.0204 </r>
        <r>  0.0000  0.0004  0.0204 </r>
        <r>  0.0000  0.0018  0.0000 </r>
        <r>  0.0390  0.0580  0.0000 </r>
        <r>  0.0000  0.0002  0.0000 </r>
        <r>  0.0001  0.0091  0.0000 </r>
        <r>  0.0000  0.0002  0.0000 </r>
        <r>  0.0001  0.0091  0.0000 </r>
        <r>  0.0000  0.0018  0.0000 </r>
        <r>  0.0390  0.0580  0.0000 </r>
        <r>  0.0283  0.0001  0.0263 </r>
       </set>
       <set comment="band 106">
        <r>  0.0000  0.0020  0.0101 </r>
        <r>  0.0000  0.0020  0.0101 </r>
        <r>  0.0009  0.0108  0.0230 </r>
        <r>  0.0009  0.0108  0.0230 </r>
        <r>  0.0009  0.0108  0.0230 </r>
        <r>  0.0009  0.0108  0.0230 </r>
        <r>  0.0000  0.0012  0.0205 </r>
        <r>  0.0000  0.0012  0.0205 </r>
        <r>  0.0000  0.0000  0.0000 </r>
        <r>  0.0000  0.0167  0.0000 </r>
        <r>  0.0000  0.0000  0.0000 </r>
        <r>  0.0330  0.0376  0.0000 </r>
        <r>  0.0000  0.0000  0.0000 </r>
        <r>  0.0330  0.0376  0.0000 </r>
        <r>  0.0000  0.0000  0.0000 </r>
        <r>  0.0000  0.0167  0.0000 </r>
        <r>  0.0000  0.0121  0.0081 </r>
       </set>
       <set comment="band 107">
        <r>  0.0015  0.0156  0.0067 </r>
        <r>  0.0015  0.0156  0.0067 </r>
        <r>  0.0004  0.0018  0.0348 </r>
        <r>  0.0004  0.0018  0.0348 </r>
        <r>  0.0004  0.0018  0.0348 </r>
        <r>  0.0004  0.0018  0.0348 </r>
        <r>  0.0037  0.0053  0.0387 </r>
        <r>  0.0037  0.0053  0.0387 </r>
        <r>  0.0374  0.0104  0.0000 </r>
        <r>  0.0000  0.0160  0.0000 </r>
        <r>  0.0054  0.0157  0.0000 </r>
        <r>  0.0000  0.0088  0.0000 </r>
        <r>  0.0054  0.0157  0.0000 </r>
        <r>  0.0000  0.0088  0.0000 </r>
        <r>  0.0374  0.0104  0.0000 </r>
        <r>  0.0000  0.0160  0.0000 </r>
        <r>  0.0000  0.0327  0.0075 </r>
       </set>
       <set comment="band 108">
        <r>  0.0073  0.0025  0.0130 </r>
        <r>  0.0073  0.0025  0.0130 </r>
        <r>  0.0025  0.0007  0.0240 </r>
        <r>  0.0025  0.0007  0.0240 </r>
        <r>  0.0025  0.0007  0.0240 </r>
        <r>  0.0025  0.0007  0.0240 </r>
        <r>  0.0026  0.0007  0.0025 </r>
        <r>  0.0026  0.0007  0.0025 </r>
        <r>  0.0000  0.0027  0.0000 </r>
        <r>  0.0286  0.0110  0.0000 </r>
        <r>  0.0000  0.0019  0.0000 </r>
        <r>  0.0007  0.0364  0.0000 </r>
        <r>  0.0000  0.0019  0.0000 </r>
        <r>  0.0007  0.0364  0.0000 </r>
        <r>  0.0000  0.0027  0.0000 </r>
        <r>  0.0286  0.0110  0.0000 </r>
        <r>  0.0066  0.0774  0.0086 </r>
       </set>
       <set comment="band 109">
        <r>  0.0087  0.0002  0.0403 </r>
        <r>  0.0087  0.0002  0.0403 </r>
        <r>  0.0050  0.0015  0.0259 </r>
        <r>  0.0050  0.0015  0.0259 </r>
        <r>  0.0050  0.0015  0.0259 </r>
        <r>  0.0050  0.0015  0.0259 </r>
        <r>  0.0047  0.0121  0.0114 </r>
        <r>  0.0047  0.0121  0.0114 </r>
        <r>  0.0294  0.0225  0.0000 </r>
        <r>  0.0000  0.0052  0.0000 </r>
        <r>  0.0329  0.0232  0.0000 </r>
        <r>  0.0000  0.0004  0.0000 </r>
        <r>  0.0329  0.0232  0.0000 </r>
        <r>  0.0000  0.0004  0.0000 </r>
        <r>  0.0294  0.0225  0.0000 </r>
        <r>  0.0000  0.0052  0.0000 </r>
        <r>  0.0000  0.0194  0.0049 </r>
       </set>
       <set comment="band 110">
        <r>  0.0000  0.0015  0.0139 </r>
        <r>  0.0000  0.0015  0.0139 </r>
        <r>  0.0014  0.0017  0.0287 </r>
        <r>  0.0014  0.0017  0.0287 </r>
        <r>  0.0014  0.0017  0.0287 </r>
        <r>  0.0014  0.0017  0.0287 </r>
        <r>  0.0000  0.0027  0.0178 </r>
        <r>  0.0000  0.0027  0.0178 </r>
        <r>  0.0000  0.0334  0.0000 </r>
        <r>  0.0000  0.0000  0.0000 </r>
        <r>  0.0361  0.0404  0.0000 </r>
        <r>  0.0000  0.0024  0.0000 </r>
        <r>  0.0361  0.0404  0.0000 </r>
        <r>  0.0000  0.0024  0.0000 </r>
        <r>  0.0000  0.0334  0.0000 </r>
        <r>  0.0000  0.0000  0.0000 </r>
        <r>  0.0000  0.0000  0.0001 </r>
       </set>
       <set comment="band 111">
        <r>  0.0035  0.0148  0.0210 </r>
        <r>  0.0035  0.0148  0.0210 </r>
        <r>  0.0021  0.0038  0.0348 </r>
        <r>  0.0021  0.0038  0.0348 </r>
        <r>  0.0021  0.0038  0.0348 </r>
        <r>  0.0021  0.0038  0.0348 </r>
        <r>  0.0063  0.0213  0.0011 </r>
        <r>  0.0063  0.0213  0.0011 </r>
        <r>  0.0000  0.0047  0.0000 </r>
        <r>  0.0012  0.0025  0.0000 </r>
        <r>  0.0000  0.0311  0.0000 </r>
        <r>  0.0049  0.0015  0.0000 </r>
        <r>  0.0000  0.0311  0.0000 </r>
        <r>  0.0049  0.0015  0.0000 </r>
        <r>  0.0000  0.0047  0.0000 </r>
        <r>  0.0012  0.0025  0.0000 </r>
        <r>  0.0082  0.0026  0.0219 </r>
       </set>
       <set comment="band 112">
        <r>  0.0000  0.0027  0.0456 </r>
        <r>  0.0000  0.0027  0.0456 </r>
        <r>  0.0120  0.0196  0.0372 </r>
        <r>  0.0120  0.0196  0.0372 </r>
        <r>  0.0120  0.0196  0.0372 </r>
        <r>  0.0120  0.0196  0.0372 </r>
        <r>  0.0000  0.0005  0.0205 </r>
        <r>  0.0000  0.0005  0.0205 </r>
        <r>  0.0000  0.0011  0.0000 </r>
        <r>  0.0000  0.0000  0.0000 </r>
        <r>  0.0080  0.0022  0.0000 </r>
        <r>  0.0000  0.0171  0.0000 </r>
        <r>  0.0080  0.0022  0.0000 </r>
        <r>  0.0000  0.0171  0.0000 </r>
        <r>  0.0000  0.0011  0.0000 </r>
        <r>  0.0000  0.0000  0.0000 </r>
        <r>  0.0000  0.0000  0.0013 </r>
       </set>
       <set comment="band 113">
        <r>  0.0003  0.0011  0.0553 </r>
        <r>  0.0003  0.0011  0.0553 </r>
        <r>  0.0065  0.0010  0.0034 </r>
        <r>  0.0065  0.0010  0.0034 </r>
        <r>  0.0065  0.0010  0.0034 </r>
        <r>  0.0065  0.0010  0.0034 </r>
        <r>  0.0244  0.0030  0.0495 </r>
        <r>  0.0244  0.0030  0.0495 </r>
        <r>  0.0181  0.0218  0.0000 </r>
        <r>  0.0000  0.0153  0.0000 </r>
        <r>  0.0004  0.0189  0.0000 </r>
        <r>  0.0000  0.0158  0.0000 </r>
        <r>  0.0004  0.0189  0.0000 </r>
        <r>  0.0000  0.0158  0.0000 </r>
        <r>  0.0181  0.0218  0.0000 </r>
        <r>  0.0000  0.0153  0.0000 </r>
        <r>  0.0000  0.0217  0.0004 </r>
       </set>
       <set comment="band 114">
        <r>  0.0094  0.0306  0.0155 </r>
        <r>  0.0094  0.0306  0.0155 </r>
        <r>  0.0002  0.0038  0.0270 </r>
        <r>  0.0002  0.0038  0.0270 </r>
        <r>  0.0002  0.0038  0.0270 </r>
        <r>  0.0002  0.0038  0.0270 </r>
        <r>  0.0068  0.0413  0.0130 </r>
        <r>  0.0068  0.0413  0.0130 </r>
        <r>  0.0000  0.0001  0.0000 </r>
        <r>  0.0103  0.0005  0.0000 </r>
        <r>  0.0000  0.0016  0.0000 </r>
        <r>  0.0004  0.0003  0.0000 </r>
        <r>  0.0000  0.0016  0.0000 </r>
        <r>  0.0004  0.0003  0.0000 </r>
        <r>  0.0000  0.0001  0.0000 </r>
        <r>  0.0103  0.0005  0.0000 </r>
        <r>  0.0015  0.0000  0.0076 </r>
       </set>
       <set comment="band 115">
        <r>  0.0000  0.0049  0.0432 </r>
        <r>  0.0000  0.0049  0.0432 </r>
        <r>  0.0129  0.0176  0.0387 </r>
        <r>  0.0129  0.0176  0.0387 </r>
        <r>  0.0129  0.0176  0.0387 </r>
        <r>  0.0129  0.0176  0.0387 </r>
        <r>  0.0000  0.0010  0.0215 </r>
        <r>  0.0000  0.0010  0.0215 </r>
        <r>  0.0000  0.0000  0.0000 </r>
        <r>  0.0000  0.0019  0.0000 </r>
        <r>  0.0000  0.0108  0.0000 </r>
        <r>  0.0004  0.0067  0.0000 </r>
        <r>  0.0000  0.0108  0.0000 </r>
        <r>  0.0004  0.0067  0.0000 </r>
        <r>  0.0000  0.0000  0.0000 </r>
        <r>  0.0000  0.0019  0.0000 </r>
        <r>  0.0000  0.0059  0.0029 </r>
       </set>
       <set comment="band 116">
        <r>  0.0237  0.0037  0.0278 </r>
        <r>  0.0237  0.0037  0.0278 </r>
        <r>  0.0091  0.0015  0.0124 </r>
        <r>  0.0091  0.0015  0.0124 </r>
        <r>  0.0091  0.0015  0.0124 </r>
        <r>  0.0091  0.0015  0.0124 </r>
        <r>  0.0000  0.0011  0.0636 </r>
        <r>  0.0000  0.0011  0.0636 </r>
        <r>  0.0048  0.0156  0.0000 </r>
        <r>  0.0000  0.0156  0.0000 </r>
        <r>  0.0004  0.0045  0.0000 </r>
        <r>  0.0000  0.0153  0.0000 </r>
        <r>  0.0004  0.0045  0.0000 </r>
        <r>  0.0000  0.0153  0.0000 </r>
        <r>  0.0048  0.0156  0.0000 </r>
        <r>  0.0000  0.0156  0.0000 </r>
        <r>  0.0000  0.0030  0.0002 </r>
       </set>
       <set comment="band 117">
        <r>  0.0258  0.0119  0.0181 </r>
        <r>  0.0258  0.0119  0.0181 </r>
        <r>  0.0012  0.0007  0.0225 </r>
        <r>  0.0012  0.0007  0.0225 </r>
        <r>  0.0012  0.0007  0.0225 </r>
        <r>  0.0012  0.0007  0.0225 </r>
        <r>  0.0183  0.0117  0.0144 </r>
        <r>  0.0183  0.0117  0.0144 </r>
        <r>  0.0000  0.0546  0.0000 </r>
        <r>  0.0024  0.0039  0.0000 </r>
        <r>  0.0000  0.0000  0.0000 </r>
        <r>  0.0022  0.0080  0.0000 </r>
        <r>  0.0000  0.0000  0.0000 </r>
        <r>  0.0022  0.0080  0.0000 </r>
        <r>  0.0000  0.0546  0.0000 </r>
        <r>  0.0024  0.0039  0.0000 </r>
        <r>  0.0022  0.0000  0.0194 </r>
       </set>
       <set comment="band 118">
        <r>  0.0043  0.0029  0.0258 </r>
        <r>  0.0043  0.0029  0.0258 </r>
        <r>  0.0137  0.0084  0.0199 </r>
        <r>  0.0137  0.0084  0.0199 </r>
        <r>  0.0137  0.0084  0.0199 </r>
        <r>  0.0137  0.0084  0.0199 </r>
        <r>  0.0025  0.0025  0.0166 </r>
        <r>  0.0025  0.0025  0.0166 </r>
        <r>  0.0048  0.0047  0.0000 </r>
        <r>  0.0000  0.0106  0.0000 </r>
        <r>  0.0036  0.0116  0.0000 </r>
        <r>  0.0000  0.0183  0.0000 </r>
        <r>  0.0036  0.0116  0.0000 </r>
        <r>  0.0000  0.0183  0.0000 </r>
        <r>  0.0048  0.0047  0.0000 </r>
        <r>  0.0000  0.0106  0.0000 </r>
        <r>  0.0000  0.0036  0.0087 </r>
       </set>
       <set comment="band 119">
        <r>  0.0000  0.0103  0.0116 </r>
        <r>  0.0000  0.0103  0.0116 </r>
        <r>  0.0154  0.0130  0.0220 </r>
        <r>  0.0154  0.0130  0.0220 </r>
        <r>  0.0154  0.0130  0.0220 </r>
        <r>  0.0154  0.0130  0.0220 </r>
        <r>  0.0000  0.0001  0.0123 </r>
        <r>  0.0000  0.0001  0.0123 </r>
        <r>  0.0000  0.0054  0.0000 </r>
        <r>  0.0000  0.0000  0.0000 </r>
        <r>  0.0106  0.0075  0.0000 </r>
        <r>  0.0000  0.0191  0.0000 </r>
        <r>  0.0106  0.0075  0.0000 </r>
        <r>  0.0000  0.0191  0.0000 </r>
        <r>  0.0000  0.0054  0.0000 </r>
        <r>  0.0000  0.0000  0.0000 </r>
        <r>  0.0000  0.0000  0.0339 </r>
       </set>
       <set comment="band 120">
        <r>  0.0125  0.0060  0.0320 </r>
        <r>  0.0125  0.0060  0.0320 </r>
        <r>  0.0002  0.0006  0.0190 </r>
        <r>  0.0002  0.0006  0.0190 </r>
        <r>  0.0002  0.0006  0.0190 </r>
        <r>  0.0002  0.0006  0.0190 </r>
        <r>  0.0083  0.0065  0.0350 </r>
        <r>  0.0083  0.0065  0.0350 </r>
        <r>  0.0087  0.0205  0.0000 </r>
        <r>  0.0000  0.0097  0.0000 </r>
        <r>  0.0000  0.0114  0.0000 </r>
        <r>  0.0000  0.0022  0.0000 </r>
        <r>  0.0000  0.0114  0.0000 </r>
        <r>  0.0000  0.0022  0.0000 </r>
        <r>  0.0087  0.0205  0.0000 </r>
        <r>  0.0000  0.0097  0.0000 </r>
        <r>  0.0000  0.0103  0.0002 </r>
       </set>
       <set comment="band 121">
        <r>  0.0000  0.0248  0.0267 </r>
        <r>  0.0000  0.0248  0.0267 </r>
        <r>  0.0010  0.0128  0.0416 </r>
        <r>  0.0010  0.0128  0.0416 </r>
        <r>  0.0010  0.0128  0.0416 </r>
        <r>  0.0010  0.0128  0.0416 </r>
        <r>  0.0000  0.0365  0.0200 </r>
        <r>  0.0000  0.0365  0.0200 </r>
        <r>  0.0000  0.0000  0.0000 </r>
        <r>  0.0000  0.0089  0.0000 </r>
        <r>  0.0000  0.0001  0.0000 </r>
        <r>  0.0031  0.0039  0.0000 </r>
        <r>  0.0000  0.0001  0.0000 </r>
        <r>  0.0031  0.0039  0.0000 </r>
        <r>  0.0000  0.0000  0.0000 </r>
        <r>  0.0000  0.0089  0.0000 </r>
        <r>  0.0000  0.0038  0.0044 </r>
       </set>
       <set comment="band 122">
        <r>  0.0000  0.0001  0.0152 </r>
        <r>  0.0000  0.0001  0.0152 </r>
        <r>  0.0166  0.0039  0.0104 </r>
        <r>  0.0166  0.0039  0.0104 </r>
        <r>  0.0166  0.0039  0.0104 </r>
        <r>  0.0166  0.0039  0.0104 </r>
        <r>  0.0000  0.0004  0.0130 </r>
        <r>  0.0000  0.0004  0.0130 </r>
        <r>  0.0000  0.0000  0.0000 </r>
        <r>  0.0000  0.0279  0.0000 </r>
        <r>  0.0000  0.0409  0.0000 </r>
        <r>  0.0015  0.0129  0.0000 </r>
        <r>  0.0000  0.0409  0.0000 </r>
        <r>  0.0015  0.0129  0.0000 </r>
        <r>  0.0000  0.0000  0.0000 </r>
        <r>  0.0000  0.0279  0.0000 </r>
        <r>  0.0000  0.1039  0.0008 </r>
       </set>
       <set comment="band 123">
        <r>  0.0000  0.0001  0.0344 </r>
        <r>  0.0000  0.0001  0.0344 </r>
        <r>  0.0076  0.0183  0.0199 </r>
        <r>  0.0076  0.0183  0.0199 </r>
        <r>  0.0076  0.0183  0.0199 </r>
        <r>  0.0076  0.0183  0.0199 </r>
        <r>  0.0000  0.0059  0.0475 </r>
        <r>  0.0000  0.0059  0.0475 </r>
        <r>  0.0000  0.0036  0.0000 </r>
        <r>  0.0000  0.0000  0.0000 </r>
        <r>  0.0101  0.0117  0.0000 </r>
        <r>  0.0000  0.0202  0.0000 </r>
        <r>  0.0101  0.0117  0.0000 </r>
        <r>  0.0000  0.0202  0.0000 </r>
        <r>  0.0000  0.0036  0.0000 </r>
        <r>  0.0000  0.0000  0.0000 </r>
        <r>  0.0000  0.0000  0.0005 </r>
       </set>
       <set comment="band 124">
        <r>  0.0071  0.0008  0.0285 </r>
        <r>  0.0071  0.0008  0.0285 </r>
        <r>  0.0152  0.0036  0.0209 </r>
        <r>  0.0152  0.0036  0.0209 </r>
        <r>  0.0152  0.0036  0.0209 </r>
        <r>  0.0152  0.0036  0.0209 </r>
        <r>  0.0047  0.0029  0.0332 </r>
        <r>  0.0047  0.0029  0.0332 </r>
        <r>  0.0000  0.0607  0.0000 </r>
        <r>  0.0008  0.0010  0.0000 </r>
        <r>  0.0000  0.0203  0.0000 </r>
        <r>  0.0005  0.0002  0.0000 </r>
        <r>  0.0000  0.0203  0.0000 </r>
        <r>  0.0005  0.0002  0.0000 </r>
        <r>  0.0000  0.0607  0.0000 </r>
        <r>  0.0008  0.0010  0.0000 </r>
        <r>  0.0000  0.0002  0.0036 </r>
       </set>
       <set comment="band 125">
        <r>  0.0151  0.0074  0.0179 </r>
        <r>  0.0151  0.0074  0.0179 </r>
        <r>  0.0000  0.0039  0.0094 </r>
        <r>  0.0000  0.0039  0.0094 </r>
        <r>  0.0000  0.0039  0.0094 </r>
        <r>  0.0000  0.0039  0.0094 </r>
        <r>  0.0241  0.0045  0.0234 </r>
        <r>  0.0241  0.0045  0.0234 </r>
        <r>  0.0070  0.0013  0.0000 </r>
        <r>  0.0000  0.0483  0.0000 </r>
        <r>  0.0001  0.0063  0.0000 </r>
        <r>  0.0000  0.0001  0.0000 </r>
        <r>  0.0001  0.0063  0.0000 </r>
        <r>  0.0000  0.0001  0.0000 </r>
        <r>  0.0070  0.0013  0.0000 </r>
        <r>  0.0000  0.0483  0.0000 </r>
        <r>  0.0000  0.0153  0.0008 </r>
       </set>
       <set comment="band 126">
        <r>  0.0000  0.0059  0.0282 </r>
        <r>  0.0000  0.0059  0.0282 </r>
        <r>  0.0033  0.0191  0.0089 </r>
        <r>  0.0033  0.0191  0.0089 </r>
        <r>  0.0033  0.0191  0.0089 </r>
        <r>  0.0033  0.0191  0.0089 </r>
        <r>  0.0000  0.0022  0.0348 </r>
        <r>  0.0000  0.0022  0.0348 </r>
        <r>  0.0003  0.0019  0.0000 </r>
        <r>  0.0000  0.0273  0.0000 </r>
        <r>  0.0152  0.0001  0.0000 </r>
        <r>  0.0000  0.0020  0.0000 </r>
        <r>  0.0152  0.0001  0.0000 </r>
        <r>  0.0000  0.0020  0.0000 </r>
        <r>  0.0003  0.0019  0.0000 </r>
        <r>  0.0000  0.0273  0.0000 </r>
        <r>  0.0000  0.0603  0.0111 </r>
       </set>
       <set comment="band 127">
        <r>  0.0000  0.0088  0.0274 </r>
        <r>  0.0000  0.0087  0.0274 </r>
        <r>  0.0009  0.0159  0.0151 </r>
        <r>  0.0009  0.0159  0.0151 </r>
        <r>  0.0009  0.0159  0.0152 </r>
        <r>  0.0009  0.0158  0.0151 </r>
        <r>  0.0000  0.0045  0.0204 </r>
        <r>  0.0000  0.0044  0.0204 </r>
        <r>  0.0000  0.0001  0.0000 </r>
        <r>  0.0000  0.0000  0.0000 </r>
        <r>  0.0000  0.0003  0.0000 </r>
        <r>  0.0000  0.0068  0.0000 </r>
        <r>  0.0000  0.0003  0.0000 </r>
        <r>  0.0000  0.0068  0.0000 </r>
        <r>  0.0000  0.0001  0.0000 </r>
        <r>  0.0000  0.0000  0.0000 </r>
        <r>  0.0000  0.0000  0.0311 </r>
       </set>
       <set comment="band 128">
        <r>  0.0000  0.0038  0.0189 </r>
        <r>  0.0000  0.0038  0.0189 </r>
        <r>  0.0002  0.0112  0.0269 </r>
        <r>  0.0002  0.0112  0.0269 </r>
        <r>  0.0002  0.0112  0.0269 </r>
        <r>  0.0002  0.0112  0.0269 </r>
        <r>  0.0002  0.0039  0.0065 </r>
        <r>  0.0002  0.0039  0.0065 </r>
        <r>  0.0000  0.0024  0.0000 </r>
        <r>  0.0055  0.0012  0.0000 </r>
        <r>  0.0000  0.0040  0.0000 </r>
        <r>  0.0001  0.0170  0.0000 </r>
        <r>  0.0000  0.0041  0.0000 </r>
        <r>  0.0001  0.0170  0.0000 </r>
        <r>  0.0000  0.0024  0.0000 </r>
        <r>  0.0056  0.0012  0.0000 </r>
        <r>  0.0102  0.0046  0.0525 </r>
       </set>
      </set>
     </set>
    </set>
   </array>
  </projected>
 </calculation>
 <structure name="finalpos" >
  <crystal>
   <varray name="basis" >
    <v>       5.85845550       0.00000000       0.00000000 </v>
    <v>       0.00000000       5.85845550       0.00000000 </v>
    <v>       0.00000000       0.00000000       8.30027397 </v>
   </varray>
   <i name="volume">    284.87786034 </i>
   <varray name="rec_basis" >
    <v>       0.17069345       0.00000000       0.00000000 </v>
    <v>       0.00000000       0.17069345       0.00000000 </v>
    <v>       0.00000000       0.00000000       0.12047795 </v>
   </varray>
  </crystal>
  <varray name="positions" >
   <v>       0.00000000       0.00000000       0.01867368 </v>
   <v>       0.00000000       0.00000000       0.48132632 </v>
   <v>       0.00000000       0.50000000       0.99550713 </v>
   <v>       0.00000000       0.50000000       0.50449287 </v>
   <v>       0.50000000       0.00000000       0.99550713 </v>
   <v>       0.50000000       0.00000000       0.50449287 </v>
   <v>       0.50000000       0.50000000       0.04638282 </v>
   <v>       0.50000000       0.50000000       0.45361718 </v>
   <v>       0.24268531       0.24268531       0.25000000 </v>
   <v>       0.21391683       0.21391683       0.75000000 </v>
   <v>       0.24268531       0.75731469       0.25000000 </v>
   <v>       0.21391683       0.78608317       0.75000000 </v>
   <v>       0.75731469       0.24268531       0.25000000 </v>
   <v>       0.78608317       0.21391683       0.75000000 </v>
   <v>       0.75731469       0.75731469       0.25000000 </v>
   <v>       0.78608317       0.78608317       0.75000000 </v>
   <v>       0.50000000       0.50000000       0.75000000 </v>
  </varray>
 </structure>
</modeling>
