  16  16   0   0
  0.1621382E+02  0.5650682E-09  0.5650682E-09  0.8124629E-09  0.5000000E-15
  1.000000000000000E-004
  CAR 
 unknown system                          
     25.62320110    -51.82247058  301      8.33075440      1.00000000
    -51.822  0.0000E+00  0.0000E+00
    -51.564  0.0000E+00  0.0000E+00
    -51.306  0.0000E+00  0.0000E+00
    -51.048  0.0000E+00  0.0000E+00
    -50.790  0.0000E+00  0.0000E+00
    -50.532  0.0000E+00  0.0000E+00
    -50.274  0.0000E+00  0.0000E+00
    -50.015  0.0000E+00  0.0000E+00
    -49.757  0.0000E+00  0.0000E+00
    -49.499  0.0000E+00  0.0000E+00
    -49.241 -0.2604E-37 -0.6722E-38
    -48.983 -0.3866E-19 -0.9981E-20
    -48.725 -0.9203E-07 -0.2376E-07
    -48.466 -0.3421E+00 -0.8831E-01
    -48.208  0.4735E+02  0.1213E+02
    -47.950  0.1499E+02  0.1600E+02
    -47.692 -0.1847E-01  0.1600E+02
    -47.434 -0.9787E-10  0.1600E+02
    -47.176  0.0000E+00  0.1600E+02
    -46.918  0.0000E+00  0.1600E+02
    -46.659  0.0000E+00  0.1600E+02
    -46.401  0.0000E+00  0.1600E+02
    -46.143  0.0000E+00  0.1600E+02
    -45.885  0.0000E+00  0.1600E+02
    -45.627  0.0000E+00  0.1600E+02
    -45.369  0.0000E+00  0.1600E+02
    -45.111  0.0000E+00  0.1600E+02
    -44.852  0.0000E+00  0.1600E+02
    -44.594  0.0000E+00  0.1600E+02
    -44.336  0.0000E+00  0.1600E+02
    -44.078  0.0000E+00  0.1600E+02
    -43.820  0.0000E+00  0.1600E+02
    -43.562  0.0000E+00  0.1600E+02
    -43.303  0.0000E+00  0.1600E+02
    -43.045  0.0000E+00  0.1600E+02
    -42.787  0.0000E+00  0.1600E+02
    -42.529  0.0000E+00  0.1600E+02
    -42.271  0.0000E+00  0.1600E+02
    -42.013  0.0000E+00  0.1600E+02
    -41.755  0.0000E+00  0.1600E+02
    -41.496  0.0000E+00  0.1600E+02
    -41.238  0.0000E+00  0.1600E+02
    -40.980  0.0000E+00  0.1600E+02
    -40.722  0.0000E+00  0.1600E+02
    -40.464  0.0000E+00  0.1600E+02
    -40.206  0.0000E+00  0.1600E+02
    -39.947  0.0000E+00  0.1600E+02
    -39.689  0.0000E+00  0.1600E+02
    -39.431  0.0000E+00  0.1600E+02
    -39.173  0.0000E+00  0.1600E+02
    -38.915  0.0000E+00  0.1600E+02
    -38.657  0.0000E+00  0.1600E+02
    -38.399  0.0000E+00  0.1600E+02
    -38.140  0.0000E+00  0.1600E+02
    -37.882  0.0000E+00  0.1600E+02
    -37.624  0.0000E+00  0.1600E+02
    -37.366  0.0000E+00  0.1600E+02
    -37.108  0.0000E+00  0.1600E+02
    -36.850  0.0000E+00  0.1600E+02
    -36.591  0.0000E+00  0.1600E+02
    -36.333  0.0000E+00  0.1600E+02
    -36.075  0.0000E+00  0.1600E+02
    -35.817  0.0000E+00  0.1600E+02
    -35.559  0.0000E+00  0.1600E+02
    -35.301  0.0000E+00  0.1600E+02
    -35.043  0.0000E+00  0.1600E+02
    -34.784  0.0000E+00  0.1600E+02
    -34.526  0.0000E+00  0.1600E+02
    -34.268  0.0000E+00  0.1600E+02
    -34.010  0.0000E+00  0.1600E+02
    -33.752  0.0000E+00  0.1600E+02
    -33.494  0.0000E+00  0.1600E+02
    -33.236  0.0000E+00  0.1600E+02
    -32.977  0.0000E+00  0.1600E+02
    -32.719  0.0000E+00  0.1600E+02
    -32.461  0.0000E+00  0.1600E+02
    -32.203  0.0000E+00  0.1600E+02
    -31.945  0.0000E+00  0.1600E+02
    -31.687  0.0000E+00  0.1600E+02
    -31.428  0.0000E+00  0.1600E+02
    -31.170  0.0000E+00  0.1600E+02
    -30.912  0.0000E+00  0.1600E+02
    -30.654  0.0000E+00  0.1600E+02
    -30.396  0.0000E+00  0.1600E+02
    -30.138  0.0000E+00  0.1600E+02
    -29.880  0.0000E+00  0.1600E+02
    -29.621  0.0000E+00  0.1600E+02
    -29.363  0.0000E+00  0.1600E+02
    -29.105  0.0000E+00  0.1600E+02
    -28.847  0.0000E+00  0.1600E+02
    -28.589  0.0000E+00  0.1600E+02
    -28.331  0.0000E+00  0.1600E+02
    -28.072  0.0000E+00  0.1600E+02
    -27.814  0.0000E+00  0.1600E+02
    -27.556  0.0000E+00  0.1600E+02
    -27.298  0.0000E+00  0.1600E+02
    -27.040  0.0000E+00  0.1600E+02
    -26.782  0.0000E+00  0.1600E+02
    -26.524  0.0000E+00  0.1600E+02
    -26.265  0.0000E+00  0.1600E+02
    -26.007  0.0000E+00  0.1600E+02
    -25.749 -0.1275E-44  0.1600E+02
    -25.491 -0.1452E-24  0.1600E+02
    -25.233 -0.2865E-10  0.1600E+02
    -24.975 -0.1067E-01  0.1600E+02
    -24.716  0.1088E+02  0.1881E+02
    -24.458  0.1153E+03  0.4857E+02
    -24.200  0.5657E+02  0.6317E+02
    -23.942  0.3202E+01  0.6400E+02
    -23.684 -0.2538E-02  0.6400E+02
    -23.426 -0.1575E-11  0.6400E+02
    -23.168  0.0000E+00  0.6400E+02
    -22.909  0.0000E+00  0.6400E+02
    -22.651  0.0000E+00  0.6400E+02
    -22.393  0.0000E+00  0.6400E+02
    -22.135  0.0000E+00  0.6400E+02
    -21.877  0.0000E+00  0.6400E+02
    -21.619  0.0000E+00  0.6400E+02
    -21.361  0.0000E+00  0.6400E+02
    -21.102  0.0000E+00  0.6400E+02
    -20.844  0.0000E+00  0.6400E+02
    -20.586  0.0000E+00  0.6400E+02
    -20.328  0.0000E+00  0.6400E+02
    -20.070  0.0000E+00  0.6400E+02
    -19.812  0.0000E+00  0.6400E+02
    -19.553  0.0000E+00  0.6400E+02
    -19.295  0.0000E+00  0.6400E+02
    -19.037  0.0000E+00  0.6400E+02
    -18.779  0.0000E+00  0.6400E+02
    -18.521  0.0000E+00  0.6400E+02
    -18.263  0.0000E+00  0.6400E+02
    -18.005  0.0000E+00  0.6400E+02
    -17.746  0.0000E+00  0.6400E+02
    -17.488  0.0000E+00  0.6400E+02
    -17.230  0.0000E+00  0.6400E+02
    -16.972  0.0000E+00  0.6400E+02
    -16.714  0.0000E+00  0.6400E+02
    -16.456  0.0000E+00  0.6400E+02
    -16.197  0.0000E+00  0.6400E+02
    -15.939  0.0000E+00  0.6400E+02
    -15.681  0.0000E+00  0.6400E+02
    -15.423  0.0000E+00  0.6400E+02
    -15.165  0.0000E+00  0.6400E+02
    -14.907  0.0000E+00  0.6400E+02
    -14.649  0.0000E+00  0.6400E+02
    -14.390  0.0000E+00  0.6400E+02
    -14.132  0.0000E+00  0.6400E+02
    -13.874  0.0000E+00  0.6400E+02
    -13.616  0.0000E+00  0.6400E+02
    -13.358  0.0000E+00  0.6400E+02
    -13.100  0.0000E+00  0.6400E+02
    -12.841  0.0000E+00  0.6400E+02
    -12.583  0.0000E+00  0.6400E+02
    -12.325  0.0000E+00  0.6400E+02
    -12.067  0.0000E+00  0.6400E+02
    -11.809  0.0000E+00  0.6400E+02
    -11.551  0.0000E+00  0.6400E+02
    -11.293  0.0000E+00  0.6400E+02
    -11.034  0.0000E+00  0.6400E+02
    -10.776  0.0000E+00  0.6400E+02
    -10.518  0.0000E+00  0.6400E+02
    -10.260  0.0000E+00  0.6400E+02
    -10.002  0.0000E+00  0.6400E+02
     -9.744  0.0000E+00  0.6400E+02
     -9.486  0.0000E+00  0.6400E+02
     -9.227  0.0000E+00  0.6400E+02
     -8.969  0.0000E+00  0.6400E+02
     -8.711  0.0000E+00  0.6400E+02
     -8.453  0.0000E+00  0.6400E+02
     -8.195  0.0000E+00  0.6400E+02
     -7.937  0.0000E+00  0.6400E+02
     -7.678  0.0000E+00  0.6400E+02
     -7.420  0.0000E+00  0.6400E+02
     -7.162  0.0000E+00  0.6400E+02
     -6.904  0.0000E+00  0.6400E+02
     -6.646  0.0000E+00  0.6400E+02
     -6.388  0.0000E+00  0.6400E+02
     -6.130  0.0000E+00  0.6400E+02
     -5.871  0.0000E+00  0.6400E+02
     -5.613  0.0000E+00  0.6400E+02
     -5.355  0.0000E+00  0.6400E+02
     -5.097  0.0000E+00  0.6400E+02
     -4.839  0.0000E+00  0.6400E+02
     -4.581  0.0000E+00  0.6400E+02
     -4.322  0.0000E+00  0.6400E+02
     -4.064  0.0000E+00  0.6400E+02
     -3.806  0.0000E+00  0.6400E+02
     -3.548  0.0000E+00  0.6400E+02
     -3.290  0.0000E+00  0.6400E+02
     -3.032  0.0000E+00  0.6400E+02
     -2.774  0.0000E+00  0.6400E+02
     -2.515  0.0000E+00  0.6400E+02
     -2.257  0.0000E+00  0.6400E+02
     -1.999  0.0000E+00  0.6400E+02
     -1.741 -0.5433E-47  0.6400E+02
     -1.483 -0.5952E-27  0.6400E+02
     -1.225 -0.9138E-13  0.6400E+02
     -0.966 -0.1919E-04  0.6400E+02
     -0.708  0.8494E-02  0.6400E+02
     -0.450  0.5405E+00  0.6414E+02
     -0.192  0.1036E+01  0.6441E+02
      0.066  0.1547E+01  0.6481E+02
      0.324  0.1737E+01  0.6526E+02
      0.582  0.2332E+01  0.6586E+02
      0.841  0.2646E+01  0.6654E+02
      1.099  0.3012E+01  0.6732E+02
      1.357  0.2836E+01  0.6805E+02
      1.615  0.3254E+01  0.6889E+02
      1.873  0.3241E+01  0.6973E+02
      2.131  0.2657E+01  0.7041E+02
      2.389  0.3864E+01  0.7141E+02
      2.648  0.3065E+01  0.7220E+02
      2.906  0.3193E+01  0.7303E+02
      3.164  0.3896E+01  0.7403E+02
      3.422  0.4756E+01  0.7526E+02
      3.680  0.3972E+01  0.7629E+02
      3.938  0.4558E+01  0.7746E+02
      4.197  0.3692E+01  0.7842E+02
      4.455  0.4059E+01  0.7946E+02
      4.713  0.3518E+01  0.8037E+02
      4.971  0.6239E+01  0.8198E+02
      5.229  0.5420E+01  0.8338E+02
      5.487  0.5395E+01  0.8478E+02
      5.745  0.7656E+01  0.8675E+02
      6.004  0.8770E+01  0.8902E+02
      6.262  0.1129E+02  0.9193E+02
      6.520  0.1221E+02  0.9508E+02
      6.778  0.1481E+02  0.9890E+02
      7.036  0.1733E+02  0.1034E+03
      7.294  0.7922E+01  0.1054E+03
      7.553  0.7264E+01  0.1073E+03
      7.811  0.1494E+02  0.1112E+03
      8.069  0.1577E+02  0.1152E+03
      8.327  0.1828E+02  0.1199E+03
      8.585  0.1277E+02  0.1232E+03
      8.843  0.1049E+02  0.1259E+03
      9.101  0.1047E+02  0.1287E+03
      9.360  0.1296E+02  0.1320E+03
      9.618  0.1535E+02  0.1360E+03
      9.876  0.1882E+02  0.1408E+03
     10.134  0.2212E+02  0.1465E+03
     10.392  0.2886E+02  0.1540E+03
     10.650  0.2253E+02  0.1598E+03
     10.909  0.1459E+02  0.1636E+03
     11.167  0.9717E+01  0.1661E+03
     11.425  0.8186E+01  0.1682E+03
     11.683  0.7453E+01  0.1701E+03
     11.941  0.8338E+01  0.1723E+03
     12.199  0.1242E+02  0.1755E+03
     12.457  0.1761E+02  0.1800E+03
     12.716  0.1167E+02  0.1830E+03
     12.974  0.7074E+01  0.1848E+03
     13.232  0.6865E+01  0.1866E+03
     13.490  0.6807E+01  0.1884E+03
     13.748  0.6904E+01  0.1902E+03
     14.006  0.8575E+01  0.1924E+03
     14.265  0.9432E+01  0.1948E+03
     14.523  0.9389E+01  0.1972E+03
     14.781  0.1249E+02  0.2005E+03
     15.039  0.9104E+01  0.2028E+03
     15.297  0.8460E+01  0.2050E+03
     15.555  0.1096E+02  0.2078E+03
     15.813  0.9276E+01  0.2102E+03
     16.072  0.8746E+01  0.2125E+03
     16.330  0.7632E+01  0.2144E+03
     16.588  0.1045E+02  0.2171E+03
     16.846  0.7014E+01  0.2189E+03
     17.104  0.1033E+02  0.2216E+03
     17.362  0.9857E+01  0.2242E+03
     17.620  0.7998E+01  0.2262E+03
     17.879  0.1067E+02  0.2290E+03
     18.137  0.8786E+01  0.2312E+03
     18.395  0.7367E+01  0.2331E+03
     18.653  0.7303E+01  0.2350E+03
     18.911  0.8458E+01  0.2372E+03
     19.169  0.7150E+01  0.2391E+03
     19.428  0.7062E+01  0.2409E+03
     19.686  0.7485E+01  0.2428E+03
     19.944  0.7836E+01  0.2448E+03
     20.202  0.7719E+01  0.2468E+03
     20.460  0.7758E+01  0.2488E+03
     20.718  0.8212E+01  0.2510E+03
     20.976  0.7410E+01  0.2529E+03
     21.235  0.7169E+01  0.2547E+03
     21.493  0.3324E+01  0.2556E+03
     21.751  0.1204E+01  0.2559E+03
     22.009  0.4178E+00  0.2560E+03
     22.267  0.9666E-02  0.2560E+03
     22.525 -0.3365E-03  0.2560E+03
     22.784 -0.3194E-09  0.2560E+03
     23.042  0.0000E+00  0.2560E+03
     23.300  0.0000E+00  0.2560E+03
     23.558  0.0000E+00  0.2560E+03
     23.816  0.0000E+00  0.2560E+03
     24.074  0.0000E+00  0.2560E+03
     24.332  0.0000E+00  0.2560E+03
     24.591  0.0000E+00  0.2560E+03
     24.849  0.0000E+00  0.2560E+03
     25.107  0.0000E+00  0.2560E+03
     25.365  0.0000E+00  0.2560E+03
     25.623  0.0000E+00  0.2560E+03
