   16   16    1    1
  0.1621382E+02  0.5650682E-09  0.5650682E-09  0.8124629E-09  0.5000000E-15
  1.000000000000000E-004
  CAR 
 unknown system                          
    120     60    128
 
  0.1276756E-14  0.1276756E-14  0.1276756E-14  0.2057613E-02
      1        -48.302213   1.000000
      2        -48.301597   1.000000
      3        -48.244714   1.000000
      4        -48.244714   1.000000
      5        -48.244253   1.000000
      6        -48.244253   1.000000
      7        -48.189360   1.000000
      8        -48.188918   1.000000
      9        -24.727236   1.000000
     10        -24.727236   1.000000
     11        -24.724590   1.000000
     12        -24.724590   1.000000
     13        -24.715692   1.000000
     14        -24.698320   1.000000
     15        -24.660259   1.000000
     16        -24.660259   1.000000
     17        -24.658891   1.000000
     18        -24.658891   1.000000
     19        -24.653707   1.000000
     20        -24.653707   1.000000
     21        -24.641131   1.000000
     22        -24.641131   1.000000
     23        -24.598929   1.000000
     24        -24.588274   1.000000
     25        -24.255937   1.000000
     26        -24.255937   1.000000
     27        -24.255388   1.000000
     28        -24.255388   1.000000
     29        -24.214410   1.000000
     30        -24.214410   1.000000
     31        -24.213817   1.000000
     32        -24.213817   1.000000
     33         -0.712550   1.000000
     34          0.763945   1.000000
     35          3.064735   1.000000
     36          3.409902   1.000000
     37          3.409902   1.000000
     38          3.756122   1.000000
     39          3.756122   1.000000
     40          3.794217   1.000000
     41          3.794217   1.000000
     42          5.137989   1.000000
     43          5.391959   1.000000
     44          5.391959   1.000000
     45          5.820698   1.000000
     46          6.060278   1.000000
     47          6.060278   1.000000
     48          6.471003   1.000000
     49          6.638382   1.000000
     50          6.638382   1.000000
     51          7.134912   1.000000
     52          7.134912   1.000000
     53          7.173989   1.000000
     54          7.173989   1.000000
     55          7.494382   1.000000
     56          7.665596   1.000000
     57          7.849388   1.000000
     58          7.849388   1.000000
     59          7.914069   1.000000
     60          7.988790   1.000007
     61          8.082648   1.001260
     62          8.082648   1.001260
     63          8.123286   1.006234
     64          8.123286   1.006234
     65          8.976300  -0.000000
     66          9.706551  -0.000000
     67          9.706551  -0.000000
     68         10.059014  -0.000000
     69         10.059014  -0.000000
     70         10.078107  -0.000000
     71         10.112015  -0.000000
     72         10.112015  -0.000000
     73         10.120567  -0.000000
     74         10.120567  -0.000000
     75         10.451987   0.000000
     76         10.478119   0.000000
     77         10.478119   0.000000
     78         10.607090   0.000000
     79         10.607090   0.000000
     80         10.832894   0.000000
     81         10.832894   0.000000
     82         11.034799   0.000000
     83         11.613924   0.000000
     84         11.627541   0.000000
     85         12.133331   0.000000
     86         12.133331   0.000000
     87         12.496363   0.000000
     88         12.496363   0.000000
     89         12.520267   0.000000
     90         12.522553   0.000000
     91         12.647325   0.000000
     92         12.647325   0.000000
     93         13.277891   0.000000
     94         13.347094   0.000000
     95         13.347094   0.000000
     96         13.448601   0.000000
     97         13.448601   0.000000
     98         13.657322   0.000000
     99         13.657322   0.000000
    100         13.987239   0.000000
    101         13.987239   0.000000
    102         14.318310   0.000000
    103         14.515909   0.000000
    104         14.667087   0.000000
    105         16.235247   0.000000
    106         16.312900   0.000000
    107         16.312900   0.000000
    108         16.595087   0.000000
    109         16.672096   0.000000
    110         16.672096   0.000000
    111         17.419383   0.000000
    112         17.721451   0.000000
    113         18.668523   0.000000
    114         18.668523   0.000000
    115         19.054504   0.000000
    116         19.054504   0.000000
    117         19.393074   0.000000
    118         19.393074   0.000000
    119         19.948832   0.000000
    120         20.552433   0.000000
    121         20.552473   0.000000
    122         20.573040   0.000000
    123         20.573040   0.000000
    124         20.974535   0.000000
    125         20.976656   0.000000
    126         20.976656   0.000000
    127         21.025677   0.000000
    128         21.025678   0.000000
 
  0.1111111E+00  0.1276756E-14  0.1276756E-14  0.8230453E-02
      1        -48.300497   1.000000
      2        -48.299886   1.000000
      3        -48.246464   1.000000
      4        -48.245994   1.000000
      5        -48.243056   1.000000
      6        -48.242594   1.000000
      7        -48.191041   1.000000
      8        -48.190594   1.000000
      9        -24.725229   1.000000
     10        -24.722617   1.000000
     11        -24.713854   1.000000
     12        -24.713414   1.000000
     13        -24.710801   1.000000
     14        -24.696616   1.000000
     15        -24.662303   1.000000
     16        -24.660862   1.000000
     17        -24.655597   1.000000
     18        -24.652068   1.000000
     19        -24.647160   1.000000
     20        -24.645775   1.000000
     21        -24.642870   1.000000
     22        -24.639543   1.000000
     23        -24.600588   1.000000
     24        -24.589890   1.000000
     25        -24.270586   1.000000
     26        -24.269949   1.000000
     27        -24.254708   1.000000
     28        -24.254154   1.000000
     29        -24.228186   1.000000
     30        -24.227547   1.000000
     31        -24.215673   1.000000
     32        -24.215054   1.000000
     33         -0.651737   1.000000
     34          0.808617   1.000000
     35          2.901878   1.000000
     36          3.132670   1.000000
     37          3.200052   1.000000
     38          3.459758   1.000000
     39          3.790806   1.000000
     40          3.854108   1.000000
     41          4.697741   1.000000
     42          5.088656   1.000000
     43          5.414008   1.000000
     44          5.652175   1.000000
     45          5.854505   1.000000
     46          5.902992   1.000000
     47          6.044796   1.000000
     48          6.520995   1.000000
     49          6.532560   1.000000
     50          6.671162   1.000000
     51          6.672386   1.000000
     52          7.121263   1.000000
     53          7.147621   1.000000
     54          7.228069   1.000000
     55          7.517744   1.000000
     56          7.670239   1.000000
     57          7.698879   1.000000
     58          7.882223   1.000000
     59          7.932982   1.000000
     60          8.035938   1.000124
     61          8.061045   1.000459
     62          8.149957   1.014127
     63          8.173687   1.024423
     64          8.584053  -0.000998
     65          8.999647  -0.000000
     66          9.701044  -0.000000
     67          9.727598  -0.000000
     68          9.933492  -0.000000
     69          9.993751  -0.000000
     70         10.096995  -0.000000
     71         10.134321  -0.000000
     72         10.150157  -0.000000
     73         10.171941  -0.000000
     74         10.290693  -0.000000
     75         10.424736   0.000000
     76         10.488337   0.000000
     77         10.547574   0.000000
     78         10.582732   0.000000
     79         10.591417   0.000000
     80         10.653719   0.000000
     81         10.821693   0.000000
     82         10.916778   0.000000
     83         11.553111   0.000000
     84         11.571259   0.000000
     85         11.778664   0.000000
     86         12.135600   0.000000
     87         12.208863   0.000000
     88         12.378519   0.000000
     89         12.438721   0.000000
     90         12.447997   0.000000
     91         12.636338   0.000000
     92         13.086021   0.000000
     93         13.258604   0.000000
     94         13.373797   0.000000
     95         13.428476   0.000000
     96         13.613190   0.000000
     97         13.676806   0.000000
     98         13.812389   0.000000
     99         13.819636   0.000000
    100         13.986323   0.000000
    101         14.078377   0.000000
    102         14.410627   0.000000
    103         14.510899   0.000000
    104         14.707938   0.000000
    105         15.694427   0.000000
    106         15.980406   0.000000
    107         16.277908   0.000000
    108         16.584125   0.000000
    109         16.751815   0.000000
    110         16.789564   0.000000
    111         17.693105   0.000000
    112         18.209897   0.000000
    113         18.423893   0.000000
    114         18.741658   0.000000
    115         19.078534   0.000000
    116         19.308246   0.000000
    117         19.343400   0.000000
    118         19.403864   0.000000
    119         19.446966   0.000000
    120         19.646249   0.000000
    121         20.166420   0.000000
    122         20.254092   0.000000
    123         20.441881   0.000000
    124         20.464025   0.000000
    125         20.495758   0.000000
    126         20.617746   0.000000
    127         20.678706   0.000000
    128         20.763267   0.000000
 
  0.2222222E+00  0.1276756E-14  0.1276756E-14  0.8230453E-02
      1        -48.295528   1.000000
      2        -48.294938   1.000000
      3        -48.251488   1.000000
      4        -48.251002   1.000000
      5        -48.238283   1.000000
      6        -48.237825   1.000000
      7        -48.195877   1.000000
      8        -48.195425   1.000000
      9        -24.719455   1.000000
     10        -24.716940   1.000000
     11        -24.708499   1.000000
     12        -24.691664   1.000000
     13        -24.673475   1.000000
     14        -24.671010   1.000000
     15        -24.668154   1.000000
     16        -24.666607   1.000000
     17        -24.661002   1.000000
     18        -24.647866   1.000000
     19        -24.647348   1.000000
     20        -24.634997   1.000000
     21        -24.609291   1.000000
     22        -24.607976   1.000000
     23        -24.605361   1.000000
     24        -24.594503   1.000000
     25        -24.312484   1.000000
     26        -24.311689   1.000000
     27        -24.267795   1.000000
     28        -24.267108   1.000000
     29        -24.251095   1.000000
     30        -24.250570   1.000000
     31        -24.219297   1.000000
     32        -24.218658   1.000000
     33         -0.470280   1.000000
     34          0.941968   1.000000
     35          2.100441   1.000000
     36          2.759304   1.000000
     37          3.333341   1.000000
     38          3.608249   1.000000
     39          3.892656   1.000000
     40          4.031925   1.000000
     41          4.948835   1.000000
     42          5.477497   1.000000
     43          5.519250   1.000000
     44          5.627804   1.000000
     45          5.872638   1.000000
     46          5.953424   1.000000
     47          5.997474   1.000000
     48          6.240896   1.000000
     49          6.440109   1.000000
     50          6.662958   1.000000
     51          6.767184   1.000000
     52          6.772757   1.000000
     53          6.976577   1.000000
     54          7.503541   1.000000
     55          7.576270   1.000000
     56          7.782396   1.000000
     57          7.792067   1.000000
     58          7.891617   1.000000
     59          7.903774   1.000000
     60          7.988932   1.000007
     61          8.013591   1.000035
     62          8.323458   0.561565
     63          8.345153   0.379542
     64          9.068768  -0.000000
     65          9.144819  -0.000000
     66          9.617850  -0.000000
     67          9.634257  -0.000000
     68          9.673871  -0.000000
     69          9.788892  -0.000000
     70         10.174195  -0.000000
     71         10.208482  -0.000000
     72         10.242802  -0.000000
     73         10.261899  -0.000000
     74         10.341034   0.000000
     75         10.341925   0.000000
     76         10.517926   0.000000
     77         10.519154   0.000000
     78         10.546648   0.000000
     79         10.687002   0.000000
     80         10.743010   0.000000
     81         10.789602   0.000000
     82         10.814197   0.000000
     83         10.963270   0.000000
     84         11.385630   0.000000
     85         11.414241   0.000000
     86         12.055694   0.000000
     87         12.079694   0.000000
     88         12.137614   0.000000
     89         12.295020   0.000000
     90         12.433965   0.000000
     91         12.600668   0.000000
     92         12.827357   0.000000
     93         13.481283   0.000000
     94         13.484237   0.000000
     95         13.860132   0.000000
     96         13.981871   0.000000
     97         14.071015   0.000000
     98         14.236314   0.000000
     99         14.245867   0.000000
    100         14.284975   0.000000
    101         14.304589   0.000000
    102         14.383112   0.000000
    103         14.604738   0.000000
    104         14.662228   0.000000
    105         14.869568   0.000000
    106         15.365772   0.000000
    107         16.170479   0.000000
    108         16.980559   0.000000
    109         17.258469   0.000000
    110         17.318001   0.000000
    111         17.778896   0.000000
    112         17.844816   0.000000
    113         17.891936   0.000000
    114         18.610940   0.000000
    115         18.919851   0.000000
    116         18.950532   0.000000
    117         18.955468   0.000000
    118         18.974082   0.000000
    119         19.150977   0.000000
    120         19.354120   0.000000
    121         19.581875   0.000000
    122         19.662572   0.000000
    123         19.850873   0.000000
    124         20.076149   0.000000
    125         20.147639   0.000000
    126         20.212468   0.000000
    127         20.316283   0.000000
    128         20.820912   0.000000
 
  0.3333333E+00  0.1276756E-14  0.1276756E-14  0.8230453E-02
      1        -48.287915   1.000000
      2        -48.287345   1.000000
      3        -48.259173   1.000000
      4        -48.258670   1.000000
      5        -48.230949   1.000000
      6        -48.230498   1.000000
      7        -48.203269   1.000000
      8        -48.202821   1.000000
      9        -24.710580   1.000000
     10        -24.708249   1.000000
     11        -24.700278   1.000000
     12        -24.684092   1.000000
     13        -24.677088   1.000000
     14        -24.675385   1.000000
     15        -24.669292   1.000000
     16        -24.655507   1.000000
     17        -24.640099   1.000000
     18        -24.627982   1.000000
     19        -24.612673   1.000000
     20        -24.611920   1.000000
     21        -24.609710   1.000000
     22        -24.601550   1.000000
     23        -24.550935   1.000000
     24        -24.549725   1.000000
     25        -24.376319   1.000000
     26        -24.375202   1.000000
     27        -24.328080   1.000000
     28        -24.327286   1.000000
     29        -24.245593   1.000000
     30        -24.245049   1.000000
     31        -24.224839   1.000000
     32        -24.224240   1.000000
     33         -0.171136   1.000000
     34          1.161833   1.000000
     35          1.383967   1.000000
     36          2.282808   1.000000
     37          3.658188   1.000000
     38          3.851893   1.000000
     39          4.054787   1.000000
     40          4.322466   1.000000
     41          4.742359   1.000000
     42          5.051979   1.000000
     43          5.224310   1.000000
     44          5.574397   1.000000
     45          5.788260   1.000000
     46          5.918085   1.000000
     47          6.109903   1.000000
     48          6.482881   1.000000
     49          6.771290   1.000000
     50          6.872906   1.000000
     51          6.919519   1.000000
     52          6.934275   1.000000
     53          6.953252   1.000000
     54          7.573383   1.000000
     55          7.626496   1.000000
     56          7.655409   1.000000
     57          7.709287   1.000000
     58          7.924855   1.000000
     59          7.949576   1.000000
     60          8.164829   1.020355
     61          8.182423   1.028389
     62          8.568123  -0.001998
     63          8.645203  -0.000041
     64          9.093283  -0.000000
     65          9.179918  -0.000000
     66          9.220059  -0.000000
     67          9.407481  -0.000000
     68          9.600739  -0.000000
     69          9.766196  -0.000000
     70          9.884968  -0.000000
     71         10.029583  -0.000000
     72         10.236160  -0.000000
     73         10.317195  -0.000000
     74         10.385877   0.000000
     75         10.439097   0.000000
     76         10.442576   0.000000
     77         10.479120   0.000000
     78         10.496083   0.000000
     79         10.563702   0.000000
     80         10.600592   0.000000
     81         10.740972   0.000000
     82         11.038509   0.000000
     83         11.147295   0.000000
     84         11.186852   0.000000
     85         11.410788   0.000000
     86         11.696991   0.000000
     87         11.765613   0.000000
     88         12.122552   0.000000
     89         12.217204   0.000000
     90         12.330759   0.000000
     91         12.532633   0.000000
     92         12.803678   0.000000
     93         13.179472   0.000000
     94         13.728647   0.000000
     95         13.767743   0.000000
     96         13.968452   0.000000
     97         14.279438   0.000000
     98         14.520648   0.000000
     99         14.528537   0.000000
    100         14.636846   0.000000
    101         14.824481   0.000000
    102         14.953545   0.000000
    103         14.965492   0.000000
    104         15.010424   0.000000
    105         15.202695   0.000000
    106         15.234038   0.000000
    107         15.985019   0.000000
    108         16.550794   0.000000
    109         17.144382   0.000000
    110         17.334813   0.000000
    111         17.619742   0.000000
    112         17.717302   0.000000
    113         17.912509   0.000000
    114         18.023618   0.000000
    115         18.078277   0.000000
    116         18.082406   0.000000
    117         18.158382   0.000000
    118         18.865592   0.000000
    119         18.960613   0.000000
    120         19.124387   0.000000
    121         19.272569   0.000000
    122         19.406302   0.000000
    123         19.445111   0.000000
    124         19.561566   0.000000
    125         19.717652   0.000000
    126         19.927251   0.000000
    127         21.030811   0.000000
    128         21.183041   0.000000
 
  0.4444444E+00  0.1276756E-14  0.1276756E-14  0.8230453E-02
      1        -48.278560   1.000000
      2        -48.278007   1.000000
      3        -48.268574   1.000000
      4        -48.268048   1.000000
      5        -48.221939   1.000000
      6        -48.221480   1.000000
      7        -48.212329   1.000000
      8        -48.211873   1.000000
      9        -24.699676   1.000000
     10        -24.697538   1.000000
     11        -24.690176   1.000000
     12        -24.688061   1.000000
     13        -24.686134   1.000000
     14        -24.679423   1.000000
     15        -24.674787   1.000000
     16        -24.664849   1.000000
     17        -24.631158   1.000000
     18        -24.621635   1.000000
     19        -24.619383   1.000000
     20        -24.610200   1.000000
     21        -24.535767   1.000000
     22        -24.533903   1.000000
     23        -24.478847   1.000000
     24        -24.477765   1.000000
     25        -24.453959   1.000000
     26        -24.452453   1.000000
     27        -24.401452   1.000000
     28        -24.400487   1.000000
     29        -24.238844   1.000000
     30        -24.238280   1.000000
     31        -24.231629   1.000000
     32        -24.231043   1.000000
     33          0.241374   1.000000
     34          0.761837   1.000000
     35          1.464207   1.000000
     36          1.842120   1.000000
     37          4.093697   1.000000
     38          4.183844   1.000000
     39          4.264717   1.000000
     40          4.503027   1.000000
     41          4.591614   1.000000
     42          4.622698   1.000000
     43          4.718174   1.000000
     44          5.210139   1.000000
     45          5.691526   1.000000
     46          5.811861   1.000000
     47          6.311303   1.000000
     48          6.539657   1.000000
     49          7.091882   1.000000
     50          7.103884   1.000000
     51          7.116578   1.000000
     52          7.147210   1.000000
     53          7.341871   1.000000
     54          7.395700   1.000000
     55          7.514685   1.000000
     56          7.579195   1.000000
     57          7.700739   1.000000
     58          8.063289   1.000512
     59          8.161638   1.018934
     60          8.430454  -0.024813
     61          8.463968  -0.033929
     62          8.546161  -0.004710
     63          8.819422  -0.000000
     64          8.899787  -0.000000
     65          9.000410  -0.000000
     66          9.263113  -0.000000
     67          9.305937  -0.000000
     68          9.311298  -0.000000
     69          9.322864  -0.000000
     70          9.474860  -0.000000
     71         10.007035  -0.000000
     72         10.144980  -0.000000
     73         10.313651  -0.000000
     74         10.389399   0.000000
     75         10.397728   0.000000
     76         10.398000   0.000000
     77         10.615945   0.000000
     78         10.620635   0.000000
     79         10.667581   0.000000
     80         10.682191   0.000000
     81         10.878907   0.000000
     82         10.926290   0.000000
     83         10.926358   0.000000
     84         11.299649   0.000000
     85         11.412213   0.000000
     86         11.781259   0.000000
     87         11.845149   0.000000
     88         11.848474   0.000000
     89         12.051602   0.000000
     90         12.264002   0.000000
     91         12.291560   0.000000
     92         12.424515   0.000000
     93         13.308279   0.000000
     94         13.865269   0.000000
     95         13.930049   0.000000
     96         13.935577   0.000000
     97         14.382268   0.000000
     98         14.414701   0.000000
     99         14.490158   0.000000
    100         15.300784   0.000000
    101         15.348365   0.000000
    102         15.382467   0.000000
    103         15.422556   0.000000
    104         15.718799   0.000000
    105         15.789048   0.000000
    106         15.795161   0.000000
    107         15.871566   0.000000
    108         16.291556   0.000000
    109         16.485728   0.000000
    110         16.654972   0.000000
    111         16.677605   0.000000
    112         16.790078   0.000000
    113         16.860278   0.000000
    114         17.518665   0.000000
    115         17.791751   0.000000
    116         18.336188   0.000000
    117         18.395196   0.000000
    118         18.874541   0.000000
    119         19.012541   0.000000
    120         19.201387   0.000000
    121         19.301526   0.000000
    122         19.438366   0.000000
    123         19.443945   0.000000
    124         19.657208   0.000000
    125         19.664208   0.000000
    126         19.757756   0.000000
    127         20.068827   0.000000
    128         20.351589   0.000000
 
  0.1111111E+00  0.1111111E+00  0.1276756E-14  0.8230453E-02
      1        -48.298777   1.000000
      2        -48.298172   1.000000
      3        -48.244800   1.000000
      4        -48.244800   1.000000
      5        -48.244335   1.000000
      6        -48.244335   1.000000
      7        -48.192721   1.000000
      8        -48.192275   1.000000
      9        -24.712002   1.000000
     10        -24.711431   1.000000
     11        -24.711431   1.000000
     12        -24.708868   1.000000
     13        -24.708868   1.000000
     14        -24.694902   1.000000
     15        -24.653950   1.000000
     16        -24.653950   1.000000
     17        -24.649973   1.000000
     18        -24.648533   1.000000
     19        -24.648343   1.000000
     20        -24.646982   1.000000
     21        -24.641278   1.000000
     22        -24.641278   1.000000
     23        -24.602252   1.000000
     24        -24.591490   1.000000
     25        -24.270165   1.000000
     26        -24.269513   1.000000
     27        -24.268438   1.000000
     28        -24.267851   1.000000
     29        -24.229474   1.000000
     30        -24.229474   1.000000
     31        -24.228849   1.000000
     32        -24.228849   1.000000
     33         -0.591079   1.000000
     34          0.853324   1.000000
     35          2.951890   1.000000
     36          2.951890   1.000000
     37          3.200126   1.000000
     38          3.248382   1.000000
     39          3.248382   1.000000
     40          4.741615   1.000000
     41          4.741615   1.000000
     42          4.998966   1.000000
     43          5.657121   1.000000
     44          5.674713   1.000000
     45          5.674713   1.000000
     46          5.884618   1.000000
     47          6.147055   1.000000
     48          6.558715   1.000000
     49          6.558715   1.000000
     50          6.570447   1.000000
     51          6.704667   1.000000
     52          6.704667   1.000000
     53          6.938272   1.000000
     54          7.542178   1.000000
     55          7.692631   1.000000
     56          7.692631   1.000000
     57          7.733175   1.000000
     58          7.886399   1.000000
     59          7.895155   1.000000
     60          8.040000   1.000155
     61          8.099908   1.002610
     62          8.099908   1.002610
     63          8.184634   1.029342
     64          8.828180  -0.000000
     65          9.022640  -0.000000
     66          9.714289  -0.000000
     67          9.714289  -0.000000
     68          9.941225  -0.000000
     69          9.979719  -0.000000
     70          9.979719  -0.000000
     71         10.077288  -0.000000
     72         10.201959  -0.000000
     73         10.201959  -0.000000
     74         10.395706   0.000000
     75         10.395973   0.000000
     76         10.474920   0.000000
     77         10.564487   0.000000
     78         10.564487   0.000000
     79         10.639222   0.000000
     80         10.639222   0.000000
     81         10.711244   0.000000
     82         10.818841   0.000000
     83         11.489208   0.000000
     84         11.513238   0.000000
     85         11.601042   0.000000
     86         11.973563   0.000000
     87         12.212921   0.000000
     88         12.212921   0.000000
     89         12.376573   0.000000
     90         12.444472   0.000000
     91         12.444472   0.000000
     92         13.382997   0.000000
     93         13.464504   0.000000
     94         13.478226   0.000000
     95         13.478226   0.000000
     96         13.540652   0.000000
     97         13.875914   0.000000
     98         13.948593   0.000000
     99         13.948593   0.000000
    100         14.086342   0.000000
    101         14.086342   0.000000
    102         14.494203   0.000000
    103         14.509891   0.000000
    104         14.774914   0.000000
    105         15.427458   0.000000
    106         15.820827   0.000000
    107         16.304608   0.000000
    108         16.561676   0.000000
    109         16.561676   0.000000
    110         16.906021   0.000000
    111         17.532555   0.000000
    112         18.106988   0.000000
    113         18.865610   0.000000
    114         18.965732   0.000000
    115         19.083811   0.000000
    116         19.143248   0.000000
    117         19.143248   0.000000
    118         19.163329   0.000000
    119         19.163329   0.000000
    120         19.283200   0.000000
    121         19.827076   0.000000
    122         19.982217   0.000000
    123         19.982217   0.000000
    124         20.399015   0.000000
    125         20.538367   0.000000
    126         20.586980   0.000000
    127         20.659895   0.000000
    128         21.407049   0.000000
 
  0.2222222E+00  0.1111111E+00  0.1276756E-14  0.1646091E-01
      1        -48.293820   1.000000
      2        -48.293227   1.000000
      3        -48.249820   1.000000
      4        -48.249341   1.000000
      5        -48.240022   1.000000
      6        -48.239560   1.000000
      7        -48.197562   1.000000
      8        -48.197113   1.000000
      9        -24.706666   1.000000
     10        -24.705715   1.000000
     11        -24.703259   1.000000
     12        -24.689977   1.000000
     13        -24.671560   1.000000
     14        -24.669131   1.000000
     15        -24.659343   1.000000
     16        -24.654998   1.000000
     17        -24.653474   1.000000
     18        -24.649199   1.000000
     19        -24.646269   1.000000
     20        -24.636717   1.000000
     21        -24.611174   1.000000
     22        -24.609832   1.000000
     23        -24.607049   1.000000
     24        -24.596115   1.000000
     25        -24.311218   1.000000