       N       E                     dE             d eps       ncg     rms          rms(c)
DAV:   1     0.889528866505E+03    0.88953E+03   -0.58253E+04 15360   0.103E+03
DAV:   2    -0.402341061008E+02   -0.92976E+03   -0.89206E+03 15424   0.282E+02
DAV:   3    -0.109812097141E+03   -0.69578E+02   -0.68078E+02 30528   0.658E+01
DAV:   4    -0.111928799374E+03   -0.21167E+01   -0.21158E+01 15808   0.104E+01
DAV:   5    -0.111977184846E+03   -0.48385E-01   -0.48385E-01 23808   0.156E+00    0.273E+01
DAV:   6    -0.100645367541E+03    0.11332E+02   -0.38286E+01 20160   0.266E+01    0.974E+00
DAV:   7    -0.992644137585E+02    0.13810E+01   -0.44907E+00 17664   0.878E+00    0.560E+00
DAV:   8    -0.991781564272E+02    0.86257E-01   -0.10029E+00 20352   0.396E+00    0.235E+00
DAV:   9    -0.991242297296E+02    0.53927E-01   -0.26639E-01 19072   0.257E+00    0.980E-01
DAV:  10    -0.991200237111E+02    0.42060E-02   -0.16178E-02 19776   0.506E-01    0.337E-01
DAV:  11    -0.991187070458E+02    0.13167E-02   -0.70526E-03 21120   0.335E-01    0.168E-01
DAV:  12    -0.991186942999E+02    0.12746E-04   -0.46950E-04 18688   0.825E-02    0.540E-02
DAV:  13    -0.991186901842E+02    0.41157E-05   -0.15625E-05 21568   0.134E-02
   1 F= -.99118690E+02 E0= -.99118342E+02  d E =-.104517E-02
