 vasp.6.5.0 16Dec24 (build Apr 17 2025 17:55:45) complex                        
  
 executed on             LinuxIFC date 2025.06.04  10:32:07
 running   64 mpi-ranks, on    1 nodes
 distrk:  each k-point on   64 cores,    1 groups
 distr:  one band on NCORE=   1 cores,   64 groups


--------------------------------------------------------------------------------------------------------


 INCAR:
   ISTART = 0
   ICHARG = 2
   PREC = N
   LREAL = .FALSE.
   ENCUT = 520
   ALGO = N
   NELM = 500
   EDIFF = 1E-05
   IBRION = -1
   ISIF = 3
   NSW = 0
   EDIFFG = -0.01
   ISMEAR = 1
   SIGMA = 0.1

 POTCAR:    PAW_PBE Ti_sv 26Sep2005               
 POTCAR:    PAW_PBE Al 04Jan2001                  
 -----------------------------------------------------------------------------
|                                                                             |
|           W    W    AA    RRRRR   N    N  II  N    N   GGGG   !!!           |
|           W    W   A  A   R    R  NN   N  II  NN   N  G    G  !!!           |
|           W    W  A    A  R    R  N N  N  II  N N  N  G       !!!           |
|           W WW W  AAAAAA  RRRRR   N  N N  II  N  N N  G  GGG   !            |
|           WW  WW  A    A  R   R   N   NN  II  N   NN  G    G                |
|           W    W  A    A  R    R  N    N  II  N    N   GGGG   !!!           |
|                                                                             |
|     For optimal performance we recommend to set                             |
|       NCORE = 2 up to number-of-cores-per-socket                            |
|     NCORE specifies how many cores store one orbital (NPAR=cpu/NCORE).      |
|     This setting can greatly improve the performance of VASP for DFT.       |
|     The default, NCORE=1 might be grossly inefficient on modern             |
|     multi-core architectures or massively parallel machines. Do your        |
|     own testing! More info at https://www.vasp.at/wiki/index.php/NCORE      |
|     Unfortunately you need to use the default for GW and RPA                |
|     calculations (for HF NCORE is supported but not extensively tested      |
|     yet).                                                                   |
|                                                                             |
 -----------------------------------------------------------------------------

 POTCAR:    PAW_PBE Ti_sv 26Sep2005               
   SHA256 =  4d747badb5a5ea28d858fbac70885b3f8929d6fd9e5b0dbe1ecb9878dc164da1 Ti_sv/POTCAR          
   COPYR  = (c) Copyright 26Sep2005 Georg Kresse                                                    
   COPYR  = This file is part of the software VASP. Any use, copying, and all other rights are regul
   COPYR  = If you do not have a valid VASP license, you may not use, copy or distribute this file. 
   VRHFIN =Ti: 3p4s3d                                                                               
   LEXCH  = PE                                                                                      
   EATOM  =  1588.0892 eV,  116.7213 Ry                                                             
                                                                                                    
   TITEL  = PAW_PBE Ti_sv 26Sep2005                                                                 
   LULTRA =        F    use ultrasoft PP ?                                                          
   IUNSCR =        1    unscreen: 0-lin 1-nonlin 2-no                                               
   RPACOR =    2.000    partial core radius                                                         
   POMASS =   47.880; ZVAL   =   12.000    mass and valenz                                          
   RCORE  =    2.300    outmost cutoff radius                                                       
   RWIGS  =    2.300; RWIGS  =    1.217    wigner-seitz radius (au A)                               
   ENMAX  =  274.610; ENMIN  =  205.957 eV                                                          
   ICORE  =        3    local potential                                                             
   LCOR   =        T    correct aug charges                                                         
   LPAW   =        T    paw PP                                                                      
   EAUG   =  482.848                                                                                
   RMAX   =    2.348    core radius for proj-oper                                                   
   RAUG   =    1.300    factor for augmentation sphere                                              
   RDEP   =    2.381    radius for radial grids                                                     
   RDEPT  =    1.930    core radius for aug-charge                                                  
                                                                                                    
   Atomic configuration                                                                             
    8 entries                                                                                       
     n  l   j            E        occ.                                                              
     1  0  0.50     -4865.3608   2.0000                                                             
     2  0  0.50      -533.1368   2.0000                                                             
     2  1  1.50      -440.5031   6.0000                                                             
     3  0  0.50       -59.3186   2.0000                                                             
     4  0  0.50        -3.7291   1.0000                                                             
     3  1  1.50       -35.7012   6.0000                                                             
     3  2  2.50        -1.9157   3.0000                                                             
     4  3  2.50        -1.3606   0.0000                                                             
   Description                                                                                      
     l       E           TYP  RCUT    TYP  RCUT                                                     
     0    -59.3185931     23  1.800                                                                 
     0     -3.7290822     23  2.300                                                                 
     1    -35.7012045     23  2.300                                                                 
     1     -1.3605826     23  2.300                                                                 
     2     -1.9156920     23  2.300                                                                 
     2     -0.0236318     23  2.300                                                                 
     3     -1.3605826     23  2.300                                                                 
  local pseudopotential read in
  partial core-charges read in
  partial kinetic energy density read in
  atomic valenz-charges read in
  non local Contribution for L=           0  read in
    real space projection operators read in
  non local Contribution for L=           0  read in
    real space projection operators read in
  non local Contribution for L=           1  read in
    real space projection operators read in
  non local Contribution for L=           1  read in
    real space projection operators read in
  non local Contribution for L=           2  read in
    real space projection operators read in
  non local Contribution for L=           2  read in
    real space projection operators read in
    PAW grid and wavefunctions read in
 
   number of l-projection  operators is LMAX  =           6
   number of lm-projection operators is LMMAX =          18
 
 POTCAR:    PAW_PBE Al 04Jan2001                  
   SHA256 =  17880443556af62b473fe41b62a467bd001ad55d2cabe504a3f22e34d4e9db96 Al/POTCAR             
   COPYR  = (c) Copyright 04Jan2001 Georg Kresse                                                    
   COPYR  = This file is part of the software VASP. Any use, copying, and all other rights are regul
   COPYR  = If you do not have a valid VASP license, you may not use, copy or distribute this file. 
   VRHFIN =Al: s2p1                                                                                 
   LEXCH  = PE                                                                                      
   EATOM  =    53.5387 eV,    3.9350 Ry                                                             
                                                                                                    
   TITEL  = PAW_PBE Al 04Jan2001                                                                    
   LULTRA =        F    use ultrasoft PP ?                                                          
   IUNSCR =        1    unscreen: 0-lin 1-nonlin 2-no                                               
   RPACOR =    1.500    partial core radius                                                         
   POMASS =   26.981; ZVAL   =    3.000    mass and valenz                                          
   RCORE  =    1.900    outmost cutoff radius                                                       
   RWIGS  =    2.650; RWIGS  =    1.402    wigner-seitz radius (au A)                               
   ENMAX  =  240.300; ENMIN  =  180.225 eV                                                          
   ICORE  =        2    local potential                                                             
   LCOR   =        T    correct aug charges                                                         
   LPAW   =        T    paw PP                                                                      
   EAUG   =  291.052                                                                                
   DEXC   =    0.000                                                                                
   RMAX   =    1.939    core radius for proj-oper                                                   
   RAUG   =    1.300    factor for augmentation sphere                                              
   RDEP   =    1.966    radius for radial grids                                                     
   RDEPT  =    1.856    core radius for aug-charge                                                  
                                                                                                    
   Atomic configuration                                                                             
    6 entries                                                                                       
     n  l   j            E        occ.                                                              
     1  0  0.50     -1511.1048   2.0000                                                             
     2  0  0.50      -108.1629   2.0000                                                             
     2  1  1.50       -69.6402   6.0000                                                             
     3  0  0.50        -7.7528   2.0000                                                             
     3  1  1.50        -2.7121   1.0000                                                             
     3  2  2.50        -2.7212   0.0000                                                             
   Description                                                                                      
     l       E           TYP  RCUT    TYP  RCUT                                                     
     0     -7.7528455     23  1.900                                                                 
     0     -3.3096929     23  1.900                                                                 
     1     -2.7120682     23  1.900                                                                 
     1     13.6058260     23  1.900                                                                 
     2     -2.7211652      7  1.900                                                                 
  local pseudopotential read in
  partial core-charges read in
  partial kinetic energy density read in
  atomic valenz-charges read in
  non local Contribution for L=           0  read in
    real space projection operators read in
  non local Contribution for L=           0  read in
    real space projection operators read in
  non local Contribution for L=           1  read in
    real space projection operators read in
  non local Contribution for L=           1  read in
    real space projection operators read in
    PAW grid and wavefunctions read in
 
   number of l-projection  operators is LMAX  =           4
   number of lm-projection operators is LMMAX =           8
 
  PAW_PBE Ti_sv 26Sep2005               :
 energy of atom  1       EATOM=-1588.0892
 kinetic energy error for atom=    0.0042 (will be added to EATOM!!)
  PAW_PBE Al 04Jan2001                  :
 energy of atom  2       EATOM=  -53.5387
 kinetic energy error for atom=    0.0002 (will be added to EATOM!!)
 
 
 POSCAR: Ti1 Al1
  positions in direct lattice
  velocities in cartesian coordinates


 exchange-correlation table for PE
   RHO(1)=    0.500       N(1)  =     2000
   RHO(2)=  100.500       N(2)  =     4000
 


--------------------------------------------------------------------------------------------------------


 ion  position               nearest neighbor table
   1  0.000  0.000  0.000-   3 2.83   5 2.83   3 2.83   5 2.83  11 2.85  12 2.85  13 2.85  14 2.85
                            15 2.85  16 2.85   9 2.85  10 2.85
   2  0.000  0.000  0.500-   4 2.83   6 2.83   4 2.83   6 2.83  11 2.85  12 2.85  13 2.85  14 2.85
                            15 2.85  16 2.85   9 2.85  10 2.85
   3  0.000  0.500  0.000-   1 2.83   7 2.83   1 2.83   7 2.83  11 2.85  12 2.85  13 2.85  14 2.85
                            15 2.85  16 2.85   9 2.85  10 2.85
   4  0.000  0.500  0.500-   2 2.83   8 2.83   2 2.83   8 2.83  11 2.85  12 2.85  13 2.85  14 2.85
                            15 2.85  16 2.85   9 2.85  10 2.85
   5  0.500  0.000  0.000-   1 2.83   7 2.83   7 2.83   1 2.83  11 2.85  12 2.85  13 2.85  14 2.85
                            15 2.85  16 2.85   9 2.85  10 2.85
   6  0.500  0.000  0.500-   2 2.83   8 2.83   8 2.83   2 2.83  11 2.85  12 2.85  13 2.85  14 2.85
                            15 2.85  16 2.85   9 2.85  10 2.85
   7  0.500  0.500  0.000-   3 2.83   5 2.83   5 2.83   3 2.83  11 2.85  12 2.85  13 2.85  14 2.85
                            15 2.85  16 2.85   9 2.85  10 2.85
   8  0.500  0.500  0.500-   4 2.83   6 2.83   6 2.83   4 2.83  11 2.85  12 2.85  13 2.85  14 2.85
                            15 2.85  16 2.85   9 2.85  10 2.85
   9  0.250  0.250  0.250-  11 2.83  13 2.83  11 2.83  13 2.83   5 2.85   6 2.85   7 2.85   8 2.85
                             1 2.85   2 2.85   3 2.85   4 2.85
  10  0.250  0.250  0.750-  12 2.83  14 2.83  12 2.83  14 2.83   5 2.85   6 2.85   7 2.85   8 2.85
                             1 2.85   2 2.85   3 2.85   4 2.85
  11  0.250  0.750  0.250-   9 2.83  15 2.83   9 2.83  15 2.83   5 2.85   6 2.85   7 2.85   8 2.85
                             1 2.85   2 2.85   3 2.85   4 2.85
  12  0.250  0.750  0.750-  10 2.83  16 2.83  10 2.83  16 2.83   5 2.85   6 2.85   7 2.85   8 2.85
                             1 2.85   2 2.85   3 2.85   4 2.85
  13  0.750  0.250  0.250-   9 2.83  15 2.83  15 2.83   9 2.83   5 2.85   6 2.85   7 2.85   8 2.85
                             1 2.85   2 2.85   3 2.85   4 2.85
  14  0.750  0.250  0.750-  10 2.83  16 2.83  16 2.83  10 2.83   5 2.85   6 2.85   7 2.85   8 2.85
                             1 2.85   2 2.85   3 2.85   4 2.85
  15  0.750  0.750  0.250-  11 2.83  13 2.83  13 2.83  11 2.83   5 2.85   6 2.85   7 2.85   8 2.85
                             1 2.85   2 2.85   3 2.85   4 2.85
  16  0.750  0.750  0.750-  12 2.83  14 2.83  14 2.83  12 2.83   5 2.85   6 2.85   7 2.85   8 2.85
                             1 2.85   2 2.85   3 2.85   4 2.85
 
  LATTYP: Found a simple tetragonal cell.
 ALAT       =     5.6506817720
 C/A-ratio  =     1.4378139695
  
  Lattice vectors:
  
 A1 = (   5.6506817720,   0.0000000000,   0.0000000000)
 A2 = (   0.0000000000,   5.6506817720,   0.0000000000)
 A3 = (   0.0000000000,   0.0000000000,   8.1246291889)


Analysis of symmetry for initial positions (statically):
=====================================================================
 Subroutine PRICEL returns following result:
 
  LATTYP: Found a simple tetragonal cell.
 ALAT       =     2.8253408860
 C/A-ratio  =     1.4378139695
  
  Lattice vectors:
  
 A1 = (   2.8253408860,   0.0000000000,   0.0000000000)
 A2 = (   0.0000000000,   2.8253408860,   0.0000000000)
 A3 = (   0.0000000000,   0.0000000000,   4.0623145945)
 
   8 primitive cells build up your supercell.
 

 Routine SETGRP: Setting up the symmetry group for a 
 simple tetragonal supercell.


 Subroutine GETGRP returns: Found 16 space group operations
 (whereof 16 operations were pure point group operations)
 out of a pool of 16 trial point group operations.


The static configuration has the point symmetry D_4h.


Analysis of symmetry for dynamics (positions and initial velocities):
=====================================================================
 Subroutine PRICEL returns following result:
 
  LATTYP: Found a simple tetragonal cell.
 ALAT       =     2.8253408860
 C/A-ratio  =     1.4378139695
  
  Lattice vectors:
  
 A1 = (   2.8253408860,   0.0000000000,   0.0000000000)
 A2 = (   0.0000000000,   2.8253408860,   0.0000000000)
 A3 = (   0.0000000000,   0.0000000000,   4.0623145945)
 
   8 primitive cells build up your supercell.
 

 Routine SETGRP: Setting up the symmetry group for a 
 simple tetragonal supercell.


 Subroutine GETGRP returns: Found 16 space group operations
 (whereof 16 operations were pure point group operations)
 out of a pool of 16 trial point group operations.


The dynamic configuration has the point symmetry D_4h.


 Subroutine INISYM returns: Found 16 space group operations
 (whereof 16 operations are pure point group operations),
 and found     8 'primitive' translations


----------------------------------------------------------------------------------------

                                     Primitive cell                                     

  volume of cell :      32.4276

  direct lattice vectors                    reciprocal lattice vectors
     2.825340886  0.000000000  0.000000000     0.353939592  0.000000000  0.000000000
     0.000000000  2.825340886  0.000000000     0.000000000  0.353939592  0.000000000
     0.000000000  0.000000000  4.062314594     0.000000000  0.000000000  0.246165081

  length of vectors
     2.825340886  2.825340886  4.062314594     0.353939592  0.353939592  0.246165081

  position of ions in fractional coordinates (direct lattice)
     0.000000000  0.000000000  0.000000000
     0.500000000  0.500000000  0.500000000

  ion indices of the primitive-cell ions
   primitive index   ion index
                 1           1
                 2           9

----------------------------------------------------------------------------------------

 
 
 KPOINTS: K-Spacing Value to Generate K-Mesh: 0.02

Automatic generation of k-mesh.
 Grid dimensions read from file:
 generate k-points for:    9    9    6

 Generating k-lattice:

  Cartesian coordinates                     Fractional coordinates (reciprocal lattice)
     0.019663311  0.000000000  0.000000000     0.111111111  0.000000000  0.000000000
     0.000000000  0.019663311  0.000000000     0.000000000  0.111111111  0.000000000
     0.000000000  0.000000000  0.020513757     0.000000000  0.000000000  0.166666667

  Length of vectors
     0.019663311  0.019663311  0.020513757

  Shift w.r.t. Gamma in fractional coordinates (k-lattice)
     0.000000000  0.000000000  0.000000000

 
 Subroutine IBZKPT returns following result:
 ===========================================
 
 Found     60 irreducible k-points:
 
 Following reciprocal coordinates:
            Coordinates               Weight
  0.000000  0.000000  0.000000      1.000000
  0.111111  0.000000  0.000000      4.000000
  0.222222  0.000000  0.000000      4.000000
  0.333333  0.000000  0.000000      4.000000
  0.444444  0.000000  0.000000      4.000000
  0.111111  0.111111  0.000000      4.000000
  0.222222  0.111111  0.000000      8.000000
  0.333333  0.111111  0.000000      8.000000
  0.444444  0.111111  0.000000      8.000000
  0.222222  0.222222  0.000000      4.000000
  0.333333  0.222222  0.000000      8.000000
  0.444444  0.222222  0.000000      8.000000
  0.333333  0.333333  0.000000      4.000000
  0.444444  0.333333  0.000000      8.000000
  0.444444  0.444444  0.000000      4.000000
  0.000000  0.000000  0.166667      2.000000
  0.111111  0.000000  0.166667      8.000000
  0.222222  0.000000  0.166667      8.000000
  0.333333  0.000000  0.166667      8.000000
  0.444444  0.000000  0.166667      8.000000
  0.111111  0.111111  0.166667      8.000000
  0.222222  0.111111  0.166667     16.000000
  0.333333  0.111111  0.166667     16.000000
  0.444444  0.111111  0.166667     16.000000
  0.222222  0.222222  0.166667      8.000000
  0.333333  0.222222  0.166667     16.000000
  0.444444  0.222222  0.166667     16.000000
  0.333333  0.333333  0.166667      8.000000
  0.444444  0.333333  0.166667     16.000000
  0.444444  0.444444  0.166667      8.000000
  0.000000  0.000000  0.333333      2.000000
  0.111111  0.000000  0.333333      8.000000
  0.222222  0.000000  0.333333      8.000000
  0.333333  0.000000  0.333333      8.000000
  0.444444  0.000000  0.333333      8.000000
  0.111111  0.111111  0.333333      8.000000
  0.222222  0.111111  0.333333     16.000000
  0.333333  0.111111  0.333333     16.000000
  0.444444  0.111111  0.333333     16.000000
  0.222222  0.222222  0.333333      8.000000
  0.333333  0.222222  0.333333     16.000000
  0.444444  0.222222  0.333333     16.000000
  0.333333  0.333333  0.333333      8.000000
  0.444444  0.333333  0.333333     16.000000
  0.444444  0.444444  0.333333      8.000000
  0.000000  0.000000  0.500000      1.000000
  0.111111  0.000000  0.500000      4.000000
  0.222222  0.000000  0.500000      4.000000
  0.333333  0.000000  0.500000      4.000000
  0.444444  0.000000  0.500000      4.000000
  0.111111  0.111111  0.500000      4.000000
  0.222222  0.111111  0.500000      8.000000
  0.333333  0.111111  0.500000      8.000000
  0.444444  0.111111  0.500000      8.000000
  0.222222  0.222222  0.500000      4.000000
  0.333333  0.222222  0.500000      8.000000
  0.444444  0.222222  0.500000      8.000000
  0.333333  0.333333  0.500000      4.000000
  0.444444  0.333333  0.500000      8.000000
  0.444444  0.444444  0.500000      4.000000
 
 Following cartesian coordinates:
            Coordinates               Weight
  0.000000  0.000000  0.000000      1.000000
  0.019663  0.000000  0.000000      4.000000
  0.039327  0.000000  0.000000      4.000000
  0.058990  0.000000  0.000000      4.000000
  0.078653  0.000000  0.000000      4.000000
  0.019663  0.019663  0.000000      4.000000
  0.039327  0.019663  0.000000      8.000000
  0.058990  0.019663  0.000000      8.000000
  0.078653  0.019663  0.000000      8.000000
  0.039327  0.039327  0.000000      4.000000
  0.058990  0.039327  0.000000      8.000000
  0.078653  0.039327  0.000000      8.000000
  0.058990  0.058990  0.000000      4.000000
  0.078653  0.058990  0.000000      8.000000
  0.078653  0.078653  0.000000      4.000000
  0.000000  0.000000  0.020514      2.000000
  0.019663  0.000000  0.020514      8.000000
  0.039327  0.000000  0.020514      8.000000
  0.058990  0.000000  0.020514      8.000000
  0.078653  0.000000  0.020514      8.000000
  0.019663  0.019663  0.020514      8.000000
  0.039327  0.019663  0.020514     16.000000
  0.058990  0.019663  0.020514     16.000000
  0.078653  0.019663  0.020514     16.000000
  0.039327  0.039327  0.020514      8.000000
  0.058990  0.039327  0.020514     16.000000
  0.078653  0.039327  0.020514     16.000000
  0.058990  0.058990  0.020514      8.000000
  0.078653  0.058990  0.020514     16.000000
  0.078653  0.078653  0.020514      8.000000
  0.000000  0.000000  0.041028      2.000000
  0.019663  0.000000  0.041028      8.000000
  0.039327  0.000000  0.041028      8.000000
  0.058990  0.000000  0.041028      8.000000
  0.078653  0.000000  0.041028      8.000000
  0.019663  0.019663  0.041028      8.000000
  0.039327  0.019663  0.041028     16.000000
  0.058990  0.019663  0.041028     16.000000
  0.078653  0.019663  0.041028     16.000000
  0.039327  0.039327  0.041028      8.000000
  0.058990  0.039327  0.041028     16.000000
  0.078653  0.039327  0.041028     16.000000
  0.058990  0.058990  0.041028      8.000000
  0.078653  0.058990  0.041028     16.000000
  0.078653  0.078653  0.041028      8.000000
  0.000000  0.000000  0.061541      1.000000
  0.019663  0.000000  0.061541      4.000000
  0.039327  0.000000  0.061541      4.000000
  0.058990  0.000000  0.061541      4.000000
  0.078653  0.000000  0.061541      4.000000
  0.019663  0.019663  0.061541      4.000000
  0.039327  0.019663  0.061541      8.000000
  0.058990  0.019663  0.061541      8.000000
  0.078653  0.019663  0.061541      8.000000
  0.039327  0.039327  0.061541      4.000000
  0.058990  0.039327  0.061541      8.000000
  0.078653  0.039327  0.061541      8.000000
  0.058990  0.058990  0.061541      4.000000
  0.078653  0.058990  0.061541      8.000000
  0.078653  0.078653  0.061541      4.000000
 


--------------------------------------------------------------------------------------------------------




 Dimension of arrays:
   k-points           NKPTS =     60   k-points in BZ     NKDIM =     60   number of bands    NBANDS=    128
   number of dos      NEDOS =    301   number of ions     NIONS =     16
   non local maximal  LDIM  =      6   non local SUM 2l+1 LMDIM =     18
   total plane-waves  NPLWV =  49152
   max r-space proj   IRMAX =      1   max aug-charges    IRDMAX=   7573
   dimension x,y,z NGX =    32 NGY =   32 NGZ =   48
   dimension x,y,z NGXF=    64 NGYF=   64 NGZF=   96
   support grid    NGXF=    64 NGYF=   64 NGZF=   96
   ions per type =               8   8
   NGX,Y,Z   is equivalent  to a cutoff of   9.41,  9.41,  9.82 a.u.
   NGXF,Y,Z  is equivalent  to a cutoff of  18.83, 18.83, 19.64 a.u.

 SYSTEM =  unknown system                          
 POSCAR =  Ti1 Al1                                 

 Startparameter for this run:
   NWRITE =      2    write-flag & timer
   PREC   = n         normal or accurate (medium, high low for compatibility)
   ISTART =      0    job   : 0-new  1-cont  2-samecut
   ICHARG =      2    charge: 1-file 2-atom 10-const
   ISPIN  =      1    spin polarized calculation?
   LNONCOLLINEAR =      F non collinear calculations
   LSORBIT =      F    spin-orbit coupling
   INIWAV =      1    electr: 0-lowe 1-rand  2-diag
   LASPH  =      F    aspherical Exc in radial PAW
 Electronic Relaxation 1
   ENCUT  =  520.0 eV  38.22 Ry    6.18 a.u.  10.51 10.51 15.11*2*pi/ulx,y,z
   ENINI  =  520.0     initial cutoff
   ENAUG  =  482.8 eV  augmentation charge cutoff
   NELM   =    500;   NELMIN=  2; NELMDL= -5     # of ELM steps 
   EDIFF  = 0.1E-04   stopping-criterion for ELM
   LREAL  =      F    real-space projection
   NLSPLINE    = F    spline interpolate recip. space projectors
   LCOMPAT=      F    compatible to vasp.4.4
   GGA_COMPAT  = T    GGA compatible to vasp.4.4-vasp.4.6
   LMAXPAW     = -100 max onsite density
   LMAXMIX     =    2 max onsite mixed and CHGCAR
   VOSKOWN=      0    Vosko Wilk Nusair interpolation
   ROPT   =    0.00000   0.00000
 Ionic relaxation
   EDIFFG = -.1E-01   stopping-criterion for IOM
   NSW    =      0    number of steps for IOM
   NBLOCK =      1;   KBLOCK =      1    inner block; outer block 
   IBRION =     -1    ionic relax: 0-MD 1-quasi-New 2-CG
   NFREE  =      0    steps in history (QN), initial steepest desc. (CG)
   ISIF   =      3    stress and relaxation
   IWAVPR =     10    prediction:  0-non 1-charg 2-wave 3-comb
   ISYM   =      2    0-nonsym 1-usesym 2-fastsym
   LCORR  =      T    Harris-Foulkes like correction to forces

   POTIM  = 0.5000    time-step for ionic-motion
   TEIN   =    0.0    initial temperature
   TEBEG  =    0.0;   TEEND  =   0.0 temperature during run
   SMASS  =  -3.00    Nose mass-parameter (am)
   estimated Nose-frequenzy (Omega)   =  0.10E-29 period in steps = 0.13E+47 mass=  -0.730E-27a.u.
   SCALEE = 1.0000    scale energy and forces
   NPACO  =    256;   APACO  = 10.0  distance and # of slots for P.C.
   PSTRESS=    0.0 pullay stress

  Mass of Ions in am
   POMASS =  47.88 26.98
  Ionic Valenz
   ZVAL   =  12.00  3.00
  Atomic Wigner-Seitz radii
   RWIGS  =  -1.00 -1.00
  virtual crystal weights 
   VCA    =   1.00  1.00
   NELECT =     120.0000    total number of electrons
   NUPDOWN=      -1.0000    fix difference up-down

 DOS related values:
   EMIN   =  10.00;   EMAX   =-10.00  energy-range for DOS
   EFERMI =   0.00;   METHOD = LEGACY      
   ISMEAR =     1;   SIGMA  =   0.10  broadening in eV -4-tet -1-fermi 0-gaus
   EFERMI_NEDOS =   21; number of points for ismear=-14 and -15

 Electronic relaxation 2 (details)
   IALGO  =     38    algorithm
   LDIAG  =      T    sub-space diagonalisation (order eigenvalues)
   LSUBROT=      F    optimize rotation matrix (better conditioning)
   TURBO    =      0    0=normal 1=particle mesh
   IRESTART =      0    0=no restart 2=restart with 2 vectors
   NREBOOT  =      0    no. of reboots
   NMIN     =      0    reboot dimension
   EREF     =   0.00    reference energy to select bands
   IMIX   =      4    mixing-type and parameters
     AMIX     =   0.40;   BMIX     =  1.00
     AMIX_MAG =   1.60;   BMIX_MAG =  1.00
     AMIN     =   0.10
     WC   =   100.;   INIMIX=   1;  MIXPRE=   1;  MAXMIX= -45

 Intra band minimization:
   WEIMIN = 0.0000     energy-eigenvalue tresh-hold
   EBREAK =  0.20E-07  absolut break condition
   DEPER  =   0.30     relativ break condition  

   TIME   =   0.40     timestep for ELM

  volume/ion in A,a.u.               =      16.21       109.42
  Fermi-wavevector in a.u.,A,eV,Ry     =   1.266097  2.392576 21.810146  1.603001
  Thomas-Fermi vector in A             =   2.399315
 
 Write flags
   LWAVE        =      T    write WAVECAR
   LDOWNSAMPLE  =      F    k-point downsampling of WAVECAR
   LCHARG       =      T    write CHGCAR
   LVTOT        =      F    write LOCPOT, total local potential
   LVHAR        =      F    write LOCPOT, Hartree potential only
   WRT_POTENTIAL= false  ! write potential to hdf5 file
   LELF         =      F    write electronic localiz. function (ELF)
   LORBIT       =      0    0 simple, 1 ext, 2 COOP (PROOUT), +10 PAW based schemes


 Python interface
   PLUGINS active      =      F    recompile with -DPLUGINS to activate
 
 Dipole corrections
   LMONO      =      F    monopole corrections only (constant potential shift)
   LDIPOL     =      F    correct potential (dipole corrections)
   IDIPOL     =      0    1-x, 2-y, 3-z, 4-all directions 
   EPSILON    =  1.0000000 bulk dielectric constant
   LVACPOTAV  =      F  vacuum potentials using an averaging scheme for the charge density
   VACPOTFLAT =  0.1000000 required flatness to determine vacuum potential
 
Coulomb truncation method
  LTRUNCATE          =      F  Coulomb kernel truncation to be used
  IDIMENSIONALITY    =      3  Dimensionality of cutoff (0 molecules / 2 surfaces)
  ISURFACE           =     -1  Direction of surface normal
  LCOARSEN           =      F  Coarsen the charge grid before padding, preferred

 
 Exchange correlation treatment:
   GGA     = PE    functional components
   XC_C    = 1    coefficients multiplying the functional components
   LIBXC   =     F    Libxc                    
   VOSKOWN =     0    Vosko Wilk Nusair interpolation
   LHFCALC =     F    Hartree Fock is set to
   LHFONE  =     F    Hartree Fock one center treatment
   AEXX    =    0.0000 exact exchange contribution

 Parameters of functionals:
   PE:
     No parameter
 
 Van der Waals corrections
   IVDW    =     0    specifies the selected vdW correction

 Linear response parameters
   LEPSILON=     F    determine dielectric tensor
   LRPA    =     F    only Hartree local field effects (RPA)
   LNABLA  =     F    use nabla operator in PAW spheres
   LVEL    =     F    velocity operator in full k-point grid
   CSHIFT  =0.1000    complex shift for real part using Kramers Kronig
   OMEGAMAX=  -1.0    maximum frequency
   DEG_THRESHOLD= 0.2000000E-02 threshold for treating states as degnerate
   RTIME   =   -0.100 relaxation time in fs
  (WPLASMAI=    0.000 imaginary part of plasma frequency in eV, 0.658/RTIME)
   DFIELD  = 0.0000000 0.0000000 0.0000000 field for delta impulse in time
 
  Optional k-point grid parameters
   LKPOINTS_OPT  =     F    use optional k-point grid
   KPOINTS_OPT_MODE=     1    mode for optional k-point grid
 
 Orbital magnetization related:
   ORBITALMAG=     F  switch on orbital magnetization
   LCHIMAG   =     F  perturbation theory with respect to B field
   DQ        =  0.001000  dq finite difference perturbation B field
   LLRAUG    =     F  two centre corrections for induced B field
   LBONE     =     F  B-component reconstruction in AE one-centre
   LVGVCALC  =     T  calculate vGv susceptibility
   LVGVAPPL  =     F  apply vGv susceptibility instead of pGv for G=0

 Random number generation:
   RANDOM_GENERATOR = DEFAULT
   PCG_SEED         = not used


--------------------------------------------------------------------------------------------------------


 Static calculation
 charge density and potential will be updated during run
 non-spin polarized calculation
 Variant of blocked Davidson
 Davidson routine will perform the subspace rotation
 perform sub-space diagonalisation
    after iterative eigenvector-optimisation
 modified Broyden-mixing scheme, WC =      100.0
 initial mixing is a Kerker type mixing with AMIX =  0.4000 and BMIX =      1.0000
 Hartree-type preconditioning will be used
 using additional bands           68
 reciprocal scheme for non local part
 use partial core corrections
 calculate Harris-corrections to forces 
   (improved forces if not selfconsistent)
 use gradient corrections 
 use of overlap-Matrix (Vanderbilt PP)
 Methfessel and Paxton  Order N= 1 SIGMA  =   0.10


--------------------------------------------------------------------------------------------------------


  energy-cutoff  :      520.00
  volume of cell :      259.42
      direct lattice vectors                 reciprocal lattice vectors
     5.650681772  0.000000000  0.000000000     0.176969796  0.000000000  0.000000000
     0.000000000  5.650681772  0.000000000     0.000000000  0.176969796  0.000000000
     0.000000000  0.000000000  8.124629189     0.000000000  0.000000000  0.123082540

  length of vectors
     5.650681772  5.650681772  8.124629189     0.176969796  0.176969796  0.123082540


 
 k-points in units of 2pi/SCALE and weight: K-Spacing Value to Generate K-Mesh: 0.02
   0.00000000  0.00000000  0.00000000       0.002
   0.01966331  0.00000000  0.00000000       0.008
   0.03932662  0.00000000  0.00000000       0.008
   0.05898993  0.00000000  0.00000000       0.008
   0.07865324  0.00000000  0.00000000       0.008
   0.01966331  0.01966331  0.00000000       0.008
   0.03932662  0.01966331  0.00000000       0.016
   0.05898993  0.01966331  0.00000000       0.016
   0.07865324  0.01966331  0.00000000       0.016
   0.03932662  0.03932662  0.00000000       0.008
   0.05898993  0.03932662  0.00000000       0.016
   0.07865324  0.03932662  0.00000000       0.016
   0.05898993  0.05898993  0.00000000       0.008
   0.07865324  0.05898993  0.00000000       0.016
   0.07865324  0.07865324  0.00000000       0.008
   0.00000000  0.00000000  0.02051376       0.004
   0.01966331  0.00000000  0.02051376       0.016
   0.03932662  0.00000000  0.02051376       0.016
   0.05898993  0.00000000  0.02051376       0.016
   0.07865324  0.00000000  0.02051376       0.016
   0.01966331  0.01966331  0.02051376       0.016
   0.03932662  0.01966331  0.02051376       0.033
   0.05898993  0.01966331  0.02051376       0.033
   0.07865324  0.01966331  0.02051376       0.033
   0.03932662  0.03932662  0.02051376       0.016
   0.05898993  0.03932662  0.02051376       0.033
   0.07865324  0.03932662  0.02051376       0.033
   0.05898993  0.05898993  0.02051376       0.016
   0.07865324  0.05898993  0.02051376       0.033
   0.07865324  0.07865324  0.02051376       0.016
   0.00000000  0.00000000  0.04102751       0.004
   0.01966331  0.00000000  0.04102751       0.016
   0.03932662  0.00000000  0.04102751       0.016
   0.05898993  0.00000000  0.04102751       0.016
   0.07865324  0.00000000  0.04102751       0.016
   0.01966331  0.01966331  0.04102751       0.016
   0.03932662  0.01966331  0.04102751       0.033
   0.05898993  0.01966331  0.04102751       0.033
   0.07865324  0.01966331  0.04102751       0.033
   0.03932662  0.03932662  0.04102751       0.016
   0.05898993  0.03932662  0.04102751       0.033
   0.07865324  0.03932662  0.04102751       0.033
   0.05898993  0.05898993  0.04102751       0.016
   0.07865324  0.05898993  0.04102751       0.033
   0.07865324  0.07865324  0.04102751       0.016
   0.00000000  0.00000000  0.06154127       0.002
   0.01966331  0.00000000  0.06154127       0.008
   0.03932662  0.00000000  0.06154127       0.008
   0.05898993  0.00000000  0.06154127       0.008
   0.07865324  0.00000000  0.06154127       0.008
   0.01966331  0.01966331  0.06154127       0.008
   0.03932662  0.01966331  0.06154127       0.016
   0.05898993  0.01966331  0.06154127       0.016
   0.07865324  0.01966331  0.06154127       0.016
   0.03932662  0.03932662  0.06154127       0.008
   0.05898993  0.03932662  0.06154127       0.016
   0.07865324  0.03932662  0.06154127       0.016
   0.05898993  0.05898993  0.06154127       0.008
   0.07865324  0.05898993  0.06154127       0.016
   0.07865324  0.07865324  0.06154127       0.008
 
 k-points in reciprocal lattice and weights: K-Spacing Value to Generate K-Mesh: 0.02
   0.00000000  0.00000000  0.00000000       0.002
   0.11111111  0.00000000  0.00000000       0.008
   0.22222222  0.00000000  0.00000000       0.008
   0.33333333  0.00000000  0.00000000       0.008
   0.44444444  0.00000000  0.00000000       0.008
   0.11111111  0.11111111  0.00000000       0.008
   0.22222222  0.11111111  0.00000000       0.016
   0.33333333  0.11111111  0.00000000       0.016
   0.44444444  0.11111111  0.00000000       0.016
   0.22222222  0.22222222  0.00000000       0.008
   0.33333333  0.22222222  0.00000000       0.016
   0.44444444  0.22222222  0.00000000       0.016
   0.33333333  0.33333333  0.00000000       0.008
   0.44444444  0.33333333  0.00000000       0.016
   0.44444444  0.44444444  0.00000000       0.008
   0.00000000  0.00000000  0.16666667       0.004
   0.11111111  0.00000000  0.16666667       0.016
   0.22222222  0.00000000  0.16666667       0.016
   0.33333333  0.00000000  0.16666667       0.016
   0.44444444  0.00000000  0.16666667       0.016
   0.11111111  0.11111111  0.16666667       0.016
   0.22222222  0.11111111  0.16666667       0.033
   0.33333333  0.11111111  0.16666667       0.033
   0.44444444  0.11111111  0.16666667       0.033
   0.22222222  0.22222222  0.16666667       0.016
   0.33333333  0.22222222  0.16666667       0.033
   0.44444444  0.22222222  0.16666667       0.033
   0.33333333  0.33333333  0.16666667       0.016
   0.44444444  0.33333333  0.16666667       0.033
   0.44444444  0.44444444  0.16666667       0.016
   0.00000000  0.00000000  0.33333333       0.004
   0.11111111  0.00000000  0.33333333       0.016
   0.22222222  0.00000000  0.33333333       0.016
   0.33333333  0.00000000  0.33333333       0.016
   0.44444444  0.00000000  0.33333333       0.016
   0.11111111  0.11111111  0.33333333       0.016
   0.22222222  0.11111111  0.33333333       0.033
   0.33333333  0.11111111  0.33333333       0.033
   0.44444444  0.11111111  0.33333333       0.033
   0.22222222  0.22222222  0.33333333       0.016
   0.33333333  0.22222222  0.33333333       0.033
   0.44444444  0.22222222  0.33333333       0.033
   0.33333333  0.33333333  0.33333333       0.016
   0.44444444  0.33333333  0.33333333       0.033
   0.44444444  0.44444444  0.33333333       0.016
   0.00000000  0.00000000  0.50000000       0.002
   0.11111111  0.00000000  0.50000000       0.008
   0.22222222  0.00000000  0.50000000       0.008
   0.33333333  0.00000000  0.50000000       0.008
   0.44444444  0.00000000  0.50000000       0.008
   0.11111111  0.11111111  0.50000000       0.008
   0.22222222  0.11111111  0.50000000       0.016
   0.33333333  0.11111111  0.50000000       0.016
   0.44444444  0.11111111  0.50000000       0.016
   0.22222222  0.22222222  0.50000000       0.008
   0.33333333  0.22222222  0.50000000       0.016
   0.44444444  0.22222222  0.50000000       0.016
   0.33333333  0.33333333  0.50000000       0.008
   0.44444444  0.33333333  0.50000000       0.016
   0.44444444  0.44444444  0.50000000       0.008
 
 position of ions in fractional coordinates (direct lattice) 
   0.00000000  0.00000000  0.00000000
   0.00000000  0.00000000  0.50000000
   0.00000000  0.50000000  0.00000000
   0.00000000  0.50000000  0.50000000
   0.50000000  0.00000000  0.00000000
   0.50000000  0.00000000  0.50000000
   0.50000000  0.50000000  0.00000000
   0.50000000  0.50000000  0.50000000
   0.25000000  0.25000000  0.25000000
   0.25000000  0.25000000  0.75000000
   0.25000000  0.75000000  0.25000000
   0.25000000  0.75000000  0.75000000
   0.75000000  0.25000000  0.25000000
   0.75000000  0.25000000  0.75000000
   0.75000000  0.75000000  0.25000000
   0.75000000  0.75000000  0.75000000
 
 position of ions in cartesian coordinates  (Angst):
   0.00000000  0.00000000  0.00000000
   0.00000000  0.00000000  4.06231459
   0.00000000  2.82534089  0.00000000
   0.00000000  2.82534089  4.06231459
   2.82534089  0.00000000  0.00000000
   2.82534089  0.00000000  4.06231459
   2.82534089  2.82534089  0.00000000
   2.82534089  2.82534089  4.06231459
   1.41267044  1.41267044  2.03115730
   1.41267044  1.41267044  6.09347189
   1.41267044  4.23801133  2.03115730
   1.41267044  4.23801133  6.09347189
   4.23801133  1.41267044  2.03115730
   4.23801133  1.41267044  6.09347189
   4.23801133  4.23801133  2.03115730
   4.23801133  4.23801133  6.09347189
 


--------------------------------------------------------------------------------------------------------


 k-point     1 :   0.0000 0.0000 0.0000  plane waves:    6979
 k-point     2 :   0.1111 0.0000 0.0000  plane waves:    6995
 k-point     3 :   0.2222 0.0000 0.0000  plane waves:    6993
 k-point     4 :   0.3333 0.0000 0.0000  plane waves:    6995
 k-point     5 :   0.4444 0.0000 0.0000  plane waves:    6981
 k-point     6 :   0.1111 0.1111 0.0000  plane waves:    6991
 k-point     7 :   0.2222 0.1111 0.0000  plane waves:    7003
 k-point     8 :   0.3333 0.1111 0.0000  plane waves:    6997
 k-point     9 :   0.4444 0.1111 0.0000  plane waves:    6989
 k-point    10 :   0.2222 0.2222 0.0000  plane waves:    7013
 k-point    11 :   0.3333 0.2222 0.0000  plane waves:    6986
 k-point    12 :   0.4444 0.2222 0.0000  plane waves:    6956
 k-point    13 :   0.3333 0.3333 0.0000  plane waves:    6973
 k-point    14 :   0.4444 0.3333 0.0000  plane waves:    6947
 k-point    15 :   0.4444 0.4444 0.0000  plane waves:    6946
 k-point    16 :   0.0000 0.0000 0.1667  plane waves:    7006
 k-point    17 :   0.1111 0.0000 0.1667  plane waves:    7000
 k-point    18 :   0.2222 0.0000 0.1667  plane waves:    6991
 k-point    19 :   0.3333 0.0000 0.1667  plane waves:    6992
 k-point    20 :   0.4444 0.0000 0.1667  plane waves:    6984
 k-point    21 :   0.1111 0.1111 0.1667  plane waves:    6997
 k-point    22 :   0.2222 0.1111 0.1667  plane waves:    6991
 k-point    23 :   0.3333 0.1111 0.1667  plane waves:    6989
 k-point    24 :   0.4444 0.1111 0.1667  plane waves:    6991
 k-point    25 :   0.2222 0.2222 0.1667  plane waves:    6992
 k-point    26 :   0.3333 0.2222 0.1667  plane waves:    6984
 k-point    27 :   0.4444 0.2222 0.1667  plane waves:    6976
 k-point    28 :   0.3333 0.3333 0.1667  plane waves:    6977
 k-point    29 :   0.4444 0.3333 0.1667  plane waves:    6963
 k-point    30 :   0.4444 0.4444 0.1667  plane waves:    6950
 k-point    31 :   0.0000 0.0000 0.3333  plane waves:    7006
 k-point    32 :   0.1111 0.0000 0.3333  plane waves:    7003
 k-point    33 :   0.2222 0.0000 0.3333  plane waves:    7006
 k-point    34 :   0.3333 0.0000 0.3333  plane waves:    6993
 k-point    35 :   0.4444 0.0000 0.3333  plane waves:    6974
 k-point    36 :   0.1111 0.1111 0.3333  plane waves:    6999
 k-point    37 :   0.2222 0.1111 0.3333  plane waves:    6986
 k-point    38 :   0.3333 0.1111 0.3333  plane waves:    6990
 k-point    39 :   0.4444 0.1111 0.3333  plane waves:    6994
 k-point    40 :   0.2222 0.2222 0.3333  plane waves:    6986
 k-point    41 :   0.3333 0.2222 0.3333  plane waves:    7001
 k-point    42 :   0.4444 0.2222 0.3333  plane waves:    6983
 k-point    43 :   0.3333 0.3333 0.3333  plane waves:    6983
 k-point    44 :   0.4444 0.3333 0.3333  plane waves:    6965
 k-point    45 :   0.4444 0.4444 0.3333  plane waves:    6950
 k-point    46 :   0.0000 0.0000 0.5000  plane waves:    7014
 k-point    47 :   0.1111 0.0000 0.5000  plane waves:    7000
 k-point    48 :   0.2222 0.0000 0.5000  plane waves:    6974
 k-point    49 :   0.3333 0.0000 0.5000  plane waves:    6978
 k-point    50 :   0.4444 0.0000 0.5000  plane waves:    7004
 k-point    51 :   0.1111 0.1111 0.5000  plane waves:    7000
 k-point    52 :   0.2222 0.1111 0.5000  plane waves:    6976
 k-point    53 :   0.3333 0.1111 0.5000  plane waves:    6972
 k-point    54 :   0.4444 0.1111 0.5000  plane waves:    6988
 k-point    55 :   0.2222 0.2222 0.5000  plane waves:    6986
 k-point    56 :   0.3333 0.2222 0.5000  plane waves:    6992
 k-point    57 :   0.4444 0.2222 0.5000  plane waves:    6986
 k-point    58 :   0.3333 0.3333 0.5000  plane waves:    7014
 k-point    59 :   0.4444 0.3333 0.5000  plane waves:    7000
 k-point    60 :   0.4444 0.4444 0.5000  plane waves:    6970

 maximum and minimum number of plane-waves per node :      7014     6946

 maximum number of plane-waves:      7014
 maximum index in each direction: 
   IXMAX=   10   IYMAX=   10   IZMAX=   15
   IXMIN=  -10   IYMIN=  -10   IZMIN=  -15


 serial   3D FFT for wavefunctions
 parallel 3D FFT for charge:
    minimum data exchange during FFTs selected (reduces bandwidth)


 total amount of memory used by VASP MPI-rank0   170474. kBytes
=======================================================================

   base                                    :      30000. kBytes
   nonl-proj                               :     123453. kBytes
   fftplans                                :        434. kBytes
   grid                                    :       2331. kBytes
   one-center                              :        248. kBytes
   wavefun                                 :      14008. kBytes
 
     INWAV:  cpu time      0.0000: real time      0.0000
 Broyden mixing: mesh for mixing (old mesh)
   NGX = 21   NGY = 21   NGZ = 31
  (NGX  = 64   NGY  = 64   NGZ  = 96)
  gives a total of  13671 points

 initial charge density was supplied:
 charge density of overlapping atoms calculated
 number of electron     120.0000000 magnetization 
 keeping initial charge density in first step


--------------------------------------------------------------------------------------------------------


 Maximum index for augmentation-charges          455 (set IRDMAX)


--------------------------------------------------------------------------------------------------------


 First call to EWALD:  gamma=   0.278
 Maximum number of real-space cells   3x   3x   2
 Maximum number of reciprocal cells   2x   2x   3

    FEWALD:  cpu time      0.0010: real time      0.0010


--------------------------------------- Ionic step        1  -------------------------------------------




--------------------------------------- Iteration      1(   1)  ---------------------------------------


    POTLOK:  cpu time      0.0081: real time      0.0081
    SETDIJ:  cpu time      0.0021: real time      0.0021
     EDDAV:  cpu time      7.3604: real time      7.3611
       DOS:  cpu time      0.0012: real time      0.0012
    --------------------------------------------
      LOOP:  cpu time      7.3718: real time      7.3725

 eigenvalue-minimisations  : 15360
 total energy-change (2. order) : 0.8895289E+03  (-0.5825274E+04)
 number of electron     120.0000000 magnetization 
 augmentation part      120.0000000 magnetization 

 Free energy of the ion-electron system (eV)
  ---------------------------------------------------
  alpha Z        PSCENC =       302.45033193
  Ewald energy   TEWEN  =     -8685.12768637
  -Hartree energ DENC   =     -4146.52216532
  -exchange      EXHF   =         0.00000000
  -V(xc)+E(xc)   XCENC  =       287.27892037
  PAW double counting   =     10646.12278294   -10233.80738393
  entropy T*S    EENTRO =        -0.00350436
  eigenvalues    EBANDS =      -413.84998389
  atomic energy  EATOM  =     13132.98755513
  Solvation  Ediel_sol  =         0.00000000
  ---------------------------------------------------
  free energy    TOTEN  =       889.52886651 eV

  energy without entropy =      889.53237086  energy(sigma->0) =      889.53003462


--------------------------------------------------------------------------------------------------------




--------------------------------------- Iteration      1(   2)  ---------------------------------------


     EDDAV:  cpu time      7.4021: real time      7.4023
       DOS:  cpu time      0.0008: real time      0.0008
    --------------------------------------------
      LOOP:  cpu time      7.4029: real time      7.4031

 eigenvalue-minimisations  : 15424
 total energy-change (2. order) :-0.9297630E+03  (-0.8920555E+03)
 number of electron     120.0000000 magnetization 
 augmentation part      120.0000000 magnetization 

 Free energy of the ion-electron system (eV)
  ---------------------------------------------------
  alpha Z        PSCENC =       302.45033193
  Ewald energy   TEWEN  =     -8685.12768637
  -Hartree energ DENC   =     -4146.52216532
  -exchange      EXHF   =         0.00000000
  -V(xc)+E(xc)   XCENC  =       287.27892037
  PAW double counting   =     10646.12278294   -10233.80738393
  entropy T*S    EENTRO =        -0.00278246
  eigenvalues    EBANDS =     -1343.61367840
  atomic energy  EATOM  =     13132.98755513
  Solvation  Ediel_sol  =         0.00000000
  ---------------------------------------------------
  free energy    TOTEN  =       -40.23410610 eV

  energy without entropy =      -40.23132364  energy(sigma->0) =      -40.23317861


--------------------------------------------------------------------------------------------------------




--------------------------------------- Iteration      1(   3)  ---------------------------------------


     EDDAV:  cpu time     22.5989: real time     22.6001
       DOS:  cpu time      0.0008: real time      0.0008
    --------------------------------------------
      LOOP:  cpu time     22.5997: real time     22.6009

 eigenvalue-minimisations  : 30528
 total energy-change (2. order) :-0.6957799E+02  (-0.6807801E+02)
 number of electron     120.0000000 magnetization 
 augmentation part      120.0000000 magnetization 

 Free energy of the ion-electron system (eV)
  ---------------------------------------------------
  alpha Z        PSCENC =       302.45033193
  Ewald energy   TEWEN  =     -8685.12768637
  -Hartree energ DENC   =     -4146.52216532
  -exchange      EXHF   =         0.00000000
  -V(xc)+E(xc)   XCENC  =       287.27892037
  PAW double counting   =     10646.12278294   -10233.80738393
  entropy T*S    EENTRO =        -0.00256303
  eigenvalues    EBANDS =     -1413.19188886
  atomic energy  EATOM  =     13132.98755513
  Solvation  Ediel_sol  =         0.00000000
  ---------------------------------------------------
  free energy    TOTEN  =      -109.81209714 eV

  energy without entropy =     -109.80953411  energy(sigma->0) =     -109.81124280


--------------------------------------------------------------------------------------------------------




--------------------------------------- Iteration      1(   4)  ---------------------------------------


     EDDAV:  cpu time      7.6179: real time      7.6184
       DOS:  cpu time      0.0008: real time      0.0008
    --------------------------------------------
      LOOP:  cpu time      7.6187: real time      7.6192

 eigenvalue-minimisations  : 15808
 total energy-change (2. order) :-0.2116702E+01  (-0.2115825E+01)
 number of electron     120.0000000 magnetization 
 augmentation part      120.0000000 magnetization 

 Free energy of the ion-electron system (eV)
  ---------------------------------------------------
  alpha Z        PSCENC =       302.45033193
  Ewald energy   TEWEN  =     -8685.12768637
  -Hartree energ DENC   =     -4146.52216532
  -exchange      EXHF   =         0.00000000
  -V(xc)+E(xc)   XCENC  =       287.27892037
  PAW double counting   =     10646.12278294   -10233.80738393
  entropy T*S    EENTRO =        -0.00209598
  eigenvalues    EBANDS =     -1415.30905815
  atomic energy  EATOM  =     13132.98755513
  Solvation  Ediel_sol  =         0.00000000
  ---------------------------------------------------
  free energy    TOTEN  =      -111.92879937 eV

  energy without entropy =     -111.92670339  energy(sigma->0) =     -111.92810071


--------------------------------------------------------------------------------------------------------




--------------------------------------- Iteration      1(   5)  ---------------------------------------


     EDDAV:  cpu time     15.4966: real time     15.4973
       DOS:  cpu time      0.0008: real time      0.0008
    CHARGE:  cpu time      0.0662: real time      0.0662
    MIXING:  cpu time      0.0003: real time      0.0003
    --------------------------------------------
      LOOP:  cpu time     15.5640: real time     15.5647

 eigenvalue-minimisations  : 23808
 total energy-change (2. order) :-0.4838547E-01  (-0.4838450E-01)
 number of electron     119.9999824 magnetization 
 augmentation part       26.9300238 magnetization 

 Broyden mixing:
  rms(total) = 0.27332E+01    rms(broyden)= 0.27331E+01
  rms(prec ) = 0.37585E+01
  weight for this iteration     100.00

 Free energy of the ion-electron system (eV)
  ---------------------------------------------------
  alpha Z        PSCENC =       302.45033193
  Ewald energy   TEWEN  =     -8685.12768637
  -Hartree energ DENC   =     -4146.52216532
  -exchange      EXHF   =         0.00000000
  -V(xc)+E(xc)   XCENC  =       287.27892037
  PAW double counting   =     10646.12278294   -10233.80738393
  entropy T*S    EENTRO =        -0.00208529
  eigenvalues    EBANDS =     -1415.35745431
  atomic energy  EATOM  =     13132.98755513
  Solvation  Ediel_sol  =         0.00000000
  ---------------------------------------------------
  free energy    TOTEN  =      -111.97718485 eV

  energy without entropy =     -111.97509955  energy(sigma->0) =     -111.97648975


--------------------------------------------------------------------------------------------------------




--------------------------------------- Iteration      1(   6)  ---------------------------------------


    POTLOK:  cpu time      0.0064: real time      0.0064
    SETDIJ:  cpu time      0.0015: real time      0.0015
     EDDAV:  cpu time     11.8117: real time     11.8123
       DOS:  cpu time      0.0008: real time      0.0008
    CHARGE:  cpu time      0.0667: real time      0.0667
    MIXING:  cpu time      0.0003: real time      0.0003
    --------------------------------------------
      LOOP:  cpu time     11.8874: real time     11.8880

 eigenvalue-minimisations  : 20160
 total energy-change (2. order) : 0.1133182E+02  (-0.3828591E+01)
 number of electron     119.9999772 magnetization 
 augmentation part       31.0709216 magnetization 

 Broyden mixing:
  rms(total) = 0.97415E+00    rms(broyden)= 0.97409E+00
  rms(prec ) = 0.14713E+01
  weight for this iteration     100.00

 eigenvalues of (default mixing * dielectric matrix)
  average eigenvalue GAMMA=   0.8363
  0.8363

 Free energy of the ion-electron system (eV)
  ---------------------------------------------------
  alpha Z        PSCENC =       302.45033193
  Ewald energy   TEWEN  =     -8685.12768637
  -Hartree energ DENC   =     -3853.25985145
  -exchange      EXHF   =         0.00000000
  -V(xc)+E(xc)   XCENC  =       275.93722648
  PAW double counting   =     11551.65964208   -11141.42130587
  entropy T*S    EENTRO =         0.00352075
  eigenvalues    EBANDS =     -1683.87480022
  atomic energy  EATOM  =     13132.98755513
  Solvation  Ediel_sol  =         0.00000000
  ---------------------------------------------------
  free energy    TOTEN  =      -100.64536754 eV

  energy without entropy =     -100.64888829  energy(sigma->0) =     -100.64654112


--------------------------------------------------------------------------------------------------------




--------------------------------------- Iteration      1(   7)  ---------------------------------------


    POTLOK:  cpu time      0.0064: real time      0.0064
    SETDIJ:  cpu time      0.0015: real time      0.0015
     EDDAV:  cpu time      9.1522: real time      9.1545
       DOS:  cpu time      0.0008: real time      0.0008
    CHARGE:  cpu time      0.0680: real time      0.0680
    MIXING:  cpu time      0.0007: real time      0.0006
    --------------------------------------------
      LOOP:  cpu time      9.2296: real time      9.2318

 eigenvalue-minimisations  : 17664
 total energy-change (2. order) : 0.1380954E+01  (-0.4490714E+00)
 number of electron     119.9999791 magnetization 
 augmentation part       29.4178136 magnetization 

 Broyden mixing:
  rms(total) = 0.56034E+00    rms(broyden)= 0.56033E+00
  rms(prec ) = 0.65904E+00
  weight for this iteration     100.00

 eigenvalues of (default mixing * dielectric matrix)
  average eigenvalue GAMMA=   1.6513
  0.7204  2.5821

 Free energy of the ion-electron system (eV)
  ---------------------------------------------------
  alpha Z        PSCENC =       302.45033193
  Ewald energy   TEWEN  =     -8685.12768637
  -Hartree energ DENC   =     -3931.44257719
  -exchange      EXHF   =         0.00000000
  -V(xc)+E(xc)   XCENC  =       278.90137384
  PAW double counting   =     12119.67137393   -11702.12355798
  entropy T*S    EENTRO =        -0.00363930
  eigenvalues    EBANDS =     -1614.57758775
  atomic energy  EATOM  =     13132.98755513
  Solvation  Ediel_sol  =         0.00000000
  ---------------------------------------------------
  free energy    TOTEN  =       -99.26441376 eV

  energy without entropy =      -99.26077446  energy(sigma->0) =      -99.26320066


--------------------------------------------------------------------------------------------------------




--------------------------------------- Iteration      1(   8)  ---------------------------------------


    POTLOK:  cpu time      0.0094: real time      0.0094
    SETDIJ:  cpu time      0.0015: real time      0.0015
     EDDAV:  cpu time     11.9138: real time     11.9143
       DOS:  cpu time      0.0008: real time      0.0008
    CHARGE:  cpu time      0.0691: real time      0.0691
    MIXING:  cpu time      0.0007: real time      0.0007
    --------------------------------------------
      LOOP:  cpu time     11.9953: real time     11.9958

 eigenvalue-minimisations  : 20352
 total energy-change (2. order) : 0.8625733E-01  (-0.1002917E+00)
 number of electron     119.9999792 magnetization 
 augmentation part       29.8115077 magnetization 

 Broyden mixing:
  rms(total) = 0.23539E+00    rms(broyden)= 0.23539E+00
  rms(prec ) = 0.30514E+00
  weight for this iteration     100.00

 eigenvalues of (default mixing * dielectric matrix)
  average eigenvalue GAMMA=   1.4061
  0.6803  1.7690  1.7690

 Free energy of the ion-electron system (eV)
  ---------------------------------------------------
  alpha Z        PSCENC =       302.45033193
  Ewald energy   TEWEN  =     -8685.12768637
  -Hartree energ DENC   =     -3908.35303633
  -exchange      EXHF   =         0.00000000
  -V(xc)+E(xc)   XCENC  =       278.20087565
  PAW double counting   =     13476.30994227   -13043.97354273
  entropy T*S    EENTRO =         0.00151545
  eigenvalues    EBANDS =     -1651.67411143
  atomic energy  EATOM  =     13132.98755513
  Solvation  Ediel_sol  =         0.00000000
  ---------------------------------------------------
  free energy    TOTEN  =       -99.17815643 eV

  energy without entropy =      -99.17967188  energy(sigma->0) =      -99.17866158


--------------------------------------------------------------------------------------------------------




--------------------------------------- Iteration      1(   9)  ---------------------------------------


    POTLOK:  cpu time      0.0093: real time      0.0093
    SETDIJ:  cpu time      0.0015: real time      0.0015
     EDDAV:  cpu time     10.6702: real time     10.6707
       DOS:  cpu time      0.0008: real time      0.0008
    CHARGE:  cpu time      0.0684: real time      0.0684
    MIXING:  cpu time      0.0007: real time      0.0007
    --------------------------------------------
      LOOP:  cpu time     10.7509: real time     10.7513

 eigenvalue-minimisations  : 19072
 total energy-change (2. order) : 0.5392670E-01  (-0.2663901E-01)
 number of electron     119.9999794 magnetization 
 augmentation part       29.3617136 magnetization 

 Broyden mixing:
  rms(total) = 0.97961E-01    rms(broyden)= 0.97955E-01
  rms(prec ) = 0.12520E+00
  weight for this iteration     100.00

 eigenvalues of (default mixing * dielectric matrix)
  average eigenvalue GAMMA=   1.5437
  2.3260  2.3260  0.6572  0.8658

 Free energy of the ion-electron system (eV)
  ---------------------------------------------------
  alpha Z        PSCENC =       302.45033193
  Ewald energy   TEWEN  =     -8685.12768637
  -Hartree energ DENC   =     -3930.68414827
  -exchange      EXHF   =         0.00000000
  -V(xc)+E(xc)   XCENC  =       279.18201317
  PAW double counting   =     13187.48049147   -12754.76443094
  entropy T*S    EENTRO =        -0.00205767
  eigenvalues    EBANDS =     -1630.64629817
  atomic energy  EATOM  =     13132.98755513
  Solvation  Ediel_sol  =         0.00000000
  ---------------------------------------------------
  free energy    TOTEN  =       -99.12422973 eV

  energy without entropy =      -99.12217206  energy(sigma->0) =      -99.12354384


--------------------------------------------------------------------------------------------------------




--------------------------------------- Iteration      1(  10)  ---------------------------------------


    POTLOK:  cpu time      0.0094: real time      0.0094
    SETDIJ:  cpu time      0.0017: real time      0.0017
     EDDAV:  cpu time     11.3853: real time     11.3854
       DOS:  cpu time      0.0008: real time      0.0008
    CHARGE:  cpu time      0.0696: real time      0.0696
    MIXING:  cpu time      0.0008: real time      0.0008
    --------------------------------------------
      LOOP:  cpu time     11.4676: real time     11.4677

 eigenvalue-minimisations  : 19776
 total energy-change (2. order) : 0.4206019E-02  (-0.1617762E-02)
 number of electron     119.9999793 magnetization 
 augmentation part       29.4003645 magnetization 

 Broyden mixing:
  rms(total) = 0.33666E-01    rms(broyden)= 0.33664E-01
  rms(prec ) = 0.41741E-01
  weight for this iteration     100.00

 eigenvalues of (default mixing * dielectric matrix)
  average eigenvalue GAMMA=   1.5252
  2.6552  1.6629  1.6629  0.6673  0.9777

 Free energy of the ion-electron system (eV)
  ---------------------------------------------------
  alpha Z        PSCENC =       302.45033193
  Ewald energy   TEWEN  =     -8685.12768637
  -Hartree energ DENC   =     -3930.37028119
  -exchange      EXHF   =         0.00000000
  -V(xc)+E(xc)   XCENC  =       279.29849352
  PAW double counting   =     13274.79343801   -12837.96053172
  entropy T*S    EENTRO =        -0.00145924
  eigenvalues    EBANDS =     -1635.18988377
  atomic energy  EATOM  =     13132.98755513
  Solvation  Ediel_sol  =         0.00000000
  ---------------------------------------------------
  free energy    TOTEN  =       -99.12002371 eV

  energy without entropy =      -99.11856447  energy(sigma->0) =      -99.11953730


--------------------------------------------------------------------------------------------------------




--------------------------------------- Iteration      1(  11)  ---------------------------------------


    POTLOK:  cpu time      0.0092: real time      0.0092
    SETDIJ:  cpu time      0.0015: real time      0.0015
     EDDAV:  cpu time     12.7821: real time     12.7834
       DOS:  cpu time      0.0016: real time      0.0015
    CHARGE:  cpu time      0.0657: real time      0.0657
    MIXING:  cpu time      0.0004: real time      0.0004
    --------------------------------------------
      LOOP:  cpu time     12.8605: real time     12.8618

 eigenvalue-minimisations  : 21120
 total energy-change (2. order) : 0.1316665E-02  (-0.7052580E-03)
 number of electron     119.9999793 magnetization 
 augmentation part       29.4287240 magnetization 

 Broyden mixing:
  rms(total) = 0.16834E-01    rms(broyden)= 0.16834E-01
  rms(prec ) = 0.19396E-01
  weight for this iteration     100.00

 eigenvalues of (default mixing * dielectric matrix)
  average eigenvalue GAMMA=   1.5192
  2.8369  2.0980  1.7813  1.0267  0.7029  0.6692

 Free energy of the ion-electron system (eV)
  ---------------------------------------------------
  alpha Z        PSCENC =       302.45033193
  Ewald energy   TEWEN  =     -8685.12768637
  -Hartree energ DENC   =     -3928.39424847
  -exchange      EXHF   =         0.00000000
  -V(xc)+E(xc)   XCENC  =       279.21083111
  PAW double counting   =     13309.34159506   -12871.62591206
  entropy T*S    EENTRO =        -0.00097599
  eigenvalues    EBANDS =     -1637.96019738
  atomic energy  EATOM  =     13132.98755513
  Solvation  Ediel_sol  =         0.00000000
  ---------------------------------------------------
  free energy    TOTEN  =       -99.11870705 eV

  energy without entropy =      -99.11773105  energy(sigma->0) =      -99.11838172


--------------------------------------------------------------------------------------------------------




--------------------------------------- Iteration      1(  12)  ---------------------------------------


    POTLOK:  cpu time      0.0064: real time      0.0064
    SETDIJ:  cpu time      0.0014: real time      0.0014
     EDDAV:  cpu time     10.6644: real time     10.6666
       DOS:  cpu time      0.0008: real time      0.0008
    CHARGE:  cpu time      0.0674: real time      0.0674
    MIXING:  cpu time      0.0009: real time      0.0009
    --------------------------------------------
      LOOP:  cpu time     10.7414: real time     10.7435

 eigenvalue-minimisations  : 18688
 total energy-change (2. order) : 0.1274589E-04  (-0.4694971E-04)
 number of electron     119.9999793 magnetization 
 augmentation part       29.4153816 magnetization 

 Broyden mixing:
  rms(total) = 0.54015E-02    rms(broyden)= 0.54011E-02
  rms(prec ) = 0.59997E-02
  weight for this iteration     100.00

 eigenvalues of (default mixing * dielectric matrix)
  average eigenvalue GAMMA=   1.5038
  2.8906  2.1190  1.9614  0.6682  0.9698  0.9587  0.9587

 Free energy of the ion-electron system (eV)
  ---------------------------------------------------
  alpha Z        PSCENC =       302.45033193
  Ewald energy   TEWEN  =     -8685.12768637
  -Hartree energ DENC   =     -3929.67908545
  -exchange      EXHF   =         0.00000000
  -V(xc)+E(xc)   XCENC  =       279.27366862
  PAW double counting   =     13287.75746300   -12849.18343131
  entropy T*S    EENTRO =        -0.00105550
  eigenvalues    EBANDS =     -1637.59645436
  atomic energy  EATOM  =     13132.98755513
  Solvation  Ediel_sol  =         0.00000000
  ---------------------------------------------------
  free energy    TOTEN  =       -99.11869430 eV

  energy without entropy =      -99.11763880  energy(sigma->0) =      -99.11834247


--------------------------------------------------------------------------------------------------------




--------------------------------------- Iteration      1(  13)  ---------------------------------------


    POTLOK:  cpu time      0.0094: real time      0.0094
    SETDIJ:  cpu time      0.0015: real time      0.0015
     EDDAV:  cpu time     13.7326: real time     13.7329
       DOS:  cpu time      0.0008: real time      0.0008
    --------------------------------------------
      LOOP:  cpu time     13.7443: real time     13.7446

 eigenvalue-minimisations  : 21568
 total energy-change (2. order) : 0.4115733E-05  (-0.1562484E-05)
 number of electron     119.9999793 magnetization 
 augmentation part       29.4153816 magnetization 

 Free energy of the ion-electron system (eV)
  ---------------------------------------------------
  alpha Z        PSCENC =       302.45033193
  Ewald energy   TEWEN  =     -8685.12768637
  -Hartree energ DENC   =     -3929.82609535
  -exchange      EXHF   =         0.00000000
  -V(xc)+E(xc)   XCENC  =       279.28140890
  PAW double counting   =     13282.75534112   -12843.97857009
  entropy T*S    EENTRO =        -0.00104517
  eigenvalues    EBANDS =     -1637.65993029
  atomic energy  EATOM  =     13132.98755513
  Solvation  Ediel_sol  =         0.00000000
  ---------------------------------------------------
  free energy    TOTEN  =       -99.11869018 eV

  energy without entropy =      -99.11764501  energy(sigma->0) =      -99.11834179


--------------------------------------------------------------------------------------------------------




 average (electrostatic) potential at core
  the test charge radii are     1.0397  1.0406
  (the norm of the test charge is              1.0000)
       1 -72.2927       2 -72.2927       3 -72.2927       4 -72.2927       5 -72.2927
       6 -72.2927       7 -72.2927       8 -72.2927       9 -71.3290      10 -71.3290
      11 -71.3290      12 -71.3290      13 -71.3290      14 -71.3290      15 -71.3290
      16 -71.3290
 
 
 
 E-fermi :   8.3308     XC(G=0): -11.0389     alpha+bet :-16.2322

 val. band max:        8.3234581174   @ k =   0.2222   0.0000   0.0000
 cond. band min:       8.3324845948   @ k =   0.4444   0.3333   0.1667
 fundamental gap:      0.0090264774
 Fermi energy:         8.3307544037

 k-point     1 :       0.0000    0.0000    0.0000
  band No.  band energies     occupation 
      1     -48.3022      2.00000
      2     -48.3016      2.00000
      3     -48.2447      2.00000
      4     -48.2447      2.00000
      5     -48.2443      2.00000
      6     -48.2443      2.00000
      7     -48.1894      2.00000
      8     -48.1889      2.00000
      9     -24.7272      2.00000
     10     -24.7272      2.00000
     11     -24.7246      2.00000
     12     -24.7246      2.00000
     13     -24.7157      2.00000
     14     -24.6983      2.00000
     15     -24.6603      2.00000
     16     -24.6603      2.00000
     17     -24.6589      2.00000
     18     -24.6589      2.00000
     19     -24.6537      2.00000
     20     -24.6537      2.00000
     21     -24.6411      2.00000
     22     -24.6411      2.00000
     23     -24.5989      2.00000
     24     -24.5883      2.00000
     25     -24.2559      2.00000
     26     -24.2559      2.00000
     27     -24.2554      2.00000
     28     -24.2554      2.00000
     29     -24.2144      2.00000
     30     -24.2144      2.00000
     31     -24.2138      2.00000
     32     -24.2138      2.00000
     33      -0.7125      2.00000
     34       0.7639      2.00000
     35       3.0647      2.00000
     36       3.4099      2.00000
     37       3.4099      2.00000
     38       3.7561      2.00000
     39       3.7561      2.00000
     40       3.7942      2.00000
     41       3.7942      2.00000
     42       5.1380      2.00000
     43       5.3920      2.00000
     44       5.3920      2.00000
     45       5.8207      2.00000
     46       6.0603      2.00000
     47       6.0603      2.00000
     48       6.4710      2.00000
     49       6.6384      2.00000
     50       6.6384      2.00000
     51       7.1349      2.00000
     52       7.1349      2.00000
     53       7.1740      2.00000
     54       7.1740      2.00000
     55       7.4944      2.00000
     56       7.6656      2.00000
     57       7.8494      2.00000
     58       7.8494      2.00000
     59       7.9141      2.00000
     60       7.9888      2.00001
     61       8.0826      2.00252
     62       8.0826      2.00252
     63       8.1233      2.01247
     64       8.1233      2.01247
     65       8.9763     -0.00000
     66       9.7066     -0.00000
     67       9.7066     -0.00000
     68      10.0590     -0.00000
     69      10.0590     -0.00000
     70      10.0781     -0.00000
     71      10.1120     -0.00000
     72      10.1120     -0.00000
     73      10.1206     -0.00000
     74      10.1206     -0.00000
     75      10.4520      0.00000
     76      10.4781      0.00000
     77      10.4781      0.00000
     78      10.6071      0.00000
     79      10.6071      0.00000
     80      10.8329      0.00000
     81      10.8329      0.00000
     82      11.0348      0.00000
     83      11.6139      0.00000
     84      11.6275      0.00000
     85      12.1333      0.00000
     86      12.1333      0.00000
     87      12.4964      0.00000
     88      12.4964      0.00000
     89      12.5203      0.00000
     90      12.5226      0.00000
     91      12.6473      0.00000
     92      12.6473      0.00000
     93      13.2779      0.00000
     94      13.3471      0.00000
     95      13.3471      0.00000
     96      13.4486      0.00000
     97      13.4486      0.00000
     98      13.6573      0.00000
     99      13.6573      0.00000
    100      13.9872      0.00000
    101      13.9872      0.00000
    102      14.3183      0.00000
    103      14.5159      0.00000
    104      14.6671      0.00000
    105      16.2352      0.00000
    106      16.3129      0.00000
    107      16.3129      0.00000
    108      16.5951      0.00000
    109      16.6721      0.00000
    110      16.6721      0.00000
    111      17.4194      0.00000
    112      17.7215      0.00000
    113      18.6685      0.00000
    114      18.6685      0.00000
    115      19.0545      0.00000
    116      19.0545      0.00000
    117      19.3931      0.00000
    118      19.3931      0.00000
    119      19.9488      0.00000
    120      20.5524      0.00000
    121      20.5525      0.00000
    122      20.5730      0.00000
    123      20.5730      0.00000
    124      20.9745      0.00000
    125      20.9767      0.00000
    126      20.9767      0.00000
    127      21.0257      0.00000
    128      21.0257      0.00000

 k-point     2 :       0.1111    0.0000    0.0000
  band No.  band energies     occupation 
      1     -48.3005      2.00000
      2     -48.2999      2.00000
      3     -48.2465      2.00000
      4     -48.2460      2.00000
      5     -48.2431      2.00000
      6     -48.2426      2.00000
      7     -48.1910      2.00000
      8     -48.1906      2.00000
      9     -24.7252      2.00000
     10     -24.7226      2.00000
     11     -24.7139      2.00000
     12     -24.7134      2.00000
     13     -24.7108      2.00000
     14     -24.6966      2.00000
     15     -24.6623      2.00000
     16     -24.6609      2.00000
     17     -24.6556      2.00000
     18     -24.6521      2.00000
     19     -24.6472      2.00000
     20     -24.6458      2.00000
     21     -24.6429      2.00000
     22     -24.6395      2.00000
     23     -24.6006      2.00000
     24     -24.5899      2.00000
     25     -24.2706      2.00000
     26     -24.2699      2.00000
     27     -24.2547      2.00000
     28     -24.2542      2.00000
     29     -24.2282      2.00000
     30     -24.2275      2.00000
     31     -24.2157      2.00000
     32     -24.2151      2.00000
     33      -0.6517      2.00000
     34       0.8086      2.00000
     35       2.9019      2.00000
     36       3.1327      2.00000
     37       3.2001      2.00000
     38       3.4598      2.00000
     39       3.7908      2.00000
     40       3.8541      2.00000
     41       4.6977      2.00000
     42       5.0887      2.00000
     43       5.4140      2.00000
     44       5.6522      2.00000
     45       5.8545      2.00000
     46       5.9030      2.00000
     47       6.0448      2.00000
     48       6.5210      2.00000
     49       6.5326      2.00000
     50       6.6712      2.00000
     51       6.6724      2.00000
     52       7.1213      2.00000
     53       7.1476      2.00000
     54       7.2281      2.00000
     55       7.5177      2.00000
     56       7.6702      2.00000
     57       7.6989      2.00000
     58       7.8822      2.00000
     59       7.9330      2.00000
     60       8.0359      2.00025
     61       8.0610      2.00092
     62       8.1500      2.02825
     63       8.1737      2.04885
     64       8.5841     -0.00200
     65       8.9996     -0.00000
     66       9.7010     -0.00000
     67       9.7276     -0.00000
     68       9.9335     -0.00000
     69       9.9938     -0.00000
     70      10.0970     -0.00000
     71      10.1343     -0.00000
     72      10.1502     -0.00000
     73      10.1719     -0.00000
     74      10.2907     -0.00000
     75      10.4247      0.00000
     76      10.4883      0.00000
     77      10.5476      0.00000
     78      10.5827      0.00000
     79      10.5914      0.00000
     80      10.6537      0.00000
     81      10.8217      0.00000
     82      10.9168      0.00000
     83      11.5531      0.00000
     84      11.5713      0.00000
     85      11.7787      0.00000
     86      12.1356      0.00000
     87      12.2089      0.00000
     88      12.3785      0.00000
     89      12.4387      0.00000
     90      12.4480      0.00000
     91      12.6363      0.00000
     92      13.0860      0.00000
     93      13.2586      0.00000
     94      13.3738      0.00000
     95      13.4285      0.00000
     96      13.6132      0.00000
     97      13.6768      0.00000
     98      13.8124      0.00000
     99      13.8196      0.00000
    100      13.9863      0.00000
    101      14.0784      0.00000
    102      14.4106      0.00000
    103      14.5109      0.00000
    104      14.7079      0.00000
    105      15.6944      0.00000
    106      15.9804      0.00000
    107      16.2779      0.00000
    108      16.5841      0.00000
    109      16.7518      0.00000
    110      16.7896      0.00000
    111      17.6931      0.00000
    112      18.2099      0.00000
    113      18.4239      0.00000
    114      18.7417      0.00000
    115      19.0785      0.00000
    116      19.3082      0.00000
    117      19.3434      0.00000
    118      19.4039      0.00000
    119      19.4470      0.00000
    120      19.6462      0.00000
    121      20.1664      0.00000
    122      20.2541      0.00000
    123      20.4419      0.00000
    124      20.4640      0.00000
    125      20.4958      0.00000
    126      20.6177      0.00000
    127      20.6787      0.00000
[...]
     39       2.9952      2.00000
     40       2.9952      2.00000
     41       5.8016      2.00000
     42       5.8016      2.00000
     43       6.0755      2.00000
     44       6.0755      2.00000
     45       6.4593      2.00000
     46       6.4593      2.00000
     47       6.5202      2.00000
     48       6.5202      2.00000
     49       7.0413      2.00000
     50       7.0413      2.00000
     51       7.2350      2.00000
     52       7.2350      2.00000
     53       7.5352      2.00000
     54       7.5352      2.00000
     55       7.9797      2.00001
     56       7.9797      2.00001
     57       8.3384      0.87165
     58       8.3384      0.87165
     59       8.4085      0.03179
     60       8.4085      0.03179
     61       8.4873     -0.04936
     62       8.4873     -0.04936
     63       8.7274     -0.00000
     64       8.7274     -0.00000
     65       9.0109     -0.00000
     66       9.0109     -0.00000
     67       9.1960     -0.00000
     68       9.1960     -0.00000
     69       9.2357     -0.00000
     70       9.2357     -0.00000
     71       9.3309     -0.00000
     72       9.3309     -0.00000
     73      10.0260     -0.00000
     74      10.0260     -0.00000
     75      10.0441     -0.00000
     76      10.0441     -0.00000
     77      10.1968     -0.00000
     78      10.1968     -0.00000
     79      10.3500      0.00000
     80      10.3500      0.00000
     81      11.2264      0.00000
     82      11.2264      0.00000
     83      11.3982      0.00000
     84      11.3982      0.00000
     85      11.8539      0.00000
     86      11.8539      0.00000
     87      12.1842      0.00000
     88      12.1842      0.00000
     89      12.4492      0.00000
     90      12.4492      0.00000
     91      12.4806      0.00000
     92      12.4806      0.00000
     93      12.6719      0.00000
     94      12.6719      0.00000
     95      13.2486      0.00000
     96      13.2486      0.00000
     97      13.6482      0.00000
     98      13.6482      0.00000
     99      14.5597      0.00000
    100      14.5597      0.00000
    101      15.1676      0.00000
    102      15.1676      0.00000
    103      15.3772      0.00000
    104      15.3772      0.00000
    105      16.8790      0.00000
    106      16.8790      0.00000
    107      17.0184      0.00000
    108      17.0184      0.00000
    109      17.1960      0.00000
    110      17.1960      0.00000
    111      17.3379      0.00000
    112      17.3379      0.00000
    113      17.3670      0.00000
    114      17.3670      0.00000
    115      17.5726      0.00000
    116      17.5726      0.00000
    117      17.7103      0.00000
    118      17.7103      0.00000
    119      18.7001      0.00000
    120      18.7001      0.00000
    121      18.7542      0.00000
    122      18.7542      0.00000
    123      19.8746      0.00000
    124      19.8746      0.00000
    125      20.0666      0.00000
    126      20.0666      0.00000
    127      20.3956      0.00000
    128      20.3956      0.00000

 k-point    60 :       0.4444    0.4444    0.5000
  band No.  band energies     occupation 
      1     -48.2550      2.00000
      2     -48.2550      2.00000
      3     -48.2452      2.00000
      4     -48.2452      2.00000
      5     -48.2452      2.00000
      6     -48.2452      2.00000
      7     -48.2354      2.00000
      8     -48.2354      2.00000
      9     -24.6589      2.00000
     10     -24.6589      2.00000
     11     -24.6490      2.00000
     12     -24.6490      2.00000
     13     -24.6490      2.00000
     14     -24.6490      2.00000
     15     -24.6392      2.00000
     16     -24.6392      2.00000
     17     -24.5121      2.00000
     18     -24.5121      2.00000
     19     -24.5121      2.00000
     20     -24.5121      2.00000
     21     -24.5085      2.00000
     22     -24.5085      2.00000
     23     -24.4950      2.00000
     24     -24.4950      2.00000
     25     -24.4385      2.00000
     26     -24.4385      2.00000
     27     -24.4248      2.00000
     28     -24.4248      2.00000
     29     -24.4221      2.00000
     30     -24.4221      2.00000
     31     -24.4221      2.00000
     32     -24.4221      2.00000
     33       1.5704      2.00000
     34       1.5704      2.00000
     35       2.0280      2.00000
     36       2.0280      2.00000
     37       2.0280      2.00000
     38       2.0280      2.00000
     39       2.4724      2.00000
     40       2.4724      2.00000
     41       6.0296      2.00000
     42       6.0296      2.00000
     43       6.2598      2.00000
     44       6.2598      2.00000
     45       6.2598      2.00000
     46       6.2598      2.00000
     47       6.4171      2.00000
     48       6.4171      2.00000
     49       7.6822      2.00000
     50       7.6822      2.00000
     51       7.6822      2.00000
     52       7.6822      2.00000
     53       7.7022      2.00000
     54       7.7022      2.00000
     55       8.0681      2.00129
     56       8.0681      2.00129
     57       8.2134      2.07006
     58       8.2134      2.07006
     59       8.3795      0.27339
     60       8.3795      0.27339
     61       8.4911     -0.04585
     62       8.4911     -0.04585
     63       8.4911     -0.04585
     64       8.4911     -0.04585
     65       9.0074     -0.00000
     66       9.0074     -0.00000
     67       9.0371     -0.00000
     68       9.0371     -0.00000
     69       9.0371     -0.00000
     70       9.0371     -0.00000
     71       9.2115     -0.00000
     72       9.2115     -0.00000
     73       9.9654     -0.00000
     74       9.9654     -0.00000
     75      10.0260     -0.00000
     76      10.0260     -0.00000
     77      10.0260     -0.00000
     78      10.0260     -0.00000
     79      10.1253     -0.00000
     80      10.1253     -0.00000
     81      11.4596      0.00000
     82      11.4596      0.00000
     83      11.6818      0.00000
     84      11.6818      0.00000
     85      11.6818      0.00000
     86      11.6818      0.00000
     87      11.9625      0.00000
     88      11.9625      0.00000
     89      12.6737      0.00000
     90      12.6737      0.00000
     91      12.7410      0.00000
     92      12.7410      0.00000
     93      12.7410      0.00000
     94      12.7410      0.00000
     95      13.1477      0.00000
     96      13.1477      0.00000
     97      13.7565      0.00000
     98      13.7565      0.00000
     99      14.3813      0.00000
    100      14.3813      0.00000
    101      14.3813      0.00000
    102      14.3813      0.00000
    103      14.4845      0.00000
    104      14.4845      0.00000
    105      17.3751      0.00000
    106      17.3751      0.00000
    107      17.3940      0.00000
    108      17.3940      0.00000
    109      17.5336      0.00000
    110      17.5336      0.00000
    111      17.5336      0.00000
    112      17.5336      0.00000
    113      17.9445      0.00000
    114      17.9445      0.00000
    115      17.9445      0.00000
    116      17.9445      0.00000
    117      18.3898      0.00000
    118      18.3898      0.00000
    119      18.4499      0.00000
    120      18.4499      0.00000
    121      19.0491      0.00000
    122      19.0491      0.00000
    123      19.2060      0.00000
    124      19.2060      0.00000
    125      19.5806      0.00000
    126      19.5806      0.00000
    127      19.5806      0.00000
    128      19.5806      0.00000


--------------------------------------------------------------------------------------------------------


 soft charge-density along one line, spin component           1
         0         1         2         3         4         5         6         7         8         9
 total charge-density along one line
 
 pseudopotential strength for first ion, spin component:           1
 -3.783 -19.451   0.000   0.000  -0.000  -0.000  -0.000   0.000
-19.451   7.500   0.000   0.000  -0.000   0.000   0.000  -0.000
  0.000   0.000 -22.368   0.000  -0.000   7.034  -0.000   0.000
  0.000   0.000   0.000 -22.478  -0.000  -0.000   7.109   0.000
 -0.000  -0.000  -0.000  -0.000 -22.368   0.000   0.000   7.034
 -0.000   0.000   7.034  -0.000   0.000   6.632   0.000  -0.000
 -0.000   0.000  -0.000   7.109   0.000   0.000   6.602  -0.000
  0.000  -0.000   0.000   0.000   7.034  -0.000  -0.000   6.632
 -0.000  -0.000  -0.000  -0.000   0.000   0.000   0.000  -0.000
  0.000   0.000   0.000   0.000  -0.000  -0.000  -0.000   0.000
 -0.045  -0.013  -0.000   0.000   0.000   0.000  -0.000  -0.000
 -0.000  -0.000  -0.000  -0.000   0.000   0.000   0.000  -0.000
  0.000   0.000  -0.000  -0.000  -0.000   0.000   0.000   0.000
 -0.000  -0.000  -0.000  -0.000   0.000   0.000   0.000  -0.000
  0.000   0.000   0.000   0.000  -0.000  -0.000  -0.000   0.000
 -0.055  -0.015  -0.000   0.000   0.000   0.000  -0.000  -0.000
 -0.000  -0.000  -0.000  -0.000   0.000   0.000   0.000  -0.000
  0.000   0.000  -0.000  -0.000  -0.000   0.000   0.000   0.000
 total augmentation occupancy for first ion, spin component:           1
  1.995  -0.058  -0.000   0.000  -0.000  -0.000   0.000   0.000   0.000  -0.000  -0.019  -0.000  -0.000  -0.000  -0.000   0.019
 -0.058   1.357   0.000  -0.000   0.000  -0.000   0.000   0.000   0.000   0.000  -0.173  -0.000   0.000  -0.000   0.000   0.026
 -0.000   0.000   1.983   0.000   0.000  -0.035  -0.000   0.000   0.000  -0.000  -0.000   0.000   0.000  -0.000   0.000   0.000
  0.000  -0.000   0.000   1.984  -0.000   0.000  -0.036  -0.000  -0.000   0.000   0.000  -0.000   0.000   0.000  -0.000   0.000
 -0.000   0.000   0.000  -0.000   1.983   0.000   0.000  -0.035  -0.000   0.000  -0.000   0.000   0.000   0.000  -0.000   0.000
 -0.000  -0.000  -0.035   0.000   0.000   0.109   0.000   0.000   0.000  -0.000  -0.000  -0.000   0.000   0.000  -0.000  -0.000
  0.000   0.000  -0.000  -0.036   0.000   0.000   0.100   0.000  -0.000  -0.000  -0.000  -0.000  -0.000  -0.000   0.000   0.000
  0.000   0.000   0.000  -0.000  -0.035   0.000   0.000   0.109   0.000  -0.000  -0.000  -0.000   0.000   0.000  -0.000  -0.000
  0.000   0.000   0.000  -0.000  -0.000   0.000  -0.000   0.000   1.963  -0.000  -0.000  -0.000  -0.000  -1.021  -0.000  -0.000
 -0.000   0.000  -0.000   0.000   0.000  -0.000  -0.000  -0.000  -0.000   2.503   0.000   0.000   0.000   0.000  -1.228  -0.000
 -0.019  -0.173  -0.000   0.000  -0.000  -0.000  -0.000  -0.000  -0.000   0.000   1.738  -0.000  -0.000  -0.000   0.000  -0.767
 -0.000  -0.000   0.000  -0.000   0.000  -0.000  -0.000  -0.000  -0.000   0.000  -0.000   2.503  -0.000  -0.000  -0.000   0.000
 -0.000   0.000   0.000   0.000   0.000   0.000  -0.000   0.000  -0.000   0.000  -0.000  -0.000   2.581  -0.000   0.000  -0.000
 -0.000  -0.000  -0.000   0.000   0.000   0.000  -0.000   0.000  -1.021   0.000  -0.000  -0.000  -0.000   0.538   0.000  -0.000
 -0.000   0.000   0.000  -0.000  -0.000  -0.000   0.000  -0.000  -0.000  -1.228   0.000  -0.000   0.000   0.000   0.628   0.000
  0.019   0.026   0.000   0.000   0.000  -0.000   0.000  -0.000  -0.000  -0.000  -0.767   0.000  -0.000  -0.000   0.000   0.366
 -0.000  -0.000   0.000  -0.000   0.000  -0.000   0.000   0.000   0.000   0.000   0.000  -1.228   0.000   0.000  -0.000  -0.000
  0.000   0.000  -0.000   0.000   0.000   0.000   0.000  -0.000   0.000  -0.000   0.000   0.000  -0.971   0.000   0.000  -0.000


------------------------ aborting loop because EDIFF is reached ----------------------------------------


    CHARGE:  cpu time      0.0694: real time      0.0694
    FORLOC:  cpu time      0.0005: real time      0.0005
    FORNL :  cpu time      1.1644: real time      1.1644
    STRESS:  cpu time      3.2825: real time      3.2825
    FORCOR:  cpu time      0.0078: real time      0.0078
    FORHAR:  cpu time      0.0014: real time      0.0014
    MIXING:  cpu time      0.0004: real time      0.0004
    OFIELD:  cpu time      0.0000: real time      0.0000

  FORCE on cell =-STRESS in cart. coord.  units (eV):
  Direction    XX          YY          ZZ          XY          YZ          ZX
  --------------------------------------------------------------------------------------
  Alpha Z   302.45033   302.45033   302.45033
  Ewald   -2316.54182 -2316.54182 -4052.05886    -0.00000    -0.00000    -0.00000
  Hartree  1817.03728  1817.03728   296.30681    -0.00000    -0.00000    -0.00000
  E(xc)    -576.54266  -576.54266  -578.24447     0.00000    -0.00000     0.00000
  Local   -1140.78276 -1140.78276  2153.65149    -0.00000     0.00000     0.00000
  n-local  -113.50333  -149.11761   -76.26943    -4.08031     1.12357     1.92335
  augment   493.97712   493.97712   471.29645     0.00000     0.00000    -0.00000
  Kinetic  1532.37024  1571.04450  1483.36884     2.22655    -2.81039    -1.47893
  Fock        0.00000     0.00000     0.00000     0.00000     0.00000     0.00000
  -------------------------------------------------------------------------------------
  Total      -0.00561    -0.00561     0.50115     0.00000    -0.00000     0.00000
  in kB      -0.03464    -0.03464     3.09510     0.00000    -0.00000     0.00000
  external pressure =        1.01 kB  Pullay stress =        0.00 kB


 VOLUME and BASIS-vectors are now :
 -----------------------------------------------------------------------------
  energy-cutoff  :      520.00
  volume of cell :      259.42
      direct lattice vectors                 reciprocal lattice vectors
     5.650681772  0.000000000  0.000000000     0.176969796  0.000000000  0.000000000
     0.000000000  5.650681772  0.000000000     0.000000000  0.176969796  0.000000000
     0.000000000  0.000000000  8.124629189     0.000000000  0.000000000  0.123082540

  length of vectors
     5.650681772  5.650681772  8.124629189     0.176969796  0.176969796  0.123082540


 FORCES acting on ions
    electron-ion (+dipol)            ewald-force                    non-local-force                 convergence-correction
 -----------------------------------------------------------------------------------------------
   -.107E-14 -.178E-14 -.358E-13   0.103E-13 -.178E-14 -.178E-13   -.452E-24 -.310E-24 0.414E-24   0.120E-13 -.587E-13 -.265E-12
   -.107E-14 -.178E-14 0.108E-11   0.102E-13 -.178E-14 0.178E-13   0.165E-23 0.827E-24 0.165E-23   0.207E-14 -.160E-13 0.331E-12
   -.107E-14 0.392E-12 -.391E-13   0.103E-13 -.613E-14 -.178E-13   -.827E-24 -.103E-23 0.414E-24   0.745E-14 0.448E-13 -.282E-12
   -.107E-14 0.392E-12 0.108E-11   0.952E-14 -.613E-14 0.178E-13   0.414E-24 0.165E-23 0.165E-23   -.333E-15 -.304E-14 0.302E-12
   0.394E-12 -.127E-14 -.680E-11   -.380E-13 0.613E-14 -.178E-13   0.165E-23 -.124E-23 0.000E+00   -.245E-14 -.663E-13 -.322E-12
   0.394E-12 -.128E-14 0.431E-11   -.378E-13 0.613E-14 0.178E-13   0.000E+00 -.207E-23 0.207E-23   0.683E-14 -.111E-13 0.344E-12
   0.394E-12 0.393E-12 -.199E-11   -.380E-13 0.178E-14 -.178E-13   0.165E-23 0.000E+00 0.827E-24   0.143E-15 0.483E-13 -.295E-12
   0.394E-12 0.393E-12 0.252E-11   -.372E-13 0.178E-14 0.178E-13   -.414E-24 -.310E-24 0.414E-24   0.539E-14 -.943E-14 0.323E-12
   -.362E-14 -.141E-13 -.267E-12   0.214E-13 0.899E-16 -.131E-14   0.000E+00 0.000E+00 -.414E-24   -.844E-14 0.503E-14 0.121E-13
   -.336E-14 -.137E-13 -.316E-12   0.208E-13 0.849E-16 0.139E-14   0.000E+00 -.827E-24 -.827E-24   -.462E-14 0.194E-14 -.152E-13
   -.223E-14 -.800E-14 -.237E-12   0.211E-13 -.389E-15 -.132E-14   -.827E-24 -.181E-24 0.827E-24   -.823E-14 -.523E-14 0.779E-14
   -.311E-14 -.582E-14 -.286E-12   0.206E-13 -.394E-15 0.138E-14   0.103E-23 0.827E-24 0.207E-23   -.446E-14 -.214E-14 -.111E-13
   -.113E-13 0.628E-12 0.489E-12   0.634E-14 0.504E-15 -.138E-14   0.414E-24 0.827E-24 -.290E-23   0.838E-14 0.541E-14 0.130E-13
   -.117E-13 -.257E-13 0.755E-12   0.687E-14 0.499E-15 0.132E-14   -.827E-24 0.000E+00 0.827E-24   0.456E-14 0.227E-14 -.162E-13
   -.106E-13 0.453E-12 0.101E-12   0.655E-14 0.251E-16 -.139E-14   0.414E-24 0.000E+00 -.827E-24   0.811E-14 -.565E-14 0.842E-14
   -.107E-13 0.464E-12 0.420E-12   0.709E-14 0.201E-16 0.131E-14   0.827E-24 -.827E-24 0.186E-23   0.433E-14 -.250E-14 -.117E-13
 -----------------------------------------------------------------------------------------------
   0.151E-11 0.304E-11 0.790E-12   0.114E-15 0.440E-15 -.394E-30   0.472E-23 -.266E-23 0.807E-23   0.307E-13 -.724E-13 0.124E-12
 
 
 POSITION                                       TOTAL-FORCE (eV/Angst)
 -----------------------------------------------------------------------------------
      0.00000      0.00000      0.00000         0.000000      0.000000      0.000000
      0.00000      0.00000      4.06231        -0.000000      0.000000      0.000000
      0.00000      2.82534      0.00000        -0.000000      0.000000     -0.000000
      0.00000      2.82534      4.06231        -0.000000     -0.000000      0.000000
      2.82534      0.00000      0.00000         0.000000      0.000000      0.000000
      2.82534      0.00000      4.06231        -0.000000     -0.000000      0.000000
      2.82534      2.82534      0.00000         0.000000      0.000000      0.000000
      2.82534      2.82534      4.06231        -0.000000      0.000000     -0.000000
      1.41267      1.41267      2.03116        -0.000000     -0.000000      0.000000
      1.41267      1.41267      6.09347        -0.000000      0.000000      0.000000
      1.41267      4.23801      2.03116         0.000000     -0.000000     -0.000000
      1.41267      4.23801      6.09347        -0.000000      0.000000     -0.000000
      4.23801      1.41267      2.03116         0.000000     -0.000000     -0.000000
      4.23801      1.41267      6.09347         0.000000     -0.000000     -0.000000
      4.23801      4.23801      2.03116         0.000000      0.000000      0.000000
      4.23801      4.23801      6.09347        -0.000000     -0.000000      0.000000
 -----------------------------------------------------------------------------------
    total drift:                                0.000000      0.000000      0.000000


--------------------------------------------------------------------------------------------------------



  FREE ENERGIE OF THE ION-ELECTRON SYSTEM (eV)
  ---------------------------------------------------
  free  energy   TOTEN  =       -99.11869018 eV

  energy  without entropy=      -99.11764501  energy(sigma->0) =      -99.11834179
 


--------------------------------------------------------------------------------------------------------


    POTLOK:  cpu time      0.0079: real time      0.0079


--------------------------------------------------------------------------------------------------------


 writing wavefunctions
     LOOP+:  cpu time    162.2279: real time    162.2400
    4ORBIT:  cpu time      0.0000: real time      0.0000

 total amount of memory used by VASP MPI-rank0   170474. kBytes
=======================================================================

   base                                    :      30000. kBytes
   nonl-proj                               :     123453. kBytes
   fftplans                                :        434. kBytes
   grid                                    :       2331. kBytes
   one-center                              :        248. kBytes
   wavefun                                 :      14008. kBytes
 
  
  
 General timing and accounting informations for this job:
 ========================================================
  
                  Total CPU time used (sec):      165.993
                            User time (sec):      158.950
                          System time (sec):        7.043
                         Elapsed time (sec):      166.266
  
                   Maximum memory used (kb):      335872.
                   Average memory used (kb):          N/A
  
                          Minor page faults:        54208
                          Major page faults:           15
                 Voluntary context switches:           92
