<?xml version="1.0" encoding="ISO-8859-1"?>
<modeling>
 <generator>
  <i name="program" type="string">vasp </i>
  <i name="version" type="string">6.5.0  </i>
  <i name="subversion" type="string">16Dec24 (build Apr 17 2025 17:55:45) complex                          parallel </i>
  <i name="platform" type="string">LinuxIFC </i>
  <i name="date" type="string">2025 06 04 </i>
  <i name="time" type="string">10:32:07 </i>
 </generator>
 <incar>
  <i type="int" name="ISTART">     0</i>
  <i type="string" name="PREC">N</i>
  <i type="string" name="ALGO">N</i>
  <i type="int" name="ICHARG">     2</i>
  <i type="int" name="NELM">   500</i>
  <i type="int" name="IBRION">    -1</i>
  <i name="EDIFF">      0.00001000</i>
  <i name="EDIFFG">     -0.01000000</i>
  <i type="int" name="NSW">     0</i>
  <i type="int" name="ISIF">     3</i>
  <i name="ENCUT">    520.00000000</i>
  <i type="logical" name="LREAL"> F  </i>
  <i type="int" name="ISMEAR">     1</i>
  <i name="SIGMA">      0.10000000</i>
 </incar>
 <primitive_cell>
  <structure name="primitive_cell" >
   <crystal>
    <varray name="basis" >
     <v>       2.82534089       0.00000000       0.00000000 </v>
     <v>       0.00000000       2.82534089       0.00000000 </v>
     <v>       0.00000000       0.00000000       4.06231459 </v>
    </varray>
    <i name="volume">     32.42763392 </i>
    <varray name="rec_basis" >
     <v>       0.35393959       0.00000000       0.00000000 </v>
     <v>       0.00000000       0.35393959       0.00000000 </v>
     <v>       0.00000000       0.00000000       0.24616508 </v>
    </varray>
   </crystal>
   <varray name="positions" >
    <v>       0.00000000       0.00000000       0.00000000 </v>
    <v>       0.50000000       0.50000000       0.50000000 </v>
   </varray>
  </structure>
  <varray name="primitive_index" >
   <v type="int" >        1 </v>
   <v type="int" >        9 </v>
  </varray>
 </primitive_cell>
 <kpoints>
  <generation param="Gamma">
   <v type="int" name="divisions">       9        9        6 </v>
   <v name="usershift">      0.00000000       0.00000000       0.00000000 </v>
   <v name="genvec1">      0.11111111       0.00000000       0.00000000 </v>
   <v name="genvec2">      0.00000000       0.11111111       0.00000000 </v>
   <v name="genvec3">      0.00000000       0.00000000       0.16666667 </v>
   <v name="shift">      0.00000000       0.00000000       0.00000000 </v>
  </generation>
  <varray name="kpointlist" >
   <v>       0.00000000       0.00000000       0.00000000 </v>
   <v>       0.11111111       0.00000000       0.00000000 </v>
   <v>       0.22222222       0.00000000       0.00000000 </v>
   <v>       0.33333333       0.00000000       0.00000000 </v>
   <v>       0.44444444       0.00000000       0.00000000 </v>
   <v>       0.11111111       0.11111111       0.00000000 </v>
   <v>       0.22222222       0.11111111       0.00000000 </v>
   <v>       0.33333333       0.11111111       0.00000000 </v>
   <v>       0.44444444       0.11111111       0.00000000 </v>
   <v>       0.22222222       0.22222222       0.00000000 </v>
   <v>       0.33333333       0.22222222       0.00000000 </v>
   <v>       0.44444444       0.22222222       0.00000000 </v>
   <v>       0.33333333       0.33333333       0.00000000 </v>
   <v>       0.44444444       0.33333333       0.00000000 </v>
   <v>       0.44444444       0.44444444       0.00000000 </v>
   <v>       0.00000000       0.00000000       0.16666667 </v>
   <v>       0.11111111       0.00000000       0.16666667 </v>
   <v>       0.22222222       0.00000000       0.16666667 </v>
   <v>       0.33333333       0.00000000       0.16666667 </v>
   <v>       0.44444444       0.00000000       0.16666667 </v>
   <v>       0.11111111       0.11111111       0.16666667 </v>
   <v>       0.22222222       0.11111111       0.16666667 </v>
   <v>       0.33333333       0.11111111       0.16666667 </v>
   <v>       0.44444444       0.11111111       0.16666667 </v>
   <v>       0.22222222       0.22222222       0.16666667 </v>
   <v>       0.33333333       0.22222222       0.16666667 </v>
   <v>       0.44444444       0.22222222       0.16666667 </v>
   <v>       0.33333333       0.33333333       0.16666667 </v>
   <v>       0.44444444       0.33333333       0.16666667 </v>
   <v>       0.44444444       0.44444444       0.16666667 </v>
   <v>       0.00000000       0.00000000       0.33333333 </v>
   <v>       0.11111111       0.00000000       0.33333333 </v>
   <v>       0.22222222       0.00000000       0.33333333 </v>
   <v>       0.33333333       0.00000000       0.33333333 </v>
   <v>       0.44444444       0.00000000       0.33333333 </v>
   <v>       0.11111111       0.11111111       0.33333333 </v>
   <v>       0.22222222       0.11111111       0.33333333 </v>
   <v>       0.33333333       0.11111111       0.33333333 </v>
   <v>       0.44444444       0.11111111       0.33333333 </v>
   <v>       0.22222222       0.22222222       0.33333333 </v>
   <v>       0.33333333       0.22222222       0.33333333 </v>
   <v>       0.44444444       0.22222222       0.33333333 </v>
   <v>       0.33333333       0.33333333       0.33333333 </v>
   <v>       0.44444444       0.33333333       0.33333333 </v>
   <v>       0.44444444       0.44444444       0.33333333 </v>
   <v>       0.00000000       0.00000000       0.50000000 </v>
   <v>       0.11111111       0.00000000       0.50000000 </v>
   <v>       0.22222222       0.00000000       0.50000000 </v>
   <v>       0.33333333       0.00000000       0.50000000 </v>
   <v>       0.44444444       0.00000000       0.50000000 </v>
   <v>       0.11111111       0.11111111       0.50000000 </v>
   <v>       0.22222222       0.11111111       0.50000000 </v>
   <v>       0.33333333       0.11111111       0.50000000 </v>
   <v>       0.44444444       0.11111111       0.50000000 </v>
   <v>       0.22222222       0.22222222       0.50000000 </v>
   <v>       0.33333333       0.22222222       0.50000000 </v>
   <v>       0.44444444       0.22222222       0.50000000 </v>
   <v>       0.33333333       0.33333333       0.50000000 </v>
   <v>       0.44444444       0.33333333       0.50000000 </v>
   <v>       0.44444444       0.44444444       0.50000000 </v>
  </varray>
  <varray name="weights" >
   <v>       0.00205761 </v>
   <v>       0.00823045 </v>
   <v>       0.00823045 </v>
   <v>       0.00823045 </v>
   <v>       0.00823045 </v>
   <v>       0.00823045 </v>
   <v>       0.01646091 </v>
   <v>       0.01646091 </v>
   <v>       0.01646091 </v>
   <v>       0.00823045 </v>
   <v>       0.01646091 </v>
   <v>       0.01646091 </v>
   <v>       0.00823045 </v>
   <v>       0.01646091 </v>
   <v>       0.00823045 </v>
   <v>       0.00411523 </v>
   <v>       0.01646091 </v>
   <v>       0.01646091 </v>
   <v>       0.01646091 </v>
   <v>       0.01646091 </v>
   <v>       0.01646091 </v>
   <v>       0.03292181 </v>
   <v>       0.03292181 </v>
   <v>       0.03292181 </v>
   <v>       0.01646091 </v>
   <v>       0.03292181 </v>
   <v>       0.03292181 </v>
   <v>       0.01646091 </v>
   <v>       0.03292181 </v>
   <v>       0.01646091 </v>
   <v>       0.00411523 </v>
   <v>       0.01646091 </v>
   <v>       0.01646091 </v>
   <v>       0.01646091 </v>
   <v>       0.01646091 </v>
   <v>       0.01646091 </v>
   <v>       0.03292181 </v>
   <v>       0.03292181 </v>
   <v>       0.03292181 </v>
   <v>       0.01646091 </v>
   <v>       0.03292181 </v>
   <v>       0.03292181 </v>
   <v>       0.01646091 </v>
   <v>       0.03292181 </v>
   <v>       0.01646091 </v>
   <v>       0.00205761 </v>
   <v>       0.00823045 </v>
   <v>       0.00823045 </v>
   <v>       0.00823045 </v>
   <v>       0.00823045 </v>
   <v>       0.00823045 </v>
   <v>       0.01646091 </v>
   <v>       0.01646091 </v>
   <v>       0.01646091 </v>
   <v>       0.00823045 </v>
   <v>       0.01646091 </v>
   <v>       0.01646091 </v>
   <v>       0.00823045 </v>
   <v>       0.01646091 </v>
   <v>       0.00823045 </v>
  </varray>
 </kpoints>
 <parameters>
  <separator name="general" >
   <i type="string" name="SYSTEM">unknown system</i>
   <i type="logical" name="LCOMPAT"> F  </i>
  </separator>
  <separator name="electronic" >
   <i type="string" name="PREC">n</i>
   <i name="ENMAX">    520.00000000</i>
   <i name="ENAUG">    482.84800000</i>
   <i name="EDIFF">      0.00001000</i>
   <i type="int" name="IALGO">    38</i>
   <i type="int" name="IWAVPR">    10</i>
   <i type="int" name="NBANDS">   128</i>
   <i type="int" name="NBANDSLOW">    -1</i>
   <i type="int" name="NBANDSHIGH">    -1</i>
   <i name="NELECT">    120.00000000</i>
   <i type="int" name="TURBO">     0</i>
   <i type="int" name="IRESTART">     0</i>
   <i type="int" name="NREBOOT">     0</i>
   <i type="int" name="NMIN">     0</i>
   <i name="EREF">      0.00000000</i>
   <separator name="electronic smearing" >
    <i type="int" name="ISMEAR">     1</i>
    <i name="SIGMA">      0.10000000</i>
    <i name="KSPACING">      0.50000000</i>
    <i type="logical" name="KGAMMA"> T  </i>
    <i type="logical" name="KBLOWUP"> T  </i>
   </separator>
   <separator name="electronic projectors" >
    <i type="logical" name="LREAL"> F  </i>
    <v name="ROPT">      0.00000000      0.00000000</v>
    <i type="int" name="LMAXPAW">  -100</i>
    <i type="int" name="LMAXMIX">     2</i>
    <i type="logical" name="NLSPLINE"> F  </i>
   </separator>
   <separator name="electronic startup" >
    <i type="int" name="ISTART">     0</i>
    <i type="int" name="ICHARG">     2</i>
    <i type="int" name="INIWAV">     1</i>
   </separator>
   <separator name="electronic spin" >
    <i type="int" name="ISPIN">     1</i>
    <i type="logical" name="LNONCOLLINEAR"> F  </i>
    <v name="MAGMOM">      1.00000000      1.00000000      1.00000000      1.00000000      1.00000000      1.00000000      1.00000000      1.00000000      1.00000000      1.00000000      1.00000000      1.00000000      1.00000000      1.00000000      1.00000000      1.00000000</v>
    <i name="NUPDOWN">     -1.00000000</i>
    <i type="logical" name="LSORBIT"> F  </i>
    <v name="SAXIS">      0.00000000      0.00000000      1.00000000</v>
    <i type="logical" name="LSPIRAL"> F  </i>
    <v name="QSPIRAL">      0.00000000      0.00000000      0.00000000</v>
    <i type="logical" name="LZEROZ"> F  </i>
   </separator>
   <separator name="electronic exchange-correlation" >
    <i type="logical" name="LASPH"> F  </i>
   </separator>
   <separator name="electronic convergence" >
    <i type="int" name="NELM">   500</i>
    <i type="int" name="NELMDL">    -5</i>
    <i type="int" name="NELMIN">     2</i>
    <i name="ENINI">    520.00000000</i>
    <separator name="electronic convergence detail" >
     <i type="logical" name="LDIAG"> T  </i>
     <i type="logical" name="LSUBROT"> F  </i>
     <i name="WEIMIN">      0.00000000</i>
     <i name="EBREAK">      0.00000002</i>
     <i name="DEPER">      0.30000000</i>
     <i type="int" name="NRMM">     4</i>
     <i name="TIME">      0.40000000</i>
    </separator>
   </separator>
   <separator name="electronic mixer" >
    <i name="AMIX">      0.40000000</i>
    <i name="BMIX">      1.00000000</i>
    <i name="AMIN">      0.10000000</i>
    <i name="AMIX_MAG">      1.60000000</i>
    <i name="BMIX_MAG">      1.00000000</i>
    <separator name="electronic mixer details" >
     <i type="int" name="IMIX">     4</i>
     <i type="logical" name="MIXFIRST"> F  </i>
     <i type="int" name="MAXMIX">   -45</i>
     <i name="WC">    100.00000000</i>
     <i type="int" name="INIMIX">     1</i>
     <i type="int" name="MIXPRE">     1</i>
     <i type="int" name="MREMOVE">     5</i>
    </separator>
   </separator>
   <separator name="electronic dipolcorrection" >
    <i type="logical" name="LDIPOL"> F  </i>
    <i type="logical" name="LMONO"> F  </i>
    <i type="int" name="IDIPOL">     0</i>
    <i name="EPSILON">      1.00000000</i>
    <v name="DIPOL">   -100.00000000   -100.00000000   -100.00000000</v>
    <i name="EFIELD">      0.00000000</i>
    <i type="logical" name="LVACPOTAV"> F  </i>
   </separator>
  </separator>
  <separator name="grids" >
   <i type="int" name="NGX">    32</i>
   <i type="int" name="NGY">    32</i>
   <i type="int" name="NGZ">    48</i>
   <i type="int" name="NGXF">    64</i>
   <i type="int" name="NGYF">    64</i>
   <i type="int" name="NGZF">    96</i>
   <i type="logical" name="ADDGRID"> F  </i>
  </separator>
  <separator name="ionic" >
   <i type="int" name="NSW">     0</i>
   <i type="int" name="IBRION">    -1</i>
   <i type="int" name="MDALGO">     0</i>
   <i type="int" name="ISIF">     3</i>
   <i name="PSTRESS">      0.00000000</i>
   <i name="EDIFFG">     -0.01000000</i>
   <i type="int" name="NFREE">     0</i>
   <i name="POTIM">      0.50000000</i>
   <i name="SMASS">     -3.00000000</i>
   <i name="SCALEE">      1.00000000</i>
  </separator>
  <separator name="ionic md" >
   <i name="TEBEG">      0.00010000</i>
   <i name="TEEND">      0.00010000</i>
   <i type="int" name="NBLOCK">     1</i>
   <i type="int" name="KBLOCK">     1</i>
   <i type="int" name="NPACO">   256</i>
   <i name="APACO">     10.00000000</i>
  </separator>
  <separator name="symmetry" >
   <i type="int" name="ISYM">     2</i>
   <i name="SYMPREC">      0.00001000</i>
  </separator>
  <separator name="dos" >
   <i type="int" name="LORBIT">     0</i>
   <v name="RWIGS">     -1.00000000     -1.00000000</v>
   <i type="int" name="NEDOS">   301</i>
   <i name="EMIN">     10.00000000</i>
   <i name="EMAX">    -10.00000000</i>
   <i name="EFERMI">      0.00000000</i>
  </separator>
  <separator name="writing" >
   <i type="int" name="NWRITE">     2</i>
   <i type="logical" name="LWAVE"> T  </i>
   <i type="logical" name="LDOWNSAMPLE"> F  </i>
   <i type="logical" name="LCHARG"> T  </i>
   <i type="logical" name="LPARD"> F  </i>
   <i type="logical" name="LVTOT"> F  </i>
   <i type="logical" name="LVHAR"> F  </i>
   <i type="logical" name="LELF"> F  </i>
   <i type="logical" name="LOPTICS"> F  </i>
   <v name="STM">      0.00000000      0.00000000      0.00000000      0.00000000      0.00000000      0.00000000      0.00000000</v>
  </separator>
  <separator name="performance" >
   <i type="int" name="NPAR">    64</i>
   <i type="int" name="NSIM">     4</i>
   <i type="int" name="NBLK">    -1</i>
   <i type="logical" name="LPLANE"> T  </i>
   <i type="logical" name="LSCALAPACK"> T  </i>
   <i type="logical" name="LSCAAWARE"> T  </i>
   <i type="logical" name="LSCALU"> F  </i>
   <i type="logical" name="LASYNC"> F  </i>
   <i type="logical" name="LORBITALREAL"> F  </i>
  </separator>
  <separator name="miscellaneous" >
   <i type="int" name="IDIOT">     3</i>
   <i type="int" name="PHON_NSTRUCT">    -1</i>
   <i type="logical" name="LMUSIC"> F  </i>
   <v name="POMASS">     47.88000000     26.98100000</v>
   <v name="DARWINR">      0.00000000      0.00000000</v>
   <v name="DARWINV">      1.00000000      1.00000000</v>
   <i type="logical" name="LCORR"> T  </i>
  </separator>
  <i type="logical" name="GGA_COMPAT"> T  </i>
  <i type="logical" name="LBERRY"> F  </i>
  <i type="int" name="ICORELEVEL">     0</i>
  <i type="logical" name="LDAU"> F  </i>
  <i type="int" name="I_CONSTRAINED_M">     0</i>
  <separator name="electronic exchange-correlation" >
   <i type="string" name="GGA    ">PE</i>
   <i type="string" name="XC_C">1</i>
   <i type="int" name="VOSKOWN">     0</i>
   <i type="logical" name="LHFCALC"> F  </i>
   <i type="string" name="PRECFOCK"></i>
   <i type="logical" name="LSYMGRAD"> F  </i>
   <i type="logical" name="LHFONE"> F  </i>
   <i type="logical" name="LRHFCALC"> F  </i>
   <i type="logical" name="LTHOMAS"> F  </i>
   <i type="logical" name="LMODELHF"> F  </i>
   <i type="logical" name="LFOCKACE"> F  </i>
   <i name="ENCUT4O">     -1.00000000</i>
   <i type="int" name="EXXOEP">     0</i>
   <i type="int" name="FOURORBIT">     0</i>
   <i name="AEXX">      0.00000000</i>
   <i name="HFALPHA">      0.00000000</i>
   <i name="MCALPHA">      0.00000000</i>
   <i name="ALDAX">      1.00000000</i>
   <i name="AGGAX">      1.00000000</i>
   <i name="AMGGAX">      1.00000000</i>
   <i name="ALDAC">      1.00000000</i>
   <i name="AGGAC">      1.00000000</i>
   <i name="AMGGAC">      1.00000000</i>
   <i type="int" name="NKREDX">     1</i>
   <i type="int" name="NKREDY">     1</i>
   <i type="int" name="NKREDZ">     1</i>
   <i type="logical" name="SHIFTRED"> F  </i>
   <i type="logical" name="ODDONLY"> F  </i>
   <i type="logical" name="EVENONLY"> F  </i>
   <i type="int" name="LMAXFOCK">     0</i>
   <i type="int" name="NMAXFOCKAE">     0</i>
   <i type="logical" name="LFOCKAEDFT"> F  </i>
   <i name="HFSCREEN">      0.00000000</i>
   <i name="HFSCREENC">      0.00000000</i>
   <i type="int" name="NBANDSGWLOW">     0</i>
  </separator>
  <separator name="vdW DFT" >
   <i type="logical" name="LUSE_VDW"> F  </i>
   <i type="int" name="IVDW_NL">    -1</i>
   <i type="logical" name="LSPIN_VDW"> F  </i>
   <i name="ZAB_VDW">     -0.84910000</i>
   <i name="GAMMA_VDW">      1.39626340</i>
   <i name="ALPHA_VDW">      0.00000000</i>
   <i name="PARAM1">      0.12340000</i>
   <i name="PARAM2">      1.00000000</i>
   <i name="BPARAM">      6.30000000</i>
   <i name="CPARAM">      0.00930000</i>
  </separator>
  <separator name="model GW" >
   <i type="int" name="MODEL_GW">     0</i>
   <i name="MODEL_EPS0">      9.72829018</i>
   <i name="MODEL_ALPHA">      1.00000000</i>
  </separator>
  <separator name="linear response parameters" >
   <i type="logical" name="LEPSILON"> F  </i>
   <i type="logical" name="LRPA"> F  </i>
   <i type="logical" name="LNABLA"> F  </i>
   <i type="logical" name="LVEL"> F  </i>
   <i name="CSHIFT">      0.10000000</i>
   <i name="OMEGAMAX">     -1.00000000</i>
   <i name="DEG_THRESHOLD">      0.00200000</i>
   <i name="RTIME">     -0.10000000</i>
   <i name="WPLASMAI">      0.00000000</i>
   <v name="DFIELD">      0.00000000      0.00000000      0.00000000</v>
   <v name="WPLASMA">      0.00000000      0.00000000      0.00000000      0.00000000      0.00000000      0.00000000      0.00000000      0.00000000      0.00000000</v>
  </separator>
  <separator name="orbital magnetization" >
   <i type="logical" name="NUCIND"> F  </i>
   <v name="MAGPOS">      0.00000000      0.00000000      0.00000000</v>
   <i type="logical" name="LNICSALL"> T  </i>
   <i type="logical" name="ORBITALMAG"> F  </i>
   <i type="logical" name="LMAGBLOCH"> F  </i>
   <i type="logical" name="LCHIMAG"> F  </i>
   <i type="logical" name="LGAUGE"> T  </i>
   <i type="int" name="MAGATOM">     0</i>
   <v name="MAGDIPOL">      0.00000000      0.00000000      0.00000000</v>
   <v name="AVECCONST">      0.00000000      0.00000000      0.00000000</v>
  </separator>
  <separator name="response functions" >
   <i type="logical" name="LALL_IN_ONE"> F  </i>
   <i type="int" name="IALL_IN_ONE">    -1</i>
   <i type="int" name="NBANDS_WAVE">    -1</i>
   <i type="logical" name="LFINITE_TEMPERATURE"> F  </i>
   <i type="logical" name="LADDER"> F  </i>
   <i type="logical" name="LRPAFORCE"> F  </i>
   <i type="logical" name="LFXC"> F  </i>
   <i type="logical" name="LHARTREE"> T  </i>
   <i type="int" name="IBSE">     2</i>
   <v type="int" name="KPOINT">    -1     0     0     0</v>
   <i type="logical" name="LTCTC"> F  </i>
   <i type="logical" name="LTCTE"> F  </i>
   <i type="logical" name="LTETE"> F  </i>
   <i type="logical" name="LTRIPLET"> F  </i>
   <i type="logical" name="LFXCEPS"> F  </i>
   <i type="logical" name="LFXHEG"> F  </i>
   <i type="int" name="NATURALO">     2</i>
   <i type="logical" name="LHOLEGF"> F  </i>
   <i type="logical" name="L2ORDER"> F  </i>
   <i type="logical" name="LDMP1"> F  </i>
   <i type="logical" name="LMP2LT"> F  </i>
   <i type="logical" name="LSMP2LT"> F  </i>
   <i type="logical" name="LGWLF"> F  </i>
   <i name="ENCUTGW">     -1.60000002</i>
   <i name="ENCUTGWSOFT">     -1.60000002</i>
   <i name="ENCUTLF">     -1.00000000</i>
   <i type="logical" name="ESF_SPLINES"> F  </i>
   <i name="ESF_CONV">      0.01000000</i>
   <i type="int" name="ESF_NINTER">    15</i>
   <i type="int" name="LMAXMP2">    -1</i>
   <i name="SCISSOR">      0.00000000</i>
   <i type="int" name="NOMEGA">     0</i>
   <i type="int" name="NOMEGAR">     0</i>
   <i type="int" name="NBANDSGW">    -1</i>
   <i type="int" name="NBANDSO">    -1</i>
   <i type="int" name="NBANDSV">    -1</i>
   <i type="int" name="NELMGW">     1</i>
   <i type="int" name="NELMHF">     1</i>
   <i type="int" name="DIM">     3</i>
   <i type="int" name="IESPILON">     4</i>
   <i type="int" name="ANTIRES">     0</i>
   <i name="OMEGAMAX">    -30.00000000</i>
   <i name="OMEGAMIN">    -30.00000000</i>
   <i name="OMEGATL">   -200.00000000</i>
   <i type="int" name="OMEGAGRID">     0</i>
   <i name="CSHIFT">     -0.10000000</i>
   <i type="logical" name="LSELFENERGY"> F  </i>
   <i type="logical" name="LSPECTRAL"> F  </i>
   <i type="logical" name="LSPECTRALGW"> F  </i>
   <i type="logical" name="LSINGLES"> F  </i>
   <i type="logical" name="LFERMIGW"> F  </i>
   <i type="logical" name="ODDONLYGW"> F  </i>
   <i type="logical" name="EVENONLYGW"> F  </i>
   <i type="int" name="NKREDLFX">     1</i>
   <i type="int" name="NKREDLFY">     1</i>
   <i type="int" name="NKREDLFZ">     1</i>
   <i type="int" name="MAXMEM">  2800</i>
   <i type="int" name="TELESCOPE">     0</i>
   <i type="int" name="NTAUPAR">    -1</i>
   <i type="int" name="NOMEGAPAR">    -1</i>
   <i name="DAMP_NEWTON">      0.80000001</i>
   <i name="LAMBDA">      1.00000000</i>
  </separator>
  <separator name="External order field" >
   <i name="OFIELD_KAPPA">      0.00000000</i>
   <v name="OFIELD_K">      0.00000000      0.00000000      0.00000000</v>
   <i name="OFIELD_Q6_NEAR">      0.00000000</i>
   <i name="OFIELD_Q6_FAR">      0.00000000</i>
   <i name="OFIELD_A">      0.00000000</i>
  </separator>
  <separator name="optional k-points parameters" >
   <i type="int" name="KPOINTS_OPT_MODE">     1</i>
   <i type="logical" name="LKPOINTS_OPT"> F  </i>
  </separator>
 </parameters>
 <atominfo>
  <atoms>      16 </atoms>
  <types>       2 </types>
  <array name="atoms" >
   <dimension dim="1">ion</dimension>
   <field type="string">element</field>
   <field type="int">atomtype</field>
   <set>
    <rc><c>Ti</c><c>   1</c></rc>
    <rc><c>Ti</c><c>   1</c></rc>
    <rc><c>Ti</c><c>   1</c></rc>
    <rc><c>Ti</c><c>   1</c></rc>
    <rc><c>Ti</c><c>   1</c></rc>
    <rc><c>Ti</c><c>   1</c></rc>
    <rc><c>Ti</c><c>   1</c></rc>
    <rc><c>Ti</c><c>   1</c></rc>
    <rc><c>Al</c><c>   2</c></rc>
    <rc><c>Al</c><c>   2</c></rc>
    <rc><c>Al</c><c>   2</c></rc>
    <rc><c>Al</c><c>   2</c></rc>
    <rc><c>Al</c><c>   2</c></rc>
    <rc><c>Al</c><c>   2</c></rc>
    <rc><c>Al</c><c>   2</c></rc>
    <rc><c>Al</c><c>   2</c></rc>
   </set>
  </array>
  <array name="atomtypes" >
   <dimension dim="1">type</dimension>
   <field type="int">atomspertype</field>
   <field type="string">element</field>
   <field>mass</field>
   <field>valence</field>
   <field type="string">pseudopotential</field>
   <set>
    <rc><c>   8</c><c>Ti</c><c>     47.88000000</c><c>     12.00000000</c><c>  PAW_PBE Ti_sv 26Sep2005               </c></rc>
    <rc><c>   8</c><c>Al</c><c>     26.98100000</c><c>      3.00000000</c><c>  PAW_PBE Al 04Jan2001                  </c></rc>
   </set>
  </array>
 </atominfo>
 <structure name="initialpos" >
  <crystal>
   <varray name="basis" >
    <v>       5.65068177       0.00000000       0.00000000 </v>
    <v>       0.00000000       5.65068177       0.00000000 </v>
    <v>       0.00000000       0.00000000       8.12462919 </v>
   </varray>
   <i name="volume">    259.42107139 </i>
   <varray name="rec_basis" >
    <v>       0.17696980       0.00000000       0.00000000 </v>
    <v>       0.00000000       0.17696980       0.00000000 </v>
    <v>       0.00000000       0.00000000       0.12308254 </v>
   </varray>
  </crystal>
  <varray name="positions" >
   <v>       0.00000000       0.00000000       0.00000000 </v>
   <v>       0.00000000       0.00000000       0.50000000 </v>
   <v>       0.00000000       0.50000000       0.00000000 </v>
   <v>       0.00000000       0.50000000       0.50000000 </v>
   <v>       0.50000000       0.00000000       0.00000000 </v>
   <v>       0.50000000       0.00000000       0.50000000 </v>
   <v>       0.50000000       0.50000000       0.00000000 </v>
   <v>       0.50000000       0.50000000       0.50000000 </v>
   <v>       0.25000000       0.25000000       0.25000000 </v>
   <v>       0.25000000       0.25000000       0.75000000 </v>
   <v>       0.25000000       0.75000000       0.25000000 </v>
   <v>       0.25000000       0.75000000       0.75000000 </v>
   <v>       0.75000000       0.25000000       0.25000000 </v>
   <v>       0.75000000       0.25000000       0.75000000 </v>
   <v>       0.75000000       0.75000000       0.25000000 </v>
   <v>       0.75000000       0.75000000       0.75000000 </v>
  </varray>
 </structure>
 <calculation>
  <scstep>
   <time name="dav">    7.36    7.36</time>
   <time name="total">    7.37    7.37</time>
   <energy>
    <i name="alphaZ">    302.45033193 </i>
    <i name="ewald">  -8685.12768637 </i>
    <i name="hartreedc">  -4146.52216532 </i>
    <i name="XCdc">    287.27892037 </i>
    <i name="pawpsdc">  10646.12278294 </i>
    <i name="pawaedc"> -10233.80738393 </i>
    <i name="eentropy">     -0.00350436 </i>
    <i name="bandstr">   -413.84998389 </i>
    <i name="atom">  13132.98755513 </i>
    <i name="e_fr_energy">    889.52886651 </i>
    <i name="e_wo_entrp">    889.53237086 </i>
    <i name="e_0_energy">    889.53003462 </i>
   </energy>
  </scstep>
  <scstep>
   <time name="dav">    7.40    7.40</time>
   <time name="total">    7.40    7.40</time>
   <energy>
    <i name="e_fr_energy">    -40.23410610 </i>
    <i name="e_wo_entrp">    -40.23132364 </i>
    <i name="e_0_energy">    -40.23317861 </i>
   </energy>
  </scstep>
  <scstep>
   <time name="dav">   22.60   22.60</time>
   <time name="total">   22.60   22.60</time>
   <energy>
    <i name="e_fr_energy">   -109.81209714 </i>
    <i name="e_wo_entrp">   -109.80953411 </i>
    <i name="e_0_energy">   -109.81124280 </i>
   </energy>
  </scstep>
  <scstep>
   <time name="dav">    7.62    7.62</time>
   <time name="total">    7.62    7.62</time>
   <energy>
    <i name="e_fr_energy">   -111.92879937 </i>
    <i name="e_wo_entrp">   -111.92670339 </i>
    <i name="e_0_energy">   -111.92810071 </i>
   </energy>
  </scstep>
  <scstep>
   <time name="dav">   15.50   15.50</time>
   <time name="total">   15.56   15.56</time>
   <energy>
    <i name="e_fr_energy">   -111.97718485 </i>
    <i name="e_wo_entrp">   -111.97509955 </i>
    <i name="e_0_energy">   -111.97648975 </i>
   </energy>
  </scstep>
  <scstep>
   <time name="dav">   11.81   11.81</time>
   <time name="total">   11.89   11.89</time>
   <energy>
    <i name="e_fr_energy">   -100.64536754 </i>
    <i name="e_wo_entrp">   -100.64888829 </i>
    <i name="e_0_energy">   -100.64654112 </i>
   </energy>
  </scstep>
  <scstep>
   <time name="dav">    9.15    9.15</time>
   <time name="total">    9.23    9.23</time>
   <energy>
    <i name="e_fr_energy">    -99.26441376 </i>
    <i name="e_wo_entrp">    -99.26077446 </i>
    <i name="e_0_energy">    -99.26320066 </i>
   </energy>
  </scstep>
  <scstep>
   <time name="dav">   11.91   11.91</time>
   <time name="total">   12.00   12.00</time>
   <energy>
    <i name="e_fr_energy">    -99.17815643 </i>
    <i name="e_wo_entrp">    -99.17967188 </i>
    <i name="e_0_energy">    -99.17866158 </i>
   </energy>
  </scstep>
  <scstep>
   <time name="dav">   10.67   10.67</time>
   <time name="total">   10.75   10.75</time>
   <energy>
    <i name="e_fr_energy">    -99.12422973 </i>
    <i name="e_wo_entrp">    -99.12217206 </i>
    <i name="e_0_energy">    -99.12354384 </i>
   </energy>
  </scstep>
  <scstep>
   <time name="dav">   11.39   11.39</time>
   <time name="total">   11.47   11.47</time>
   <energy>
    <i name="e_fr_energy">    -99.12002371 </i>
    <i name="e_wo_entrp">    -99.11856447 </i>
    <i name="e_0_energy">    -99.11953730 </i>
   </energy>
  </scstep>
  <scstep>
   <time name="dav">   12.78   12.78</time>
   <time name="total">   12.86   12.86</time>
   <energy>
    <i name="e_fr_energy">    -99.11870705 </i>
    <i name="e_wo_entrp">    -99.11773105 </i>
    <i name="e_0_energy">    -99.11838172 </i>
   </energy>
  </scstep>
  <scstep>
   <time name="dav">   10.66   10.67</time>
   <time name="total">   10.74   10.74</time>
   <energy>
    <i name="e_fr_energy">    -99.11869430 </i>
    <i name="e_wo_entrp">    -99.11763880 </i>
    <i name="e_0_energy">    -99.11834247 </i>
   </energy>
  </scstep>
  <scstep>
   <time name="dav">   13.73   13.73</time>
   <time name="total">   13.74   13.74</time>
   <energy>
    <i name="alphaZ">    302.45033193 </i>
    <i name="ewald">  -8685.12768637 </i>
    <i name="hartreedc">  -3929.82609535 </i>
    <i name="XCdc">    279.28140890 </i>
    <i name="pawpsdc">  13282.75534112 </i>
    <i name="pawaedc"> -12843.97857009 </i>
    <i name="eentropy">     -0.00104517 </i>
    <i name="bandstr">  -1637.65993029 </i>
    <i name="atom">  13132.98755513 </i>
    <i name="e_fr_energy">    -99.11869018 </i>
    <i name="e_wo_entrp">    -99.11764501 </i>
    <i name="e_0_energy">    -99.11834179 </i>
   </energy>
  </scstep>
  <structure>
   <crystal>
    <varray name="basis" >
     <v>       5.65068177       0.00000000       0.00000000 </v>
     <v>       0.00000000       5.65068177       0.00000000 </v>
     <v>       0.00000000       0.00000000       8.12462919 </v>
    </varray>
    <i name="volume">    259.42107139 </i>
    <varray name="rec_basis" >
     <v>       0.17696980       0.00000000       0.00000000 </v>
     <v>       0.00000000       0.17696980       0.00000000 </v>
     <v>       0.00000000       0.00000000       0.12308254 </v>
    </varray>
   </crystal>
   <varray name="positions" >
    <v>       0.00000000       0.00000000       0.00000000 </v>
    <v>       0.00000000       0.00000000       0.50000000 </v>
    <v>       0.00000000       0.50000000       0.00000000 </v>
    <v>       0.00000000       0.50000000       0.50000000 </v>
    <v>       0.50000000       0.00000000       0.00000000 </v>
    <v>       0.50000000       0.00000000       0.50000000 </v>
    <v>       0.50000000       0.50000000       0.00000000 </v>
    <v>       0.50000000       0.50000000       0.50000000 </v>
    <v>       0.25000000       0.25000000       0.25000000 </v>
    <v>       0.25000000       0.25000000       0.75000000 </v>
    <v>       0.25000000       0.75000000       0.25000000 </v>
    <v>       0.25000000       0.75000000       0.75000000 </v>
    <v>       0.75000000       0.25000000       0.25000000 </v>
    <v>       0.75000000       0.25000000       0.75000000 </v>
    <v>       0.75000000       0.75000000       0.25000000 </v>
    <v>       0.75000000       0.75000000       0.75000000 </v>
   </varray>
  </structure>
  <varray name="forces" >
   <v>       0.00000000       0.00000000       0.00000000 </v>
   <v>      -0.00000000       0.00000000       0.00000000 </v>
   <v>      -0.00000000       0.00000000      -0.00000000 </v>
   <v>      -0.00000000      -0.00000000       0.00000000 </v>
   <v>       0.00000000       0.00000000       0.00000000 </v>
   <v>      -0.00000000      -0.00000000       0.00000000 </v>
   <v>       0.00000000       0.00000000       0.00000000 </v>
   <v>      -0.00000000       0.00000000      -0.00000000 </v>
   <v>      -0.00000000      -0.00000000       0.00000000 </v>
   <v>      -0.00000000       0.00000000       0.00000000 </v>
   <v>       0.00000000      -0.00000000      -0.00000000 </v>
   <v>      -0.00000000       0.00000000      -0.00000000 </v>
   <v>       0.00000000      -0.00000000      -0.00000000 </v>
   <v>       0.00000000      -0.00000000      -0.00000000 </v>
   <v>       0.00000000       0.00000000       0.00000000 </v>
   <v>      -0.00000000      -0.00000000       0.00000000 </v>
  </varray>
  <varray name="stress" >
   <v>      -0.03463813       0.00000000       0.00000000 </v>
   <v>       0.00000000      -0.03463813      -0.00000000 </v>
   <v>       0.00000000      -0.00000000       3.09510258 </v>
  </varray>
  <energy>
   <i name="e_fr_energy">    -99.11869018 </i>
   <i name="e_wo_entrp">    -99.11764501 </i>
   <i name="e_0_energy">    -99.11834179 </i>
  </energy>
  <time name="totalsc">  162.23  162.24</time>
  <eigenvalues>
   <array>
    <dimension dim="1">band</dimension>
    <dimension dim="2">kpoint</dimension>
    <dimension dim="3">spin</dimension>
    <field>eigene</field>
    <field>occ</field>
    <set>
     <set comment="spin 1">
      <set comment="kpoint 1">
       <r>  -48.3022    1.0000 </r>
       <r>  -48.3016    1.0000 </r>
       <r>  -48.2447    1.0000 </r>
       <r>  -48.2447    1.0000 </r>
       <r>  -48.2443    1.0000 </r>
       <r>  -48.2443    1.0000 </r>
       <r>  -48.1894    1.0000 </r>
       <r>  -48.1889    1.0000 </r>
       <r>  -24.7272    1.0000 </r>
       <r>  -24.7272    1.0000 </r>
       <r>  -24.7246    1.0000 </r>
       <r>  -24.7246    1.0000 </r>
       <r>  -24.7157    1.0000 </r>
       <r>  -24.6983    1.0000 </r>
       <r>  -24.6603    1.0000 </r>
       <r>  -24.6603    1.0000 </r>
       <r>  -24.6589    1.0000 </r>
       <r>  -24.6589    1.0000 </r>
       <r>  -24.6537    1.0000 </r>
       <r>  -24.6537    1.0000 </r>
       <r>  -24.6411    1.0000 </r>
       <r>  -24.6411    1.0000 </r>
       <r>  -24.5989    1.0000 </r>
       <r>  -24.5883    1.0000 </r>
       <r>  -24.2559    1.0000 </r>
       <r>  -24.2559    1.0000 </r>
       <r>  -24.2554    1.0000 </r>
       <r>  -24.2554    1.0000 </r>
       <r>  -24.2144    1.0000 </r>
       <r>  -24.2144    1.0000 </r>
       <r>  -24.2138    1.0000 </r>
       <r>  -24.2138    1.0000 </r>
       <r>   -0.7125    1.0000 </r>
       <r>    0.7639    1.0000 </r>
       <r>    3.0647    1.0000 </r>
       <r>    3.4099    1.0000 </r>
       <r>    3.4099    1.0000 </r>
       <r>    3.7561    1.0000 </r>
       <r>    3.7561    1.0000 </r>
       <r>    3.7942    1.0000 </r>
       <r>    3.7942    1.0000 </r>
       <r>    5.1380    1.0000 </r>
       <r>    5.3920    1.0000 </r>
       <r>    5.3920    1.0000 </r>
       <r>    5.8207    1.0000 </r>
       <r>    6.0603    1.0000 </r>
       <r>    6.0603    1.0000 </r>
       <r>    6.4710    1.0000 </r>
       <r>    6.6384    1.0000 </r>
       <r>    6.6384    1.0000 </r>
       <r>    7.1349    1.0000 </r>
       <r>    7.1349    1.0000 </r>
       <r>    7.1740    1.0000 </r>
       <r>    7.1740    1.0000 </r>
       <r>    7.4944    1.0000 </r>
       <r>    7.6656    1.0000 </r>
       <r>    7.8494    1.0000 </r>
       <r>    7.8494    1.0000 </r>
       <r>    7.9141    1.0000 </r>
       <r>    7.9888    1.0000 </r>
       <r>    8.0826    1.0013 </r>
       <r>    8.0826    1.0013 </r>
       <r>    8.1233    1.0062 </r>
       <r>    8.1233    1.0062 </r>
       <r>    8.9763   -0.0000 </r>
       <r>    9.7066   -0.0000 </r>
       <r>    9.7066   -0.0000 </r>
       <r>   10.0590   -0.0000 </r>
       <r>   10.0590   -0.0000 </r>
       <r>   10.0781   -0.0000 </r>
       <r>   10.1120   -0.0000 </r>
       <r>   10.1120   -0.0000 </r>
       <r>   10.1206   -0.0000 </r>
       <r>   10.1206   -0.0000 </r>
       <r>   10.4520    0.0000 </r>
       <r>   10.4781    0.0000 </r>
       <r>   10.4781    0.0000 </r>
       <r>   10.6071    0.0000 </r>
       <r>   10.6071    0.0000 </r>
       <r>   10.8329    0.0000 </r>
       <r>   10.8329    0.0000 </r>
       <r>   11.0348    0.0000 </r>
       <r>   11.6139    0.0000 </r>
       <r>   11.6275    0.0000 </r>
       <r>   12.1333    0.0000 </r>
       <r>   12.1333    0.0000 </r>
       <r>   12.4964    0.0000 </r>
       <r>   12.4964    0.0000 </r>
       <r>   12.5203    0.0000 </r>
       <r>   12.5226    0.0000 </r>
       <r>   12.6473    0.0000 </r>
       <r>   12.6473    0.0000 </r>
       <r>   13.2779    0.0000 </r>
       <r>   13.3471    0.0000 </r>
       <r>   13.3471    0.0000 </r>
       <r>   13.4486    0.0000 </r>
       <r>   13.4486    0.0000 </r>
       <r>   13.6573    0.0000 </r>
       <r>   13.6573    0.0000 </r>
       <r>   13.9872    0.0000 </r>
       <r>   13.9872    0.0000 </r>
       <r>   14.3183    0.0000 </r>
       <r>   14.5159    0.0000 </r>
       <r>   14.6671    0.0000 </r>
       <r>   16.2352    0.0000 </r>
       <r>   16.3129    0.0000 </r>
       <r>   16.3129    0.0000 </r>
       <r>   16.5951    0.0000 </r>
       <r>   16.6721    0.0000 </r>
       <r>   16.6721    0.0000 </r>
       <r>   17.4194    0.0000 </r>
       <r>   17.7215    0.0000 </r>
       <r>   18.6685    0.0000 </r>
       <r>   18.6685    0.0000 </r>
       <r>   19.0545    0.0000 </r>
       <r>   19.0545    0.0000 </r>
       <r>   19.3931    0.0000 </r>
       <r>   19.3931    0.0000 </r>
       <r>   19.9488    0.0000 </r>
       <r>   20.5524    0.0000 </r>
       <r>   20.5525    0.0000 </r>
       <r>   20.5730    0.0000 </r>
       <r>   20.5730    0.0000 </r>
       <r>   20.9745    0.0000 </r>
       <r>   20.9767    0.0000 </r>
       <r>   20.9767    0.0000 </r>
       <r>   21.0257    0.0000 </r>
       <r>   21.0257    0.0000 </r>
      </set>
      <set comment="kpoint 2">
       <r>  -48.3005    1.0000 </r>
       <r>  -48.2999    1.0000 </r>
       <r>  -48.2465    1.0000 </r>
       <r>  -48.2460    1.0000 </r>
       <r>  -48.2431    1.0000 </r>
       <r>  -48.2426    1.0000 </r>
       <r>  -48.1910    1.0000 </r>
       <r>  -48.1906    1.0000 </r>
       <r>  -24.7252    1.0000 </r>
       <r>  -24.7226    1.0000 </r>
       <r>  -24.7139    1.0000 </r>
       <r>  -24.7134    1.0000 </r>
       <r>  -24.7108    1.0000 </r>
       <r>  -24.6966    1.0000 </r>
       <r>  -24.6623    1.0000 </r>
       <r>  -24.6609    1.0000 </r>
       <r>  -24.6556    1.0000 </r>
       <r>  -24.6521    1.0000 </r>
       <r>  -24.6472    1.0000 </r>
       <r>  -24.6458    1.0000 </r>
       <r>  -24.6429    1.0000 </r>
       <r>  -24.6395    1.0000 </r>
       <r>  -24.6006    1.0000 </r>
       <r>  -24.5899    1.0000 </r>
       <r>  -24.2706    1.0000 </r>
       <r>  -24.2699    1.0000 </r>
       <r>  -24.2547    1.0000 </r>
       <r>  -24.2542    1.0000 </r>
       <r>  -24.2282    1.0000 </r>
       <r>  -24.2275    1.0000 </r>
       <r>  -24.2157    1.0000 </r>
       <r>  -24.2151    1.0000 </r>
       <r>   -0.6517    1.0000 </r>
       <r>    0.8086    1.0000 </r>
       <r>    2.9019    1.0000 </r>
       <r>    3.1327    1.0000 </r>
       <r>    3.2001    1.0000 </r>
       <r>    3.4598    1.0000 </r>
       <r>    3.7908    1.0000 </r>
       <r>    3.8541    1.0000 </r>
       <r>    4.6977    1.0000 </r>
       <r>    5.0887    1.0000 </r>
       <r>    5.4140    1.0000 </r>
       <r>    5.6522    1.0000 </r>
       <r>    5.8545    1.0000 </r>
       <r>    5.9030    1.0000 </r>
       <r>    6.0448    1.0000 </r>
       <r>    6.5210    1.0000 </r>
       <r>    6.5326    1.0000 </r>
       <r>    6.6712    1.0000 </r>
       <r>    6.6724    1.0000 </r>
       <r>    7.1213    1.0000 </r>
       <r>    7.1476    1.0000 </r>
       <r>    7.2281    1.0000 </r>
       <r>    7.5177    1.0000 </r>
       <r>    7.6702    1.0000 </r>
       <r>    7.6989    1.0000 </r>
       <r>    7.8822    1.0000 </r>
       <r>    7.9330    1.0000 </r>
       <r>    8.0359    1.0001 </r>
       <r>    8.0610    1.0005 </r>
       <r>    8.1500    1.0141 </r>
       <r>    8.1737    1.0244 </r>
       <r>    8.5841   -0.0010 </r>
       <r>    8.9996   -0.0000 </r>
       <r>    9.7010   -0.0000 </r>
       <r>    9.7276   -0.0000 </r>
       <r>    9.9335   -0.0000 </r>
       <r>    9.9938   -0.0000 </r>
       <r>   10.0970   -0.0000 </r>
       <r>   10.1343   -0.0000 </r>
       <r>   10.1502   -0.0000 </r>
       <r>   10.1719   -0.0000 </r>
       <r>   10.2907   -0.0000 </r>
       <r>   10.4247    0.0000 </r>
       <r>   10.4883    0.0000 </r>
       <r>   10.5476    0.0000 </r>
       <r>   10.5827    0.0000 </r>
       <r>   10.5914    0.0000 </r>
       <r>   10.6537    0.0000 </r>
       <r>   10.8217    0.0000 </r>
       <r>   10.9168    0.0000 </r>
       <r>   11.5531    0.0000 </r>
       <r>   11.5713    0.0000 </r>
       <r>   11.7787    0.0000 </r>
       <r>   12.1356    0.0000 </r>
       <r>   12.2089    0.0000 </r>
       <r>   12.3785    0.0000 </r>
       <r>   12.4387    0.0000 </r>
       <r>   12.4480    0.0000 </r>
       <r>   12.6363    0.0000 </r>
       <r>   13.0860    0.0000 </r>
       <r>   13.2586    0.0000 </r>
       <r>   13.3738    0.0000 </r>
       <r>   13.4285    0.0000 </r>
       <r>   13.6132    0.0000 </r>
       <r>   13.6768    0.0000 </r>
       <r>   13.8124    0.0000 </r>
       <r>   13.8196    0.0000 </r>
       <r>   13.9863    0.0000 </r>
       <r>   14.0784    0.0000 </r>
       <r>   14.4106    0.0000 </r>
       <r>   14.5109    0.0000 </r>
       <r>   14.7079    0.0000 </r>
       <r>   15.6944    0.0000 </r>
       <r>   15.9804    0.0000 </r>
       <r>   16.2779    0.0000 </r>
       <r>   16.5841    0.0000 </r>
       <r>   16.7518    0.0000 </r>
       <r>   16.7896    0.0000 </r>
       <r>   17.6931    0.0000 </r>
       <r>   18.2099    0.0000 </r>
       <r>   18.4239    0.0000 </r>
       <r>   18.7417    0.0000 </r>
       <r>   19.0785    0.0000 </r>
       <r>   19.3082    0.0000 </r>
       <r>   19.3434    0.0000 </r>
       <r>   19.4039    0.0000 </r>
       <r>   19.4470    0.0000 </r>
       <r>   19.6462    0.0000 </r>
       <r>   20.1664    0.0000 </r>
       <r>   20.2541    0.0000 </r>
       <r>   20.4419    0.0000 </r>
       <r>   20.4640    0.0000 </r>
       <r>   20.4958    0.0000 </r>
       <r>   20.6177    0.0000 </r>
       <r>   20.6787    0.0000 </r>
       <r>   20.7633    0.0000 </r>
      </set>
      <set comment="kpoint 3">
       <r>  -48.2955    1.0000 </r>
       <r>  -48.2949    1.0000 </r>
       <r>  -48.2515    1.0000 </r>
       <r>  -48.2510    1.0000 </r>
       <r>  -48.2383    1.0000 </r>
       <r>  -48.2378    1.0000 </r>
       <r>  -48.1959    1.0000 </r>
       <r>  -48.1954    1.0000 </r>
       <r>  -24.7195    1.0000 </r>
       <r>  -24.7169    1.0000 </r>
       <r>  -24.7085    1.0000 </r>
       <r>  -24.6917    1.0000 </r>
       <r>  -24.6735    1.0000 </r>
       <r>  -24.6710    1.0000 </r>
       <r>  -24.6682    1.0000 </r>
       <r>  -24.6666    1.0000 </r>
       <r>  -24.6610    1.0000 </r>
       <r>  -24.6479    1.0000 </r>
       <r>  -24.6473    1.0000 </r>
       <r>  -24.6350    1.0000 </r>
       <r>  -24.6093    1.0000 </r>
       <r>  -24.6080    1.0000 </r>
       <r>  -24.6054    1.0000 </r>
       <r>  -24.5945    1.0000 </r>
       <r>  -24.3125    1.0000 </r>
       <r>  -24.3117    1.0000 </r>
       <r>  -24.2678    1.0000 </r>
       <r>  -24.2671    1.0000 </r>
       <r>  -24.2511    1.0000 </r>
       <r>  -24.2506    1.0000 </r>
       <r>  -24.2193    1.0000 </r>
       <r>  -24.2187    1.0000 </r>
       <r>   -0.4703    1.0000 </r>
       <r>    0.9420    1.0000 </r>
       <r>    2.1004    1.0000 </r>
       <r>    2.7593    1.0000 </r>
       <r>    3.3333    1.0000 </r>
       <r>    3.6082    1.0000 </r>
       <r>    3.8927    1.0000 </r>
       <r>    4.0319    1.0000 </r>
       <r>    4.9488    1.0000 </r>
       <r>    5.4775    1.0000 </r>
       <r>    5.5193    1.0000 </r>
       <r>    5.6278    1.0000 </r>
       <r>    5.8726    1.0000 </r>
       <r>    5.9534    1.0000 </r>
       <r>    5.9975    1.0000 </r>
       <r>    6.2409    1.0000 </r>
       <r>    6.4401    1.0000 </r>
       <r>    6.6630    1.0000 </r>
       <r>    6.7672    1.0000 </r>
       <r>    6.7728    1.0000 </r>
       <r>    6.9766    1.0000 </r>
       <r>    7.5035    1.0000 </r>
       <r>    7.5763    1.0000 </r>
       <r>    7.7824    1.0000 </r>
       <r>    7.7921    1.0000 </r>
       <r>    7.8916    1.0000 </r>
       <r>    7.9038    1.0000 </r>
       <r>    7.9889    1.0000 </r>
       <r>    8.0136    1.0000 </r>
       <r>    8.3235    0.5616 </r>
       <r>    8.3452    0.3795 </r>
       <r>    9.0688   -0.0000 </r>
       <r>    9.1448   -0.0000 </r>
       <r>    9.6179   -0.0000 </r>
       <r>    9.6343   -0.0000 </r>
       <r>    9.6739   -0.0000 </r>
       <r>    9.7889   -0.0000 </r>
       <r>   10.1742   -0.0000 </r>
       <r>   10.2085   -0.0000 </r>
       <r>   10.2428   -0.0000 </r>
       <r>   10.2619   -0.0000 </r>
       <r>   10.3410    0.0000 </r>
       <r>   10.3419    0.0000 </r>
       <r>   10.5179    0.0000 </r>
       <r>   10.5192    0.0000 </r>
       <r>   10.5466    0.0000 </r>
       <r>   10.6870    0.0000 </r>
       <r>   10.7430    0.0000 </r>
       <r>   10.7896    0.0000 </r>
       <r>   10.8142    0.0000 </r>
       <r>   10.9633    0.0000 </r>
       <r>   11.3856    0.0000 </r>
       <r>   11.4142    0.0000 </r>
       <r>   12.0557    0.0000 </r>
       <r>   12.0797    0.0000 </r>
       <r>   12.1376    0.0000 </r>
       <r>   12.2950    0.0000 </r>
       <r>   12.4340    0.0000 </r>
       <r>   12.6007    0.0000 </r>
       <r>   12.8274    0.0000 </r>
       <r>   13.4813    0.0000 </r>
       <r>   13.4842    0.0000 </r>
       <r>   13.8601    0.0000 </r>
       <r>   13.9819    0.0000 </r>
       <r>   14.0710    0.0000 </r>
       <r>   14.2363    0.0000 </r>
       <r>   14.2459    0.0000 </r>
       <r>   14.2850    0.0000 </r>
       <r>   14.3046    0.0000 </r>
       <r>   14.3831    0.0000 </r>
       <r>   14.6047    0.0000 </r>
       <r>   14.6622    0.0000 </r>
       <r>   14.8696    0.0000 </r>
       <r>   15.3658    0.0000 </r>
       <r>   16.1705    0.0000 </r>
       <r>   16.9806    0.0000 </r>
       <r>   17.2585    0.0000 </r>
       <r>   17.3180    0.0000 </r>
       <r>   17.7789    0.0000 </r>
       <r>   17.8448    0.0000 </r>
       <r>   17.8919    0.0000 </r>
       <r>   18.6109    0.0000 </r>
       <r>   18.9199    0.0000 </r>
       <r>   18.9505    0.0000 </r>
       <r>   18.9555    0.0000 </r>
       <r>   18.9741    0.0000 </r>
       <r>   19.1510    0.0000 </r>
       <r>   19.3541    0.0000 </r>
       <r>   19.5819    0.0000 </r>
       <r>   19.6626    0.0000 </r>
       <r>   19.8509    0.0000 </r>
       <r>   20.0761    0.0000 </r>
       <r>   20.1476    0.0000 </r>
       <r>   20.2125    0.0000 </r>
       <r>   20.3163    0.0000 </r>
       <r>   20.8209    0.0000 </r>
      </set>
      <set comment="kpoint 4">
       <r>  -48.2879    1.0000 </r>
       <r>  -48.2873    1.0000 </r>
       <r>  -48.2592    1.0000 </r>
       <r>  -48.2587    1.0000 </r>
       <r>  -48.2309    1.0000 </r>
       <r>  -48.2305    1.0000 </r>
       <r>  -48.2033    1.0000 </r>
       <r>  -48.2028    1.0000 </r>
       <r>  -24.7106    1.0000 </r>
       <r>  -24.7082    1.0000 </r>
       <r>  -24.7003    1.0000 </r>
       <r>  -24.6841    1.0000 </r>
       <r>  -24.6771    1.0000 </r>
       <r>  -24.6754    1.0000 </r>
       <r>  -24.6693    1.0000 </r>
       <r>  -24.6555    1.0000 </r>
       <r>  -24.6401    1.0000 </r>
       <r>  -24.6280    1.0000 </r>
       <r>  -24.6127    1.0000 </r>
       <r>  -24.6119    1.0000 </r>
       <r>  -24.6097    1.0000 </r>
       <r>  -24.6015    1.0000 </r>
       <r>  -24.5509    1.0000 </r>
       <r>  -24.5497    1.0000 </r>
       <r>  -24.3763    1.0000 </r>
       <r>  -24.3752    1.0000 </r>
       <r>  -24.3281    1.0000 </r>
       <r>  -24.3273    1.0000 </r>
       <r>  -24.2456    1.0000 </r>
       <r>  -24.2450    1.0000 </r>
       <r>  -24.2248    1.0000 </r>
       <r>  -24.2242    1.0000 </r>
       <r>   -0.1711    1.0000 </r>
       <r>    1.1618    1.0000 </r>
       <r>    1.3840    1.0000 </r>
       <r>    2.2828    1.0000 </r>
       <r>    3.6582    1.0000 </r>
       <r>    3.8519    1.0000 </r>
       <r>    4.0548    1.0000 </r>
       <r>    4.3225    1.0000 </r>
       <r>    4.7424    1.0000 </r>
       <r>    5.0520    1.0000 </r>
       <r>    5.2243    1.0000 </r>
       <r>    5.5744    1.0000 </r>
       <r>    5.7883    1.0000 </r>
       <r>    5.9181    1.0000 </r>
       <r>    6.1099    1.0000 </r>
       <r>    6.4829    1.0000 </r>
       <r>    6.7713    1.0000 </r>
       <r>    6.8729    1.0000 </r>
       <r>    6.9195    1.0000 </r>
       <r>    6.9343    1.0000 </r>
       <r>    6.9533    1.0000 </r>
       <r>    7.5734    1.0000 </r>
       <r>    7.6265    1.0000 </r>
       <r>    7.6554    1.0000 </r>
       <r>    7.7093    1.0000 </r>
       <r>    7.9249    1.0000 </r>
       <r>    7.9496    1.0000 </r>
       <r>    8.1648    1.0204 </r>
       <r>    8.1824    1.0284 </r>
       <r>    8.5681   -0.0020 </r>
       <r>    8.6452   -0.0000 </r>
       <r>    9.0933   -0.0000 </r>
       <r>    9.1799   -0.0000 </r>
       <r>    9.2201   -0.0000 </r>
       <r>    9.4075   -0.0000 </r>
       <r>    9.6007   -0.0000 </r>
       <r>    9.7662   -0.0000 </r>
       <r>    9.8850   -0.0000 </r>
       <r>   10.0296   -0.0000 </r>
       <r>   10.2362   -0.0000 </r>
       <r>   10.3172   -0.0000 </r>
       <r>   10.3859    0.0000 </r>
       <r>   10.4391    0.0000 </r>
       <r>   10.4426    0.0000 </r>
       <r>   10.4791    0.0000 </r>
       <r>   10.4961    0.0000 </r>
       <r>   10.5637    0.0000 </r>
       <r>   10.6006    0.0000 </r>
       <r>   10.7410    0.0000 </r>
       <r>   11.0385    0.0000 </r>
       <r>   11.1473    0.0000 </r>
       <r>   11.1869    0.0000 </r>
       <r>   11.4108    0.0000 </r>
       <r>   11.6970    0.0000 </r>
       <r>   11.7656    0.0000 </r>
       <r>   12.1226    0.0000 </r>
       <r>   12.2172    0.0000 </r>
       <r>   12.3308    0.0000 </r>
       <r>   12.5326    0.0000 </r>
       <r>   12.8037    0.0000 </r>
       <r>   13.1795    0.0000 </r>
       <r>   13.7286    0.0000 </r>
       <r>   13.7677    0.0000 </r>
       <r>   13.9685    0.0000 </r>
       <r>   14.2794    0.0000 </r>
       <r>   14.5206    0.0000 </r>
       <r>   14.5285    0.0000 </r>
       <r>   14.6368    0.0000 </r>
       <r>   14.8245    0.0000 </r>
       <r>   14.9535    0.0000 </r>
       <r>   14.9655    0.0000 </r>
       <r>   15.0104    0.0000 </r>
       <r>   15.2027    0.0000 </r>
       <r>   15.2340    0.0000 </r>
       <r>   15.9850    0.0000 </r>
       <r>   16.5508    0.0000 </r>
       <r>   17.1444    0.0000 </r>
       <r>   17.3348    0.0000 </r>
       <r>   17.6197    0.0000 </r>
       <r>   17.7173    0.0000 </r>
       <r>   17.9125    0.0000 </r>
       <r>   18.0236    0.0000 </r>
       <r>   18.0783    0.0000 </r>
       <r>   18.0824    0.0000 </r>
       <r>   18.1584    0.0000 </r>
       <r>   18.8656    0.0000 </r>
       <r>   18.9606    0.0000 </r>
       <r>   19.1244    0.0000 </r>
       <r>   19.2726    0.0000 </r>
       <r>   19.4063    0.0000 </r>
       <r>   19.4451    0.0000 </r>
       <r>   19.5616    0.0000 </r>
       <r>   19.7177    0.0000 </r>
       <r>   19.9273    0.0000 </r>
       <r>   21.0308    0.0000 </r>
       <r>   21.1830    0.0000 </r>
      </set>
      <set comment="kpoint 5">
       <r>  -48.2786    1.0000 </r>
       <r>  -48.2780    1.0000 </r>
       <r>  -48.2686    1.0000 </r>
       <r>  -48.2680    1.0000 </r>
       <r>  -48.2219    1.0000 </r>
       <r>  -48.2215    1.0000 </r>
       <r>  -48.2123    1.0000 </r>
       <r>  -48.2119    1.0000 </r>
       <r>  -24.6997    1.0000 </r>
       <r>  -24.6975    1.0000 </r>
       <r>  -24.6902    1.0000 </r>
       <r>  -24.6881    1.0000 </r>
       <r>  -24.6861    1.0000 </r>
       <r>  -24.6794    1.0000 </r>
       <r>  -24.6748    1.0000 </r>
       <r>  -24.6648    1.0000 </r>
       <r>  -24.6312    1.0000 </r>
       <r>  -24.6216    1.0000 </r>
       <r>  -24.6194    1.0000 </r>
       <r>  -24.6102    1.0000 </r>
       <r>  -24.5358    1.0000 </r>
       <r>  -24.5339    1.0000 </r>
       <r>  -24.4788    1.0000 </r>
       <r>  -24.4778    1.0000 </r>
       <r>  -24.4540    1.0000 </r>
       <r>  -24.4525    1.0000 </r>
       <r>  -24.4015    1.0000 </r>
       <r>  -24.4005    1.0000 </r>
       <r>  -24.2388    1.0000 </r>
       <r>  -24.2383    1.0000 </r>
       <r>  -24.2316    1.0000 </r>
       <r>  -24.2310    1.0000 </r>
       <r>    0.2414    1.0000 </r>
       <r>    0.7618    1.0000 </r>
       <r>    1.4642    1.0000 </r>
       <r>    1.8421    1.0000 </r>
       <r>    4.0937    1.0000 </r>
       <r>    4.1838    1.0000 </r>
       <r>    4.2647    1.0000 </r>
       <r>    4.5030    1.0000 </r>
       <r>    4.5916    1.0000 </r>
       <r>    4.6227    1.0000 </r>
       <r>    4.7182    1.0000 </r>
       <r>    5.2101    1.0000 </r>
       <r>    5.6915    1.0000 </r>
       <r>    5.8119    1.0000 </r>
       <r>    6.3113    1.0000 </r>
       <r>    6.5397    1.0000 </r>
       <r>    7.0919    1.0000 </r>
       <r>    7.1039    1.0000 </r>
       <r>    7.1166    1.0000 </r>
       <r>    7.1472    1.0000 </r>
       <r>    7.3419    1.0000 </r>
       <r>    7.3957    1.0000 </r>
       <r>    7.5147    1.0000 </r>
       <r>    7.5792    1.0000 </r>
       <r>    7.7007    1.0000 </r>
       <r>    8.0633    1.0005 </r>
       <r>    8.1616    1.0189 </r>
       <r>    8.4305   -0.0248 </r>
       <r>    8.4640   -0.0339 </r>
       <r>    8.5462   -0.0047 </r>
       <r>    8.8194   -0.0000 </r>
       <r>    8.8998   -0.0000 </r>
       <r>    9.0004   -0.0000 </r>
       <r>    9.2631   -0.0000 </r>
       <r>    9.3059   -0.0000 </r>
       <r>    9.3113   -0.0000 </r>
       <r>    9.3229   -0.0000 </r>
       <r>    9.4749   -0.0000 </r>
       <r>   10.0070   -0.0000 </r>
       <r>   10.1450   -0.0000 </r>
       <r>   10.3137   -0.0000 </r>
       <r>   10.3894    0.0000 </r>
       <r>   10.3977    0.0000 </r>
       <r>   10.3980    0.0000 </r>
       <r>   10.6159    0.0000 </r>
       <r>   10.6206    0.0000 </r>
       <r>   10.6676    0.0000 </r>
       <r>   10.6822    0.0000 </r>
       <r>   10.8789    0.0000 </r>
       <r>   10.9263    0.0000 </r>
       <r>   10.9264    0.0000 </r>
       <r>   11.2996    0.0000 </r>
       <r>   11.4122    0.0000 </r>
       <r>   11.7813    0.0000 </r>
       <r>   11.8451    0.0000 </r>
       <r>   11.8485    0.0000 </r>
       <r>   12.0516    0.0000 </r>
       <r>   12.2640    0.0000 </r>
       <r>   12.2916    0.0000 </r>
       <r>   12.4245    0.0000 </r>
       <r>   13.3083    0.0000 </r>
       <r>   13.8653    0.0000 </r>
       <r>   13.9300    0.0000 </r>
       <r>   13.9356    0.0000 </r>
       <r>   14.3823    0.0000 </r>
       <r>   14.4147    0.0000 </r>
       <r>   14.4902    0.0000 </r>
       <r>   15.3008    0.0000 </r>
       <r>   15.3484    0.0000 </r>
       <r>   15.3825    0.0000 </r>
       <r>   15.4226    0.0000 </r>
       <r>   15.7188    0.0000 </r>
       <r>   15.7890    0.0000 </r>
       <r>   15.7952    0.0000 </r>
       <r>   15.8716    0.0000 </r>
       <r>   16.2916    0.0000 </r>
       <r>   16.4857    0.0000 </r>
       <r>   16.6550    0.0000 </r>
       <r>   16.6776    0.0000 </r>
       <r>   16.7901    0.0000 </r>
       <r>   16.8603    0.0000 </r>
       <r>   17.5187    0.0000 </r>
       <r>   17.7918    0.0000 </r>
       <r>   18.3362    0.0000 </r>
       <r>   18.3952    0.0000 </r>
       <r>   18.8745    0.0000 </r>
       <r>   19.0125    0.0000 </r>
       <r>   19.2014    0.0000 </r>
       <r>   19.3015    0.0000 </r>
       <r>   19.4384    0.0000 </r>
       <r>   19.4439    0.0000 </r>
       <r>   19.6572    0.0000 </r>
       <r>   19.6642    0.0000 </r>
       <r>   19.7578    0.0000 </r>
       <r>   20.0688    0.0000 </r>
       <r>   20.3516    0.0000 </r>
      </set>
      <set comment="kpoint 6">
       <r>  -48.2988    1.0000 </r>
       <r>  -48.2982    1.0000 </r>
       <r>  -48.2448    1.0000 </r>
       <r>  -48.2448    1.0000 </r>
       <r>  -48.2443    1.0000 </r>
       <r>  -48.2443    1.0000 </r>
       <r>  -48.1927    1.0000 </r>
       <r>  -48.1923    1.0000 </r>
       <r>  -24.7120    1.0000 </r>
       <r>  -24.7114    1.0000 </r>
       <r>  -24.7114    1.0000 </r>
       <r>  -24.7089    1.0000 </r>
       <r>  -24.7089    1.0000 </r>
       <r>  -24.6949    1.0000 </r>
       <r>  -24.6540    1.0000 </r>
       <r>  -24.6540    1.0000 </r>
       <r>  -24.6500    1.0000 </r>
       <r>  -24.6485    1.0000 </r>
       <r>  -24.6483    1.0000 </r>
       <r>  -24.6470    1.0000 </r>
       <r>  -24.6413    1.0000 </r>
       <r>  -24.6413    1.0000 </r>
       <r>  -24.6023    1.0000 </r>
       <r>  -24.5915    1.0000 </r>
       <r>  -24.2702    1.0000 </r>
       <r>  -24.2695    1.0000 </r>
       <r>  -24.2684    1.0000 </r>
       <r>  -24.2679    1.0000 </r>
       <r>  -24.2295    1.0000 </r>
       <r>  -24.2295    1.0000 </r>
       <r>  -24.2288    1.0000 </r>
       <r>  -24.2288    1.0000 </r>
       <r>   -0.5911    1.0000 </r>
       <r>    0.8533    1.0000 </r>
       <r>    2.9519    1.0000 </r>
       <r>    2.9519    1.0000 </r>
       <r>    3.2001    1.0000 </r>
       <r>    3.2484    1.0000 </r>
       <r>    3.2484    1.0000 </r>
       <r>    4.7416    1.0000 </r>
       <r>    4.7416    1.0000 </r>
       <r>    4.9990    1.0000 </r>
       <r>    5.6571    1.0000 </r>
       <r>    5.6747    1.0000 </r>
       <r>    5.6747    1.0000 </r>
       <r>    5.8846    1.0000 </r>
       <r>    6.1471    1.0000 </r>
       <r>    6.5587    1.0000 </r>
       <r>    6.5587    1.0000 </r>
       <r>    6.5704    1.0000 </r>
       <r>    6.7047    1.0000 </r>
       <r>    6.7047    1.0000 </r>
       <r>    6.9383    1.0000 </r>
       <r>    7.5422    1.0000 </r>
       <r>    7.6926    1.0000 </r>
       <r>    7.6926    1.0000 </r>
       <r>    7.7332    1.0000 </r>
       <r>    7.8864    1.0000 </r>
       <r>    7.8952    1.0000 </r>
       <r>    8.0400    1.0002 </r>
       <r>    8.0999    1.0026 </r>
       <r>    8.0999    1.0026 </r>
       <r>    8.1846    1.0293 </r>
       <r>    8.8282   -0.0000 </r>
       <r>    9.0226   -0.0000 </r>
       <r>    9.7143   -0.0000 </r>
       <r>    9.7143   -0.0000 </r>
       <r>    9.9412   -0.0000 </r>
       <r>    9.9797   -0.0000 </r>
       <r>    9.9797   -0.0000 </r>
       <r>   10.0773   -0.0000 </r>
       <r>   10.2020   -0.0000 </r>
       <r>   10.2020   -0.0000 </r>
       <r>   10.3957    0.0000 </r>
       <r>   10.3960    0.0000 </r>
       <r>   10.4749    0.0000 </r>
       <r>   10.5645    0.0000 </r>
       <r>   10.5645    0.0000 </r>
       <r>   10.6392    0.0000 </r>
       <r>   10.6392    0.0000 </r>
       <r>   10.7112    0.0000 </r>
       <r>   10.8188    0.0000 </r>
       <r>   11.4892    0.0000 </r>
       <r>   11.5132    0.0000 </r>
       <r>   11.6010    0.0000 </r>
       <r>   11.9736    0.0000 </r>
       <r>   12.2129    0.0000 </r>
       <r>   12.2129    0.0000 </r>
       <r>   12.3766    0.0000 </r>
       <r>   12.4445    0.0000 </r>
       <r>   12.4445    0.0000 </r>
       <r>   13.3830    0.0000 </r>
       <r>   13.4645    0.0000 </r>
       <r>   13.4782    0.0000 </r>
       <r>   13.4782    0.0000 </r>
       <r>   13.5407    0.0000 </r>
       <r>   13.8759    0.0000 </r>
       <r>   13.9486    0.0000 </r>
       <r>   13.9486    0.0000 </r>
       <r>   14.0863    0.0000 </r>
       <r>   14.0863    0.0000 </r>
       <r>   14.4942    0.0000 </r>
       <r>   14.5099    0.0000 </r>
       <r>   14.7749    0.0000 </r>
       <r>   15.4275    0.0000 </r>
       <r>   15.8208    0.0000 </r>
       <r>   16.3046    0.0000 </r>
       <r>   16.5617    0.0000 </r>
       <r>   16.5617    0.0000 </r>
       <r>   16.9060    0.0000 </r>
       <r>   17.5326    0.0000 </r>
       <r>   18.1070    0.0000 </r>
       <r>   18.8656    0.0000 </r>
       <r>   18.9657    0.0000 </r>
       <r>   19.0838    0.0000 </r>
       <r>   19.1432    0.0000 </r>
       <r>   19.1432    0.0000 </r>
       <r>   19.1633    0.0000 </r>
       <r>   19.1633    0.0000 </r>
       <r>   19.2832    0.0000 </r>
       <r>   19.8271    0.0000 </r>
       <r>   19.9822    0.0000 </r>
       <r>   19.9822    0.0000 </r>
       <r>   20.3990    0.0000 </r>
       <r>   20.5384    0.0000 </r>
       <r>   20.5870    0.0000 </r>
       <r>   20.6599    0.0000 </r>
       <r>   21.4070    0.0000 </r>
      </set>
      <set comment="kpoint 7">
       <r>  -48.2938    1.0000 </r>
       <r>  -48.2932    1.0000 </r>
       <r>  -48.2498    1.0000 </r>
       <r>  -48.2493    1.0000 </r>
       <r>  -48.2400    1.0000 </r>
       <r>  -48.2396    1.0000 </r>
       <r>  -48.1976    1.0000 </r>
       <r>  -48.1971    1.0000 </r>
       <r>  -24.7067    1.0000 </r>
       <r>  -24.7057    1.0000 </r>
       <r>  -24.7033    1.0000 </r>
       <r>  -24.6900    1.0000 </r>
       <r>  -24.6716    1.0000 </r>
       <r>  -24.6691    1.0000 </r>
       <r>  -24.6593    1.0000 </r>
       <r>  -24.6550    1.0000 </r>
       <r>  -24.6535    1.0000 </r>
       <r>  -24.6492    1.0000 </r>
       <r>  -24.6463    1.0000 </r>
       <r>  -24.6367    1.0000 </r>
       <r>  -24.6112    1.0000 </r>
       <r>  -24.6098    1.0000 </r>
       <r>  -24.6070    1.0000 </r>
       <r>  -24.5961    1.0000 </r>
       <r>  -24.3112    1.0000 </r>
       <r>  -24.3104    1.0000 </r>
       <r>  -24.2691    1.0000 </r>
       <r>  -24.2685    1.0000 </r>
       <r>  -24.2656    1.0000 </r>
       <r>  -24.2650    1.0000 </r>
       <r>  -24.2332    1.0000 </r>
       <r>  -24.2325    1.0000 </r>
       <r>   -0.4101    1.0000 </r>
       <r>    0.9868    1.0000 </r>
       <r>    2.1532    1.0000 </r>
       <r>    2.8060    1.0000 </r>
       <r>    3.0993    1.0000 </r>
       <r>    3.3922    1.0000 </r>
       <r>    3.3995    1.0000 </r>
       <r>    4.7508    1.0000 </r>
       <r>    4.8714    1.0000 </r>
       <r>    5.2445    1.0000 </r>
       <r>    5.6668    1.0000 </r>
       <r>    5.7394    1.0000 </r>
       <r>    5.9101    1.0000 </r>
       <r>    5.9717    1.0000 </r>
       <r>    6.1866    1.0000 </r>
       <r>    6.2620    1.0000 </r>
       <r>    6.5265    1.0000 </r>
       <r>    6.5940    1.0000 </r>
       <r>    6.7105    1.0000 </r>
       <r>    6.7990    1.0000 </r>
       <r>    6.8035    1.0000 </r>
       <r>    7.6041    1.0000 </r>
       <r>    7.7567    1.0000 </r>
       <r>    7.8078    1.0000 </r>
       <r>    7.8294    1.0000 </r>
       <r>    7.8939    1.0000 </r>
       <r>    7.9612    1.0000 </r>
       <r>    7.9851    1.0000 </r>
       <r>    8.0461    1.0002 </r>
       <r>    8.2816    0.8656 </r>
       <r>    8.3153    0.6288 </r>
       <r>    9.0907   -0.0000 </r>
       <r>    9.2395   -0.0000 </r>
       <r>    9.6143   -0.0000 </r>
       <r>    9.6785   -0.0000 </r>
       <r>    9.6883   -0.0000 </r>
       <r>    9.7607   -0.0000 </r>
       <r>   10.0948   -0.0000 </r>
       <r>   10.1112   -0.0000 </r>
       <r>   10.2250   -0.0000 </r>
       <r>   10.2815   -0.0000 </r>
       <r>   10.3069   -0.0000 </r>
       <r>   10.3440    0.0000 </r>
       <r>   10.3463    0.0000 </r>
       <r>   10.4940    0.0000 </r>
       <r>   10.5127    0.0000 </r>
       <r>   10.5980    0.0000 </r>
       <r>   10.5981    0.0000 </r>
       <r>   10.9266    0.0000 </r>
       <r>   10.9665    0.0000 </r>
       <r>   10.9689    0.0000 </r>
       <r>   11.3139    0.0000 </r>
       <r>   11.3519    0.0000 </r>
       <r>   11.6575    0.0000 </r>
       <r>   12.0712    0.0000 </r>
       <r>   12.2199    0.0000 </r>
       <r>   12.2223    0.0000 </r>
       <r>   12.4413    0.0000 </r>
       <r>   12.4430    0.0000 </r>
       <r>   13.0408    0.0000 </r>
       <r>   13.4676    0.0000 </r>
       <r>   13.8420    0.0000 </r>
       <r>   13.8723    0.0000 </r>
       <r>   13.9982    0.0000 </r>
       <r>   14.1083    0.0000 </r>
       <r>   14.1727    0.0000 </r>
       <r>   14.3130    0.0000 </r>
       <r>   14.3182    0.0000 </r>
       <r>   14.4136    0.0000 </r>
       <r>   14.5329    0.0000 </r>
       <r>   14.5801    0.0000 </r>
       <r>   14.7165    0.0000 </r>
       <r>   15.0263    0.0000 </r>
       <r>   15.3361    0.0000 </r>
       <r>   16.3108    0.0000 </r>
       <r>   16.4987    0.0000 </r>
       <r>   17.2537    0.0000 </r>
       <r>   17.2894    0.0000 </r>
       <r>   17.3949    0.0000 </r>
       <r>   17.5829    0.0000 </r>
       <r>   17.7436    0.0000 </r>
       <r>   18.1221    0.0000 </r>
       <r>   18.5053    0.0000 </r>
       <r>   18.6186    0.0000 </r>
       <r>   18.7758    0.0000 </r>
       <r>   19.2360    0.0000 </r>
       <r>   19.2559    0.0000 </r>
       <r>   19.4443    0.0000 </r>
       <r>   19.6899    0.0000 </r>
       <r>   19.7396    0.0000 </r>
       <r>   20.0841    0.0000 </r>
       <r>   20.1739    0.0000 </r>
       <r>   20.5629    0.0000 </r>
       <r>   20.6030    0.0000 </r>
       <r>   20.7337    0.0000 </r>
       <r>   20.8969    0.0000 </r>
      </set>
      <set comment="kpoint 8">
       <r>  -48.2862    1.0000 </r>
       <r>  -48.2856    1.0000 </r>
       <r>  -48.2575    1.0000 </r>
       <r>  -48.2570    1.0000 </r>
       <r>  -48.2327    1.0000 </r>
       <r>  -48.2322    1.0000 </r>
       <r>  -48.2050    1.0000 </r>
       <r>  -48.2045    1.0000 </r>
       <r>  -24.6985    1.0000 </r>
       <r>  -24.6970    1.0000 </r>
       <r>  -24.6946    1.0000 </r>
       <r>  -24.6824    1.0000 </r>
       <r>  -24.6676    1.0000 </r>
       <r>  -24.6638    1.0000 </r>
       <r>  -24.6622    1.0000 </r>
       <r>  -24.6539    1.0000 </r>
       <r>  -24.6419    1.0000 </r>
       <r>  -24.6297    1.0000 </r>
       <r>  -24.6144    1.0000 </r>
       <r>  -24.6101    1.0000 </r>
       <r>  -24.6079    1.0000 </r>
       <r>  -24.6032    1.0000 </r>
       <r>  -24.5528    1.0000 </r>
       <r>  -24.5515    1.0000 </r>
       <r>  -24.3749    1.0000 </r>
       <r>  -24.3738    1.0000 </r>
       <r>  -24.3295    1.0000 </r>
       <r>  -24.3287    1.0000 </r>
       <r>  -24.2600    1.0000 </r>
       <r>  -24.2594    1.0000 </r>
       <r>  -24.2388    1.0000 </r>
       <r>  -24.2382    1.0000 </r>
       <r>   -0.1118    1.0000 </r>
       <r>    1.2068    1.0000 </r>
       <r>    1.4389    1.0000 </r>
       <r>    2.3287    1.0000 </r>
       <r>    3.3364    1.0000 </r>
       <r>    3.6279    1.0000 </r>
       <r>    3.7220    1.0000 </r>
       <r>    4.4007    1.0000 </r>
       <r>    4.7858    1.0000 </r>
       <r>    5.0817    1.0000 </r>
       <r>    5.2714    1.0000 </r>
       <r>    5.8370    1.0000 </r>
       <r>    6.1005    1.0000 </r>
       <r>    6.1058    1.0000 </r>
       <r>    6.1507    1.0000 </r>
       <r>    6.5155    1.0000 </r>
       <r>    6.5566    1.0000 </r>
       <r>    6.9163    1.0000 </r>
       <r>    6.9479    1.0000 </r>
       <r>    6.9624    1.0000 </r>
       <r>    6.9699    1.0000 </r>
       <r>    7.5690    1.0000 </r>
       <r>    7.6606    1.0000 </r>
       <r>    7.6675    1.0000 </r>
       <r>    7.7633    1.0000 </r>
       <r>    7.9670    1.0000 </r>
       <r>    8.1077    1.0035 </r>
       <r>    8.1656    1.0207 </r>
       <r>    8.2103    1.0354 </r>
       <r>    8.5340   -0.0072 </r>
       <r>    8.5552   -0.0034 </r>
       <r>    9.0849   -0.0000 </r>
       <r>    9.2002   -0.0000 </r>
       <r>    9.3487   -0.0000 </r>
       <r>    9.4668   -0.0000 </r>
       <r>    9.6087   -0.0000 </r>
       <r>    9.7479   -0.0000 </r>
       <r>    9.8464   -0.0000 </r>
       <r>   10.0028   -0.0000 </r>
       <r>   10.1607   -0.0000 </r>
       <r>   10.2961   -0.0000 </r>
       <r>   10.3090   -0.0000 </r>
       <r>   10.3528    0.0000 </r>
       <r>   10.4077    0.0000 </r>
       <r>   10.4123    0.0000 </r>
       <r>   10.4274    0.0000 </r>
       <r>   10.4352    0.0000 </r>
       <r>   10.5365    0.0000 </r>
       <r>   10.5521    0.0000 </r>
       <r>   11.0676    0.0000 </r>
       <r>   11.1197    0.0000 </r>
       <r>   11.2825    0.0000 </r>
       <r>   11.3816    0.0000 </r>
       <r>   11.5331    0.0000 </r>
       <r>   11.7801    0.0000 </r>
       <r>   12.1368    0.0000 </r>
       <r>   12.2124    0.0000 </r>
       <r>   12.4031    0.0000 </r>
       <r>   12.5498    0.0000 </r>
       <r>   12.8201    0.0000 </r>
       <r>   13.2088    0.0000 </r>
       <r>   13.7223    0.0000 </r>
       <r>   14.0867    0.0000 </r>
       <r>   14.1378    0.0000 </r>
       <r>   14.2935    0.0000 </r>
       <r>   14.3522    0.0000 </r>
       <r>   14.5379    0.0000 </r>
       <r>   14.6182    0.0000 </r>
       <r>   14.6582    0.0000 </r>
       <r>   14.8355    0.0000 </r>
       <r>   15.0002    0.0000 </r>
       <r>   15.0091    0.0000 </r>
       <r>   15.4421    0.0000 </r>
       <r>   15.5068    0.0000 </r>
       <r>   16.4212    0.0000 </r>
       <r>   16.4238    0.0000 </r>
       <r>   16.5947    0.0000 </r>
       <r>   16.9233    0.0000 </r>
       <r>   17.0281    0.0000 </r>
       <r>   17.4638    0.0000 </r>
       <r>   17.6647    0.0000 </r>
       <r>   17.9571    0.0000 </r>
       <r>   18.0205    0.0000 </r>
       <r>   18.1656    0.0000 </r>
       <r>   18.1659    0.0000 </r>
       <r>   18.3664    0.0000 </r>
       <r>   18.8207    0.0000 </r>
       <r>   19.1085    0.0000 </r>
       <r>   19.4505    0.0000 </r>
       <r>   19.5502    0.0000 </r>
       <r>   19.7506    0.0000 </r>
       <r>   20.2267    0.0000 </r>
       <r>   20.3600    0.0000 </r>
       <r>   20.8791    0.0000 </r>
       <r>   21.0794    0.0000 </r>
       <r>   21.0862    0.0000 </r>
      </set>
      <set comment="kpoint 9">
       <r>  -48.2769    1.0000 </r>
       <r>  -48.2763    1.0000 </r>
       <r>  -48.2669    1.0000 </r>
       <r>  -48.2664    1.0000 </r>
       <r>  -48.2237    1.0000 </r>
       <r>  -48.2232    1.0000 </r>
       <r>  -48.2140    1.0000 </r>
       <r>  -48.2136    1.0000 </r>
       <r>  -24.6884    1.0000 </r>
       <r>  -24.6862    1.0000 </r>
       <r>  -24.6841    1.0000 </r>
       <r>  -24.6777    1.0000 </r>
       <r>  -24.6747    1.0000 </r>
       <r>  -24.6731    1.0000 </r>
       <r>  -24.6728    1.0000 </r>
       <r>  -24.6632    1.0000 </r>
       <r>  -24.6329    1.0000 </r>
       <r>  -24.6234    1.0000 </r>
       <r>  -24.6211    1.0000 </r>
       <r>  -24.6119    1.0000 </r>
       <r>  -24.5341    1.0000 </r>
       <r>  -24.5322    1.0000 </r>
       <r>  -24.4805    1.0000 </r>
       <r>  -24.4794    1.0000 </r>
       <r>  -24.4524    1.0000 </r>
       <r>  -24.4509    1.0000 </r>
       <r>  -24.4030    1.0000 </r>
       <r>  -24.4021    1.0000 </r>
       <r>  -24.2531    1.0000 </r>
       <r>  -24.2525    1.0000 </r>
       <r>  -24.2457    1.0000 </r>
       <r>  -24.2451    1.0000 </r>
       <r>    0.2996    1.0000 </r>
       <r>    0.8186    1.0000 </r>
       <r>    1.5093    1.0000 </r>
       <r>    1.8875    1.0000 </r>
       <r>    3.6492    1.0000 </r>
       <r>    3.9485    1.0000 </r>
       <r>    4.0157    1.0000 </r>
       <r>    4.1537    1.0000 </r>
       <r>    4.3415    1.0000 </r>
       <r>    4.6773    1.0000 </r>
       <r>    5.3641    1.0000 </r>
       <r>    5.7078    1.0000 </r>
       <r>    5.9524    1.0000 </r>
       <r>    6.0648    1.0000 </r>
       <r>    6.2691    1.0000 </r>
       <r>    6.4334    1.0000 </r>
       <r>    7.1141    1.0000 </r>
       <r>    7.1381    1.0000 </r>
       <r>    7.1388    1.0000 </r>
       <r>    7.1715    1.0000 </r>
       <r>    7.3536    1.0000 </r>
       <r>    7.4147    1.0000 </r>
       <r>    7.5739    1.0000 </r>
       <r>    7.6244    1.0000 </r>
       <r>    7.7106    1.0000 </r>
       <r>    8.1108    1.0040 </r>
       <r>    8.2118    1.0353 </r>
       <r>    8.4177   -0.0057 </r>
       <r>    8.4318   -0.0261 </r>
       <r>    8.6134   -0.0002 </r>
       <r>    8.6424   -0.0000 </r>
       <r>    8.8845   -0.0000 </r>
       <r>    9.2031   -0.0000 </r>
       <r>    9.2772   -0.0000 </r>
       <r>    9.2888   -0.0000 </r>
       <r>    9.3408   -0.0000 </r>
       <r>    9.3894   -0.0000 </r>
       <r>    9.4891   -0.0000 </r>
       <r>    9.9663   -0.0000 </r>
       <r>   10.1088   -0.0000 </r>
       <r>   10.2473   -0.0000 </r>
       <r>   10.3410    0.0000 </r>
       <r>   10.3427    0.0000 </r>
       <r>   10.3437    0.0000 </r>
       <r>   10.3986    0.0000 </r>
       <r>   10.4654    0.0000 </r>
       <r>   10.5439    0.0000 </r>
       <r>   10.6095    0.0000 </r>
       <r>   10.7986    0.0000 </r>
       <r>   10.8066    0.0000 </r>
       <r>   10.8580    0.0000 </r>
       <r>   11.0901    0.0000 </r>
       <r>   11.6547    0.0000 </r>
       <r>   11.8015    0.0000 </r>
       <r>   11.9553    0.0000 </r>
       <r>   12.0797    0.0000 </r>
       <r>   12.1512    0.0000 </r>
       <r>   12.2008    0.0000 </r>
       <r>   12.2967    0.0000 </r>
       <r>   12.3182    0.0000 </r>
       <r>   13.3328    0.0000 </r>
       <r>   13.9599    0.0000 </r>
       <r>   14.1602    0.0000 </r>
       <r>   14.1628    0.0000 </r>
       <r>   14.3012    0.0000 </r>
       <r>   14.4627    0.0000 </r>
       <r>   14.5174    0.0000 </r>
       <r>   14.9365    0.0000 </r>
       <r>   15.1228    0.0000 </r>
       <r>   15.2160    0.0000 </r>
       <r>   15.2400    0.0000 </r>
       <r>   15.3997    0.0000 </r>
       <r>   15.8444    0.0000 </r>
       <r>   15.8480    0.0000 </r>
       <r>   15.8687    0.0000 </r>
       <r>   16.4722    0.0000 </r>
       <r>   16.5293    0.0000 </r>
       <r>   16.8575    0.0000 </r>
       <r>   16.9160    0.0000 </r>
       <r>   16.9435    0.0000 </r>
       <r>   16.9925    0.0000 </r>
       <r>   17.4722    0.0000 </r>
       <r>   17.6693    0.0000 </r>
       <r>   17.6781    0.0000 </r>
       <r>   17.7583    0.0000 </r>
       <r>   17.9889    0.0000 </r>
       <r>   18.8525    0.0000 </r>
       <r>   19.2178    0.0000 </r>
       <r>   19.5979    0.0000 </r>
       <r>   19.6886    0.0000 </r>
       <r>   19.9095    0.0000 </r>
       <r>   19.9269    0.0000 </r>
       <r>   20.3718    0.0000 </r>
       <r>   20.3773    0.0000 </r>
       <r>   20.5064    0.0000 </r>
       <r>   20.5484    0.0000 </r>
      </set>
      <set comment="kpoint 10">
       <r>  -48.2889    1.0000 </r>
       <r>  -48.2883    1.0000 </r>
       <r>  -48.2450    1.0000 </r>
       <r>  -48.2450    1.0000 </r>
       <r>  -48.2445    1.0000 </r>
       <r>  -48.2445    1.0000 </r>
       <r>  -48.2024    1.0000 </r>
       <r>  -48.2020    1.0000 </r>
       <r>  -24.7014    1.0000 </r>
       <r>  -24.6851    1.0000 </r>
       <r>  -24.6660    1.0000 </r>
       <r>  -24.6660    1.0000 </r>
       <r>  -24.6637    1.0000 </r>
       <r>  -24.6637    1.0000 </r>
       <r>  -24.6545    1.0000 </r>
       <r>  -24.6545    1.0000 </r>
       <r>  -24.6417    1.0000 </r>
       <r>  -24.6417    1.0000 </r>
       <r>  -24.6197    1.0000 </r>
       <r>  -24.6182    1.0000 </r>
       <r>  -24.6139    1.0000 </r>
       <r>  -24.6126    1.0000 </r>
       <r>  -24.6119    1.0000 </r>
       <r>  -24.6008    1.0000 </r>
       <r>  -24.3103    1.0000 </r>
       <r>  -24.3094    1.0000 </r>
       <r>  -24.3042    1.0000 </r>
       <r>  -24.3036    1.0000 </r>
       <r>  -24.2730    1.0000 </r>
       <r>  -24.2730    1.0000 </r>
       <r>  -24.2723    1.0000 </r>
       <r>  -24.2723    1.0000 </r>
       <r>   -0.2307    1.0000 </r>
       <r>    1.1204    1.0000 </r>
       <r>    2.3097    1.0000 </r>
       <r>    2.3097    1.0000 </r>
       <r>    2.9450    1.0000 </r>
       <r>    2.9450    1.0000 </r>
       <r>    3.5947    1.0000 </r>
       <r>    4.3123    1.0000 </r>
       <r>    4.7853    1.0000 </r>
       <r>    5.7798    1.0000 </r>
       <r>    5.7798    1.0000 </r>
       <r>    6.0036    1.0000 </r>
       <r>    6.0036    1.0000 </r>
       <r>    6.0215    1.0000 </r>
       <r>    6.3209    1.0000 </r>
       <r>    6.3209    1.0000 </r>
       <r>    6.4047    1.0000 </r>
       <r>    6.6235    1.0000 </r>
       <r>    6.8438    1.0000 </r>
       <r>    6.8927    1.0000 </r>
       <r>    6.8927    1.0000 </r>
       <r>    7.6772    1.0000 </r>
       <r>    7.6787    1.0000 </r>
       <r>    7.8404    1.0000 </r>
       <r>    7.9349    1.0000 </r>
       <r>    8.0126    1.0000 </r>
       <r>    8.1196    1.0055 </r>
       <r>    8.1196    1.0055 </r>
       <r>    8.1580    1.0173 </r>
       <r>    8.1580    1.0173 </r>
       <r>    8.3641    0.2344 </r>
       <r>    9.1557   -0.0000 </r>
       <r>    9.4535   -0.0000 </r>
       <r>    9.4602   -0.0000 </r>
       <r>    9.7003   -0.0000 </r>
       <r>    9.7003   -0.0000 </r>
       <r>    9.8721   -0.0000 </r>
       <r>    9.8721   -0.0000 </r>
       <r>    9.9754   -0.0000 </r>
       <r>   10.1630   -0.0000 </r>
       <r>   10.1764   -0.0000 </r>
       <r>   10.1764   -0.0000 </r>
       <r>   10.2020   -0.0000 </r>
       <r>   10.3374    0.0000 </r>
       <r>   10.3374    0.0000 </r>
       <r>   10.4219    0.0000 </r>
       <r>   10.4233    0.0000 </r>
       <r>   10.4233    0.0000 </r>
       <r>   10.7529    0.0000 </r>
       <r>   11.0014    0.0000 </r>
       <r>   11.1202    0.0000 </r>
       <r>   11.1795    0.0000 </r>
       <r>   11.3086    0.0000 </r>
       <r>   11.3684    0.0000 </r>
       <r>   12.0589    0.0000 </r>
       <r>   12.0976    0.0000 </r>
       <r>   12.0976    0.0000 </r>
       <r>   12.4642    0.0000 </r>
       <r>   12.4642    0.0000 </r>
       <r>   13.4896    0.0000 </r>
       <r>   13.5218    0.0000 </r>
       <r>   13.5218    0.0000 </r>
       <r>   13.8378    0.0000 </r>
       <r>   14.0959    0.0000 </r>
       <r>   14.4498    0.0000 </r>
       <r>   14.4498    0.0000 </r>
       <r>   14.4573    0.0000 </r>
       <r>   14.4902    0.0000 </r>
       <r>   14.4999    0.0000 </r>
       <r>   14.4999    0.0000 </r>
       <r>   14.8429    0.0000 </r>
       <r>   15.1663    0.0000 </r>
       <r>   15.1701    0.0000 </r>
       <r>   15.4432    0.0000 </r>
       <r>   15.5825    0.0000 </r>
       <r>   16.7988    0.0000 </r>
       <r>   17.1764    0.0000 </r>
       <r>   17.2427    0.0000 </r>
       <r>   17.2427    0.0000 </r>
       <r>   17.3361    0.0000 </r>
       <r>   17.3851    0.0000 </r>
       <r>   17.3851    0.0000 </r>
       <r>   17.4209    0.0000 </r>
       <r>   17.4209    0.0000 </r>
       <r>   18.2007    0.0000 </r>
       <r>   19.5339    0.0000 </r>
       <r>   19.6294    0.0000 </r>
       <r>   19.7587    0.0000 </r>
       <r>   19.7949    0.0000 </r>
       <r>   20.2340    0.0000 </r>
       <r>   20.2340    0.0000 </r>
       <r>   20.6944    0.0000 </r>
       <r>   20.7895    0.0000 </r>
       <r>   21.1515    0.0000 </r>
       <r>   21.1521    0.0000 </r>
       <r>   21.1641    0.0000 </r>
      </set>
      <set comment="kpoint 11">
       <r>  -48.2813    1.0000 </r>
       <r>  -48.2807    1.0000 </r>
       <r>  -48.2527    1.0000 </r>
       <r>  -48.2522    1.0000 </r>
       <r>  -48.2377    1.0000 </r>
       <r>  -48.2372    1.0000 </r>
       <r>  -48.2099    1.0000 </r>
       <r>  -48.2094    1.0000 </r>
       <r>  -24.6933    1.0000 </r>
       <r>  -24.6776    1.0000 </r>
       <r>  -24.6627    1.0000 </r>
       <r>  -24.6576    1.0000 </r>
       <r>  -24.6554    1.0000 </r>
       <r>  -24.6492    1.0000 </r>
       <r>  -24.6472    1.0000 </r>
[...]
       <r>    6.2598    1.0000 </r>
       <r>    6.2598    1.0000 </r>
       <r>    6.4171    1.0000 </r>
       <r>    6.4171    1.0000 </r>
       <r>    7.6822    1.0000 </r>
       <r>    7.6822    1.0000 </r>
       <r>    7.6822    1.0000 </r>
       <r>    7.6822    1.0000 </r>
       <r>    7.7022    1.0000 </r>
       <r>    7.7022    1.0000 </r>
       <r>    8.0681    1.0006 </r>
       <r>    8.0681    1.0006 </r>
       <r>    8.2134    1.0350 </r>
       <r>    8.2134    1.0350 </r>
       <r>    8.3795    0.1367 </r>
       <r>    8.3795    0.1367 </r>
       <r>    8.4911   -0.0229 </r>
       <r>    8.4911   -0.0229 </r>
       <r>    8.4911   -0.0229 </r>
       <r>    8.4911   -0.0229 </r>
       <r>    9.0074   -0.0000 </r>
       <r>    9.0074   -0.0000 </r>
       <r>    9.0371   -0.0000 </r>
       <r>    9.0371   -0.0000 </r>
       <r>    9.0371   -0.0000 </r>
       <r>    9.0371   -0.0000 </r>
       <r>    9.2115   -0.0000 </r>
       <r>    9.2115   -0.0000 </r>
       <r>    9.9654   -0.0000 </r>
       <r>    9.9654   -0.0000 </r>
       <r>   10.0260   -0.0000 </r>
       <r>   10.0260   -0.0000 </r>
       <r>   10.0260   -0.0000 </r>
       <r>   10.0260   -0.0000 </r>
       <r>   10.1253   -0.0000 </r>
       <r>   10.1253   -0.0000 </r>
       <r>   11.4596    0.0000 </r>
       <r>   11.4596    0.0000 </r>
       <r>   11.6818    0.0000 </r>
       <r>   11.6818    0.0000 </r>
       <r>   11.6818    0.0000 </r>
       <r>   11.6818    0.0000 </r>
       <r>   11.9625    0.0000 </r>
       <r>   11.9625    0.0000 </r>
       <r>   12.6737    0.0000 </r>
       <r>   12.6737    0.0000 </r>
       <r>   12.7410    0.0000 </r>
       <r>   12.7410    0.0000 </r>
       <r>   12.7410    0.0000 </r>
       <r>   12.7410    0.0000 </r>
       <r>   13.1477    0.0000 </r>
       <r>   13.1477    0.0000 </r>
       <r>   13.7565    0.0000 </r>
       <r>   13.7565    0.0000 </r>
       <r>   14.3813    0.0000 </r>
       <r>   14.3813    0.0000 </r>
       <r>   14.3813    0.0000 </r>
       <r>   14.3813    0.0000 </r>
       <r>   14.4845    0.0000 </r>
       <r>   14.4845    0.0000 </r>
       <r>   17.3751    0.0000 </r>
       <r>   17.3751    0.0000 </r>
       <r>   17.3940    0.0000 </r>
       <r>   17.3940    0.0000 </r>
       <r>   17.5336    0.0000 </r>
       <r>   17.5336    0.0000 </r>
       <r>   17.5336    0.0000 </r>
       <r>   17.5336    0.0000 </r>
       <r>   17.9445    0.0000 </r>
       <r>   17.9445    0.0000 </r>
       <r>   17.9445    0.0000 </r>
       <r>   17.9445    0.0000 </r>
       <r>   18.3898    0.0000 </r>
       <r>   18.3898    0.0000 </r>
       <r>   18.4499    0.0000 </r>
       <r>   18.4499    0.0000 </r>
       <r>   19.0491    0.0000 </r>
       <r>   19.0491    0.0000 </r>
       <r>   19.2060    0.0000 </r>
       <r>   19.2060    0.0000 </r>
       <r>   19.5806    0.0000 </r>
       <r>   19.5806    0.0000 </r>
       <r>   19.5806    0.0000 </r>
       <r>   19.5806    0.0000 </r>
      </set>
     </set>
    </set>
   </array>
  </eigenvalues>
  <separator name="orbital magnetization" >
   <v name="MAGDIPOLOUT">      0.00000000      0.00000000      0.00000000</v>
  </separator>
  <dos>
   <i name="efermi">      8.33075440 </i>
   <total>
    <array>
     <dimension dim="1">gridpoints</dimension>
     <dimension dim="2">spin</dimension>
     <field>energy</field>
     <field>total</field>
     <field>integrated</field>
     <set>
      <set comment="spin 1">
       <r>   -51.8225     0.0000     0.0000 </r>
       <r>   -51.5643     0.0000     0.0000 </r>
       <r>   -51.3062     0.0000     0.0000 </r>
       <r>   -51.0480     0.0000     0.0000 </r>
       <r>   -50.7899     0.0000     0.0000 </r>
       <r>   -50.5317     0.0000     0.0000 </r>
       <r>   -50.2736     0.0000     0.0000 </r>
       <r>   -50.0154     0.0000     0.0000 </r>
       <r>   -49.7573     0.0000     0.0000 </r>
       <r>   -49.4991     0.0000     0.0000 </r>
       <r>   -49.2409    -0.0000    -0.0000 </r>
       <r>   -48.9828    -0.0000    -0.0000 </r>
       <r>   -48.7246    -0.0000    -0.0000 </r>
       <r>   -48.4665    -0.3421    -0.0883 </r>
       <r>   -48.2083    47.3459    12.1341 </r>
       <r>   -47.9502    14.9936    16.0048 </r>
       <r>   -47.6920    -0.0185    16.0000 </r>
       <r>   -47.4339    -0.0000    16.0000 </r>
       <r>   -47.1757     0.0000    16.0000 </r>
       <r>   -46.9176     0.0000    16.0000 </r>
       <r>   -46.6594     0.0000    16.0000 </r>
       <r>   -46.4013     0.0000    16.0000 </r>
       <r>   -46.1431     0.0000    16.0000 </r>
       <r>   -45.8850     0.0000    16.0000 </r>
       <r>   -45.6268     0.0000    16.0000 </r>
       <r>   -45.3687     0.0000    16.0000 </r>
       <r>   -45.1105     0.0000    16.0000 </r>
       <r>   -44.8524     0.0000    16.0000 </r>
       <r>   -44.5942     0.0000    16.0000 </r>
       <r>   -44.3361     0.0000    16.0000 </r>
       <r>   -44.0779     0.0000    16.0000 </r>
       <r>   -43.8198     0.0000    16.0000 </r>
       <r>   -43.5616     0.0000    16.0000 </r>
       <r>   -43.3034     0.0000    16.0000 </r>
       <r>   -43.0453     0.0000    16.0000 </r>
       <r>   -42.7871     0.0000    16.0000 </r>
       <r>   -42.5290     0.0000    16.0000 </r>
       <r>   -42.2708     0.0000    16.0000 </r>
       <r>   -42.0127     0.0000    16.0000 </r>
       <r>   -41.7545     0.0000    16.0000 </r>
       <r>   -41.4964     0.0000    16.0000 </r>
       <r>   -41.2382     0.0000    16.0000 </r>
       <r>   -40.9801     0.0000    16.0000 </r>
       <r>   -40.7219     0.0000    16.0000 </r>
       <r>   -40.4638     0.0000    16.0000 </r>
       <r>   -40.2056     0.0000    16.0000 </r>
       <r>   -39.9475     0.0000    16.0000 </r>
       <r>   -39.6893     0.0000    16.0000 </r>
       <r>   -39.4312     0.0000    16.0000 </r>
       <r>   -39.1730     0.0000    16.0000 </r>
       <r>   -38.9149     0.0000    16.0000 </r>
       <r>   -38.6567     0.0000    16.0000 </r>
       <r>   -38.3986     0.0000    16.0000 </r>
       <r>   -38.1404     0.0000    16.0000 </r>
       <r>   -37.8822     0.0000    16.0000 </r>
       <r>   -37.6241     0.0000    16.0000 </r>
       <r>   -37.3659     0.0000    16.0000 </r>
       <r>   -37.1078     0.0000    16.0000 </r>
       <r>   -36.8496     0.0000    16.0000 </r>
       <r>   -36.5915     0.0000    16.0000 </r>
       <r>   -36.3333     0.0000    16.0000 </r>
       <r>   -36.0752     0.0000    16.0000 </r>
       <r>   -35.8170     0.0000    16.0000 </r>
       <r>   -35.5589     0.0000    16.0000 </r>
       <r>   -35.3007     0.0000    16.0000 </r>
       <r>   -35.0426     0.0000    16.0000 </r>
       <r>   -34.7844     0.0000    16.0000 </r>
       <r>   -34.5263     0.0000    16.0000 </r>
       <r>   -34.2681     0.0000    16.0000 </r>
       <r>   -34.0100     0.0000    16.0000 </r>
       <r>   -33.7518     0.0000    16.0000 </r>
       <r>   -33.4937     0.0000    16.0000 </r>
       <r>   -33.2355     0.0000    16.0000 </r>
       <r>   -32.9774     0.0000    16.0000 </r>
       <r>   -32.7192     0.0000    16.0000 </r>
       <r>   -32.4611     0.0000    16.0000 </r>
       <r>   -32.2029     0.0000    16.0000 </r>
       <r>   -31.9447     0.0000    16.0000 </r>
       <r>   -31.6866     0.0000    16.0000 </r>
       <r>   -31.4284     0.0000    16.0000 </r>
       <r>   -31.1703     0.0000    16.0000 </r>
       <r>   -30.9121     0.0000    16.0000 </r>
       <r>   -30.6540     0.0000    16.0000 </r>
       <r>   -30.3958     0.0000    16.0000 </r>
       <r>   -30.1377     0.0000    16.0000 </r>
       <r>   -29.8795     0.0000    16.0000 </r>
       <r>   -29.6214     0.0000    16.0000 </r>
       <r>   -29.3632     0.0000    16.0000 </r>
       <r>   -29.1051     0.0000    16.0000 </r>
       <r>   -28.8469     0.0000    16.0000 </r>
       <r>   -28.5888     0.0000    16.0000 </r>
       <r>   -28.3306     0.0000    16.0000 </r>
       <r>   -28.0725     0.0000    16.0000 </r>
       <r>   -27.8143     0.0000    16.0000 </r>
       <r>   -27.5562     0.0000    16.0000 </r>
       <r>   -27.2980     0.0000    16.0000 </r>
       <r>   -27.0399     0.0000    16.0000 </r>
       <r>   -26.7817     0.0000    16.0000 </r>
       <r>   -26.5236     0.0000    16.0000 </r>
       <r>   -26.2654     0.0000    16.0000 </r>
       <r>   -26.0072     0.0000    16.0000 </r>
       <r>   -25.7491    -0.0000    16.0000 </r>
       <r>   -25.4909    -0.0000    16.0000 </r>
       <r>   -25.2328    -0.0000    16.0000 </r>
       <r>   -24.9746    -0.0107    15.9972 </r>
       <r>   -24.7165    10.8825    18.8066 </r>
       <r>   -24.4583   115.2924    48.5696 </r>
       <r>   -24.2002    56.5733    63.1741 </r>
       <r>   -23.9420     3.2018    64.0007 </r>
       <r>   -23.6839    -0.0025    64.0000 </r>
       <r>   -23.4257    -0.0000    64.0000 </r>
       <r>   -23.1676     0.0000    64.0000 </r>
       <r>   -22.9094     0.0000    64.0000 </r>
       <r>   -22.6513     0.0000    64.0000 </r>
       <r>   -22.3931     0.0000    64.0000 </r>
       <r>   -22.1350     0.0000    64.0000 </r>
       <r>   -21.8768     0.0000    64.0000 </r>
       <r>   -21.6187     0.0000    64.0000 </r>
       <r>   -21.3605     0.0000    64.0000 </r>
       <r>   -21.1024     0.0000    64.0000 </r>
       <r>   -20.8442     0.0000    64.0000 </r>
       <r>   -20.5860     0.0000    64.0000 </r>
       <r>   -20.3279     0.0000    64.0000 </r>
       <r>   -20.0697     0.0000    64.0000 </r>
       <r>   -19.8116     0.0000    64.0000 </r>
       <r>   -19.5534     0.0000    64.0000 </r>
       <r>   -19.2953     0.0000    64.0000 </r>
       <r>   -19.0371     0.0000    64.0000 </r>
       <r>   -18.7790     0.0000    64.0000 </r>
       <r>   -18.5208     0.0000    64.0000 </r>
       <r>   -18.2627     0.0000    64.0000 </r>
       <r>   -18.0045     0.0000    64.0000 </r>
       <r>   -17.7464     0.0000    64.0000 </r>
       <r>   -17.4882     0.0000    64.0000 </r>
       <r>   -17.2301     0.0000    64.0000 </r>
       <r>   -16.9719     0.0000    64.0000 </r>
       <r>   -16.7138     0.0000    64.0000 </r>
       <r>   -16.4556     0.0000    64.0000 </r>
       <r>   -16.1975     0.0000    64.0000 </r>
       <r>   -15.9393     0.0000    64.0000 </r>
       <r>   -15.6812     0.0000    64.0000 </r>
       <r>   -15.4230     0.0000    64.0000 </r>
       <r>   -15.1649     0.0000    64.0000 </r>
       <r>   -14.9067     0.0000    64.0000 </r>
       <r>   -14.6485     0.0000    64.0000 </r>
       <r>   -14.3904     0.0000    64.0000 </r>
       <r>   -14.1322     0.0000    64.0000 </r>
       <r>   -13.8741     0.0000    64.0000 </r>
       <r>   -13.6159     0.0000    64.0000 </r>
       <r>   -13.3578     0.0000    64.0000 </r>
       <r>   -13.0996     0.0000    64.0000 </r>
       <r>   -12.8415     0.0000    64.0000 </r>
       <r>   -12.5833     0.0000    64.0000 </r>
       <r>   -12.3252     0.0000    64.0000 </r>
       <r>   -12.0670     0.0000    64.0000 </r>
       <r>   -11.8089     0.0000    64.0000 </r>
       <r>   -11.5507     0.0000    64.0000 </r>
       <r>   -11.2926     0.0000    64.0000 </r>
       <r>   -11.0344     0.0000    64.0000 </r>
       <r>   -10.7763     0.0000    64.0000 </r>
       <r>   -10.5181     0.0000    64.0000 </r>
       <r>   -10.2600     0.0000    64.0000 </r>
       <r>   -10.0018     0.0000    64.0000 </r>
       <r>    -9.7437     0.0000    64.0000 </r>
       <r>    -9.4855     0.0000    64.0000 </r>
       <r>    -9.2274     0.0000    64.0000 </r>
       <r>    -8.9692     0.0000    64.0000 </r>
       <r>    -8.7110     0.0000    64.0000 </r>
       <r>    -8.4529     0.0000    64.0000 </r>
       <r>    -8.1947     0.0000    64.0000 </r>
       <r>    -7.9366     0.0000    64.0000 </r>
       <r>    -7.6784     0.0000    64.0000 </r>
       <r>    -7.4203     0.0000    64.0000 </r>
       <r>    -7.1621     0.0000    64.0000 </r>
       <r>    -6.9040     0.0000    64.0000 </r>
       <r>    -6.6458     0.0000    64.0000 </r>
       <r>    -6.3877     0.0000    64.0000 </r>
       <r>    -6.1295     0.0000    64.0000 </r>
       <r>    -5.8714     0.0000    64.0000 </r>
       <r>    -5.6132     0.0000    64.0000 </r>
       <r>    -5.3551     0.0000    64.0000 </r>
       <r>    -5.0969     0.0000    64.0000 </r>
       <r>    -4.8388     0.0000    64.0000 </r>
       <r>    -4.5806     0.0000    64.0000 </r>
       <r>    -4.3225     0.0000    64.0000 </r>
       <r>    -4.0643     0.0000    64.0000 </r>
       <r>    -3.8062     0.0000    64.0000 </r>
       <r>    -3.5480     0.0000    64.0000 </r>
       <r>    -3.2898     0.0000    64.0000 </r>
       <r>    -3.0317     0.0000    64.0000 </r>
       <r>    -2.7735     0.0000    64.0000 </r>
       <r>    -2.5154     0.0000    64.0000 </r>
       <r>    -2.2572     0.0000    64.0000 </r>
       <r>    -1.9991     0.0000    64.0000 </r>
       <r>    -1.7409    -0.0000    64.0000 </r>
       <r>    -1.4828    -0.0000    64.0000 </r>
       <r>    -1.2246    -0.0000    64.0000 </r>
       <r>    -0.9665    -0.0000    64.0000 </r>
       <r>    -0.7083     0.0085    64.0022 </r>
       <r>    -0.4502     0.5405    64.1417 </r>
       <r>    -0.1920     1.0362    64.4092 </r>
       <r>     0.0661     1.5475    64.8087 </r>
       <r>     0.3243     1.7370    65.2571 </r>
       <r>     0.5824     2.3320    65.8591 </r>
       <r>     0.8406     2.6460    66.5422 </r>
       <r>     1.0987     3.0116    67.3197 </r>
       <r>     1.3569     2.8364    68.0519 </r>
       <r>     1.6150     3.2543    68.8920 </r>
       <r>     1.8732     3.2413    69.7288 </r>
       <r>     2.1313     2.6572    70.4147 </r>
       <r>     2.3895     3.8645    71.4124 </r>
       <r>     2.6477     3.0650    72.2036 </r>
       <r>     2.9058     3.1932    73.0279 </r>
       <r>     3.1640     3.8963    74.0338 </r>
       <r>     3.4221     4.7558    75.2615 </r>
       <r>     3.6803     3.9718    76.2868 </r>
       <r>     3.9384     4.5585    77.4636 </r>
       <r>     4.1966     3.6919    78.4167 </r>
       <r>     4.4547     4.0591    79.4645 </r>
       <r>     4.7129     3.5185    80.3729 </r>
       <r>     4.9710     6.2388    81.9834 </r>
       <r>     5.2292     5.4203    83.3827 </r>
       <r>     5.4873     5.3954    84.7755 </r>
       <r>     5.7455     7.6557    86.7519 </r>
       <r>     6.0036     8.7700    89.0158 </r>
       <r>     6.2618    11.2912    91.9307 </r>
       <r>     6.5199    12.2054    95.0815 </r>
       <r>     6.7781    14.8087    98.9044 </r>
       <r>     7.0362    17.3305   103.3783 </r>
       <r>     7.2944     7.9219   105.4234 </r>
       <r>     7.5525     7.2635   107.2985 </r>
       <r>     7.8107    14.9359   111.1542 </r>
       <r>     8.0688    15.7694   115.2251 </r>
       <r>     8.3270    18.2804   119.9443 </r>
       <r>     8.5852    12.7670   123.2401 </r>
       <r>     8.8433    10.4913   125.9485 </r>
       <r>     9.1015    10.4700   128.6513 </r>
       <r>     9.3596    12.9585   131.9966 </r>
       <r>     9.6178    15.3469   135.9584 </r>
       <r>     9.8759    18.8229   140.8176 </r>
       <r>    10.1341    22.1172   146.5272 </r>
       <r>    10.3922    28.8558   153.9764 </r>
       <r>    10.6504    22.5278   159.7920 </r>
       <r>    10.9085    14.5938   163.5594 </r>
       <r>    11.1667     9.7168   166.0678 </r>
       <r>    11.4248     8.1857   168.1810 </r>
       <r>    11.6830     7.4526   170.1049 </r>
       <r>    11.9411     8.3381   172.2574 </r>
       <r>    12.1993    12.4198   175.4636 </r>
       <r>    12.4574    17.6079   180.0091 </r>
       <r>    12.7156    11.6698   183.0217 </r>
       <r>    12.9737     7.0744   184.8480 </r>
       <r>    13.2319     6.8654   186.6203 </r>
       <r>    13.4900     6.8071   188.3776 </r>
       <r>    13.7482     6.9042   190.1599 </r>
       <r>    14.0064     8.5749   192.3735 </r>
       <r>    14.2645     9.4317   194.8083 </r>
       <r>    14.5227     9.3885   197.2320 </r>
       <r>    14.7808    12.4892   200.4561 </r>
       <r>    15.0390     9.1042   202.8064 </r>
       <r>    15.2971     8.4596   204.9903 </r>
       <r>    15.5553    10.9567   207.8188 </r>
       <r>    15.8134     9.2760   210.2134 </r>
       <r>    16.0716     8.7462   212.4712 </r>
       <r>    16.3297     7.6316   214.4413 </r>
       <r>    16.5879    10.4462   217.1380 </r>
       <r>    16.8460     7.0143   218.9488 </r>
       <r>    17.1042    10.3305   221.6156 </r>
       <r>    17.3623     9.8566   224.1601 </r>
       <r>    17.6205     7.9978   226.2248 </r>
       <r>    17.8786    10.6700   228.9793 </r>
       <r>    18.1368     8.7861   231.2474 </r>
       <r>    18.3949     7.3673   233.1493 </r>
       <r>    18.6531     7.3033   235.0347 </r>
       <r>    18.9112     8.4579   237.2181 </r>
       <r>    19.1694     7.1497   239.0638 </r>
       <r>    19.4275     7.0616   240.8868 </r>
       <r>    19.6857     7.4847   242.8190 </r>
       <r>    19.9439     7.8362   244.8419 </r>
       <r>    20.2020     7.7187   246.8345 </r>
       <r>    20.4602     7.7577   248.8371 </r>
       <r>    20.7183     8.2124   250.9572 </r>
       <r>    20.9765     7.4096   252.8700 </r>
       <r>    21.2346     7.1693   254.7207 </r>
       <r>    21.4928     3.3243   255.5789 </r>
       <r>    21.7509     1.2040   255.8897 </r>
       <r>    22.0091     0.4178   255.9976 </r>
       <r>    22.2672     0.0097   256.0001 </r>
       <r>    22.5254    -0.0003   256.0000 </r>
       <r>    22.7835    -0.0000   256.0000 </r>
       <r>    23.0417     0.0000   256.0000 </r>
       <r>    23.2998     0.0000   256.0000 </r>
       <r>    23.5580     0.0000   256.0000 </r>
       <r>    23.8161     0.0000   256.0000 </r>
       <r>    24.0743     0.0000   256.0000 </r>
       <r>    24.3324     0.0000   256.0000 </r>
       <r>    24.5906     0.0000   256.0000 </r>
       <r>    24.8487     0.0000   256.0000 </r>
       <r>    25.1069     0.0000   256.0000 </r>
       <r>    25.3650     0.0000   256.0000 </r>
       <r>    25.6232     0.0000   256.0000 </r>
      </set>
     </set>
    </array>
   </total>
  </dos>
 </calculation>
 <structure name="finalpos" >
  <crystal>
   <varray name="basis" >
    <v>       5.65068177       0.00000000       0.00000000 </v>
    <v>       0.00000000       5.65068177       0.00000000 </v>
    <v>       0.00000000       0.00000000       8.12462919 </v>
   </varray>
   <i name="volume">    259.42107139 </i>
   <varray name="rec_basis" >
    <v>       0.17696980       0.00000000       0.00000000 </v>
    <v>       0.00000000       0.17696980       0.00000000 </v>
    <v>       0.00000000       0.00000000       0.12308254 </v>
   </varray>
  </crystal>
  <varray name="positions" >
   <v>       0.00000000       0.00000000       0.00000000 </v>
   <v>       0.00000000       0.00000000       0.50000000 </v>
   <v>       0.00000000       0.50000000       0.00000000 </v>
   <v>       0.00000000       0.50000000       0.50000000 </v>
   <v>       0.50000000       0.00000000       0.00000000 </v>
   <v>       0.50000000       0.00000000       0.50000000 </v>
   <v>       0.50000000       0.50000000       0.00000000 </v>
   <v>       0.50000000       0.50000000       0.50000000 </v>
   <v>       0.25000000       0.25000000       0.25000000 </v>
   <v>       0.25000000       0.25000000       0.75000000 </v>
   <v>       0.25000000       0.75000000       0.25000000 </v>
   <v>       0.25000000       0.75000000       0.75000000 </v>
   <v>       0.75000000       0.25000000       0.25000000 </v>
   <v>       0.75000000       0.25000000       0.75000000 </v>
   <v>       0.75000000       0.75000000       0.25000000 </v>
   <v>       0.75000000       0.75000000       0.75000000 </v>
  </varray>
 </structure>
</modeling>
