  24  24   0   0
  0.1080921E+02  0.5650682E-09  0.5650682E-09  0.8124629E-09  0.1500000E-16
  1.000000000000000E-004
  CAR 
 unknown system                          
     13.26479776    -51.27886994  301      8.29431514      1.00000000
    -51.279  0.0000E+00  0.0000E+00
    -51.064  0.0000E+00  0.0000E+00
    -50.849  0.0000E+00  0.0000E+00
    -50.633  0.0000E+00  0.0000E+00
    -50.418  0.0000E+00  0.0000E+00
    -50.203  0.0000E+00  0.0000E+00
    -49.988 -0.2006E-30 -0.4316E-31
    -49.773 -0.3082E-23 -0.6630E-24
    -49.558 -0.4714E-17 -0.1014E-17
    -49.343 -0.6911E-12 -0.1487E-12
    -49.127 -0.1022E-07 -0.2199E-08
    -48.912 -0.1438E-04 -0.3096E-05
    -48.697 -0.1692E-02 -0.3671E-03
    -48.482 -0.1753E-02 -0.7443E-03
    -48.267  0.1376E+00  0.2886E-01
    -48.052  0.1019E+00  0.5078E-01
    -47.837 -0.6388E-02  0.4941E-01
    -47.621 -0.8182E-03  0.4923E-01
    -47.406 -0.4151E-05  0.4923E-01
    -47.191 -0.1837E-08  0.4923E-01
    -46.976 -0.7801E-13  0.4923E-01
    -46.761  0.0000E+00  0.4923E-01
    -46.546  0.0000E+00  0.4923E-01
    -46.331  0.0000E+00  0.4923E-01
    -46.115  0.0000E+00  0.4923E-01
    -45.900  0.0000E+00  0.4923E-01
    -45.685  0.0000E+00  0.4923E-01
    -45.470  0.0000E+00  0.4923E-01
    -45.255  0.0000E+00  0.4923E-01
    -45.040  0.0000E+00  0.4923E-01
    -44.825  0.0000E+00  0.4923E-01
    -44.609  0.0000E+00  0.4923E-01
    -44.394  0.0000E+00  0.4923E-01
    -44.179  0.0000E+00  0.4923E-01
    -43.964  0.0000E+00  0.4923E-01
    -43.749  0.0000E+00  0.4923E-01
    -43.534  0.0000E+00  0.4923E-01
    -43.318  0.0000E+00  0.4923E-01
    -43.103  0.0000E+00  0.4923E-01
    -42.888  0.0000E+00  0.4923E-01
    -42.673  0.0000E+00  0.4923E-01
    -42.458  0.0000E+00  0.4923E-01
    -42.243  0.0000E+00  0.4923E-01
    -42.028  0.0000E+00  0.4923E-01
    -41.812  0.0000E+00  0.4923E-01
    -41.597  0.0000E+00  0.4923E-01
    -41.382  0.0000E+00  0.4923E-01
    -41.167  0.0000E+00  0.4923E-01
    -40.952  0.0000E+00  0.4923E-01
    -40.737  0.0000E+00  0.4923E-01
    -40.522  0.0000E+00  0.4923E-01
    -40.306  0.0000E+00  0.4923E-01
    -40.091  0.0000E+00  0.4923E-01
    -39.876  0.0000E+00  0.4923E-01
    -39.661  0.0000E+00  0.4923E-01
    -39.446  0.0000E+00  0.4923E-01
    -39.231  0.0000E+00  0.4923E-01
    -39.016  0.0000E+00  0.4923E-01
    -38.800  0.0000E+00  0.4923E-01
    -38.585  0.0000E+00  0.4923E-01
    -38.370  0.0000E+00  0.4923E-01
    -38.155  0.0000E+00  0.4923E-01
    -37.940  0.0000E+00  0.4923E-01
    -37.725  0.0000E+00  0.4923E-01
    -37.510  0.0000E+00  0.4923E-01
    -37.294  0.0000E+00  0.4923E-01
    -37.079  0.0000E+00  0.4923E-01
    -36.864  0.0000E+00  0.4923E-01
    -36.649  0.0000E+00  0.4923E-01
    -36.434  0.0000E+00  0.4923E-01
    -36.219  0.0000E+00  0.4923E-01
    -36.004  0.0000E+00  0.4923E-01
    -35.788  0.0000E+00  0.4923E-01
    -35.573  0.0000E+00  0.4923E-01
    -35.358  0.0000E+00  0.4923E-01
    -35.143  0.0000E+00  0.4923E-01
    -34.928  0.0000E+00  0.4923E-01
    -34.713  0.0000E+00  0.4923E-01
    -34.498  0.0000E+00  0.4923E-01
    -34.282  0.0000E+00  0.4923E-01
    -34.067  0.0000E+00  0.4923E-01
    -33.852  0.0000E+00  0.4923E-01
    -33.637  0.0000E+00  0.4923E-01
    -33.422  0.0000E+00  0.4923E-01
    -33.207  0.0000E+00  0.4923E-01
    -32.991  0.0000E+00  0.4923E-01
    -32.776  0.0000E+00  0.4923E-01
    -32.561  0.0000E+00  0.4923E-01
    -32.346  0.0000E+00  0.4923E-01
    -32.131  0.0000E+00  0.4923E-01
    -31.916  0.0000E+00  0.4923E-01
    -31.701  0.0000E+00  0.4923E-01
    -31.485  0.0000E+00  0.4923E-01
    -31.270  0.0000E+00  0.4923E-01
    -31.055  0.0000E+00  0.4923E-01
    -30.840  0.0000E+00  0.4923E-01
    -30.625  0.0000E+00  0.4923E-01
    -30.410  0.0000E+00  0.4923E-01
    -30.195  0.0000E+00  0.4923E-01
    -29.979  0.0000E+00  0.4923E-01
    -29.764  0.0000E+00  0.4923E-01
    -29.549  0.0000E+00  0.4923E-01
    -29.334  0.0000E+00  0.4923E-01
    -29.119  0.0000E+00  0.4923E-01
    -28.904  0.0000E+00  0.4923E-01
    -28.689  0.0000E+00  0.4923E-01
    -28.473  0.0000E+00  0.4923E-01
    -28.258  0.0000E+00  0.4923E-01
    -28.043  0.0000E+00  0.4923E-01
    -27.828  0.0000E+00  0.4923E-01
    -27.613  0.0000E+00  0.4923E-01
    -27.398  0.0000E+00  0.4923E-01
    -27.183  0.0000E+00  0.4923E-01
    -26.967  0.0000E+00  0.4923E-01
    -26.752  0.0000E+00  0.4923E-01
    -26.537 -0.4032E-35  0.4923E-01
    -26.322 -0.2376E-27  0.4923E-01
    -26.107 -0.1350E-20  0.4923E-01
    -25.892 -0.7523E-15  0.4923E-01
    -25.677 -0.4331E-10  0.4923E-01
    -25.461 -0.2531E-06  0.4923E-01
    -25.246 -0.1459E-03  0.4920E-01
    -25.031 -0.6818E-02  0.4773E-01
    -24.816  0.3000E-01  0.5419E-01
    -24.601  0.3122E+00  0.1214E+00
    -24.386  0.2314E+00  0.1711E+00
    -24.171  0.1177E+00  0.1965E+00
    -23.955  0.4367E-02  0.1974E+00
    -23.740 -0.2224E-02  0.1969E+00
    -23.525 -0.3389E-04  0.1969E+00
    -23.310 -0.4151E-07  0.1969E+00
    -23.095 -0.4761E-11  0.1969E+00
    -22.880 -0.5244E-16  0.1969E+00
    -22.665  0.0000E+00  0.1969E+00
    -22.449  0.0000E+00  0.1969E+00
    -22.234  0.0000E+00  0.1969E+00
    -22.019  0.0000E+00  0.1969E+00
    -21.804  0.0000E+00  0.1969E+00
    -21.589  0.0000E+00  0.1969E+00
    -21.374  0.0000E+00  0.1969E+00
    -21.158  0.0000E+00  0.1969E+00
    -20.943  0.0000E+00  0.1969E+00
    -20.728  0.0000E+00  0.1969E+00
    -20.513  0.0000E+00  0.1969E+00
    -20.298  0.0000E+00  0.1969E+00
    -20.083  0.0000E+00  0.1969E+00
    -19.868  0.0000E+00  0.1969E+00
    -19.652  0.0000E+00  0.1969E+00
    -19.437  0.0000E+00  0.1969E+00
    -19.222  0.0000E+00  0.1969E+00
    -19.007  0.0000E+00  0.1969E+00
    -18.792  0.0000E+00  0.1969E+00
    -18.577  0.0000E+00  0.1969E+00
    -18.362  0.0000E+00  0.1969E+00
    -18.146  0.0000E+00  0.1969E+00
    -17.931  0.0000E+00  0.1969E+00
    -17.716  0.0000E+00  0.1969E+00
    -17.501  0.0000E+00  0.1969E+00
    -17.286  0.0000E+00  0.1969E+00
    -17.071  0.0000E+00  0.1969E+00
    -16.856  0.0000E+00  0.1969E+00
    -16.640  0.0000E+00  0.1969E+00
    -16.425  0.0000E+00  0.1969E+00
    -16.210  0.0000E+00  0.1969E+00
    -15.995  0.0000E+00  0.1969E+00
    -15.780  0.0000E+00  0.1969E+00
    -15.565  0.0000E+00  0.1969E+00
    -15.350  0.0000E+00  0.1969E+00
    -15.134  0.0000E+00  0.1969E+00
    -14.919  0.0000E+00  0.1969E+00
    -14.704  0.0000E+00  0.1969E+00
    -14.489  0.0000E+00  0.1969E+00
    -14.274  0.0000E+00  0.1969E+00
    -14.059  0.0000E+00  0.1969E+00
    -13.844  0.0000E+00  0.1969E+00
    -13.628  0.0000E+00  0.1969E+00
    -13.413  0.0000E+00  0.1969E+00
    -13.198  0.0000E+00  0.1969E+00
    -12.983  0.0000E+00  0.1969E+00
    -12.768  0.0000E+00  0.1969E+00
    -12.553  0.0000E+00  0.1969E+00
    -12.338  0.0000E+00  0.1969E+00
    -12.122  0.0000E+00  0.1969E+00
    -11.907  0.0000E+00  0.1969E+00
    -11.692  0.0000E+00  0.1969E+00
    -11.477  0.0000E+00  0.1969E+00
    -11.262  0.0000E+00  0.1969E+00
    -11.047  0.0000E+00  0.1969E+00
    -10.832  0.0000E+00  0.1969E+00
    -10.616  0.0000E+00  0.1969E+00
    -10.401  0.0000E+00  0.1969E+00
    -10.186  0.0000E+00  0.1969E+00
     -9.971  0.0000E+00  0.1969E+00
     -9.756  0.0000E+00  0.1969E+00
     -9.541  0.0000E+00  0.1969E+00
     -9.325  0.0000E+00  0.1969E+00
     -9.110  0.0000E+00  0.1969E+00
     -8.895  0.0000E+00  0.1969E+00
     -8.680  0.0000E+00  0.1969E+00
     -8.465  0.0000E+00  0.1969E+00
     -8.250  0.0000E+00  0.1969E+00
     -8.035  0.0000E+00  0.1969E+00
     -7.819  0.0000E+00  0.1969E+00
     -7.604  0.0000E+00  0.1969E+00
     -7.389  0.0000E+00  0.1969E+00
     -7.174  0.0000E+00  0.1969E+00
     -6.959  0.0000E+00  0.1969E+00
     -6.744  0.0000E+00  0.1969E+00
     -6.529  0.0000E+00  0.1969E+00
     -6.313  0.0000E+00  0.1969E+00
     -6.098  0.0000E+00  0.1969E+00
     -5.883  0.0000E+00  0.1969E+00
     -5.668  0.0000E+00  0.1969E+00
     -5.453  0.0000E+00  0.1969E+00
     -5.238  0.0000E+00  0.1969E+00
     -5.023  0.0000E+00  0.1969E+00
     -4.807  0.0000E+00  0.1969E+00
     -4.592  0.0000E+00  0.1969E+00
     -4.377  0.0000E+00  0.1969E+00
     -4.162  0.0000E+00  0.1969E+00
     -3.947  0.0000E+00  0.1969E+00
     -3.732  0.0000E+00  0.1969E+00
     -3.517  0.0000E+00  0.1969E+00
     -3.301  0.0000E+00  0.1969E+00
     -3.086  0.0000E+00  0.1969E+00
     -2.871  0.0000E+00  0.1969E+00
     -2.656  0.0000E+00  0.1969E+00
     -2.441 -0.1801E-34  0.1969E+00
     -2.226 -0.3878E-27  0.1969E+00
     -2.011 -0.8297E-21  0.1969E+00
     -1.795 -0.1728E-15  0.1969E+00
     -1.580 -0.3789E-11  0.1969E+00
     -1.365 -0.8756E-08  0.1969E+00
     -1.150 -0.2118E-05  0.1969E+00
     -0.935 -0.4124E-04  0.1969E+00
     -0.720  0.2526E-03  0.1970E+00
     -0.505  0.1829E-02  0.1974E+00
     -0.289  0.3188E-02  0.1980E+00
     -0.074  0.4348E-02  0.1990E+00
      0.141  0.4924E-02  0.2000E+00
      0.356  0.6274E-02  0.2014E+00
      0.571  0.6844E-02  0.2029E+00
      0.786  0.8478E-02  0.2047E+00
      1.002  0.9650E-02  0.2068E+00
      1.217  0.9010E-02  0.2087E+00
      1.432  0.9442E-02  0.2107E+00
      1.647  0.1014E-01  0.2129E+00
      1.862  0.9609E-02  0.2150E+00
      2.077  0.8893E-02  0.2169E+00
      2.292  0.1151E-01  0.2194E+00
      2.508  0.9915E-02  0.2215E+00
      2.723  0.9800E-02  0.2236E+00
      2.938  0.1078E-01  0.2259E+00
      3.153  0.1272E-01  0.2287E+00
      3.368  0.1417E-01  0.2317E+00
      3.583  0.1270E-01  0.2345E+00
      3.798  0.1340E-01  0.2373E+00
      4.014  0.1248E-01  0.2400E+00
      4.229  0.1223E-01  0.2427E+00
      4.444  0.1152E-01  0.2451E+00
      4.659  0.1261E-01  0.2478E+00
      4.874  0.1798E-01  0.2517E+00
      5.089  0.1643E-01  0.2552E+00
      5.304  0.1686E-01  0.2589E+00
      5.520  0.1955E-01  0.2631E+00
      5.735  0.2574E-01  0.2686E+00
      5.950  0.2760E-01  0.2746E+00
      6.165  0.3404E-01  0.2819E+00
      6.380  0.3812E-01  0.2901E+00
      6.595  0.4333E-01  0.2994E+00
      6.810  0.5529E-01  0.3113E+00
      7.026  0.4373E-01  0.3207E+00
      7.241  0.2269E-01  0.3256E+00
      7.456  0.2548E-01  0.3311E+00
      7.671  0.4092E-01  0.3399E+00
      7.886  0.4887E-01  0.3504E+00
      8.101  0.6158E-01  0.3636E+00
      8.316  0.5389E-01  0.3752E+00
      8.532  0.4504E-01  0.3849E+00
      8.747  0.3669E-01  0.3928E+00
      8.962  0.4062E-01  0.4016E+00
      9.177  0.4685E-01  0.4116E+00
      9.392  0.7205E-01  0.4271E+00
      9.607  0.8385E-01  0.4452E+00
      9.822  0.9479E-01  0.4656E+00
     10.038  0.1229E+00  0.4920E+00
     10.253  0.1760E+00  0.5299E+00
     10.468  0.5914E-01  0.5426E+00
     10.683 -0.4401E-02  0.5417E+00
     10.898 -0.5569E-03  0.5415E+00
     11.113 -0.3818E-05  0.5415E+00
     11.328 -0.2480E-08  0.5415E+00
     11.544 -0.1604E-12  0.5415E+00
     11.759 -0.7318E-18  0.5415E+00
     11.974  0.0000E+00  0.5415E+00
     12.189  0.0000E+00  0.5415E+00
     12.404  0.0000E+00  0.5415E+00
     12.619  0.0000E+00  0.5415E+00
     12.835  0.0000E+00  0.5415E+00
     13.050  0.0000E+00  0.5415E+00
     13.265  0.0000E+00  0.5415E+00
