   24   24  325    1
  0.1080921E+02  0.5650682E-09  0.5650682E-09  0.8124629E-09  0.1500000E-16
  1.000000000000000E-004
  CAR 
 unknown system                          
    122     60     88
 
  0.1276756E-14  0.1276756E-14  0.1276756E-14  0.2057613E-02
      1        -48.345067   1.000000
      2        -48.344402   1.000000
      3        -48.287666   1.000000
      4        -48.287666   1.000000
      5        -48.287147   1.000000
      6        -48.287147   1.000000
      7        -48.232397   1.000000
      8        -48.231863   1.000000
      9        -24.774156   1.000000
     10        -24.774132   1.000000
     11        -24.771478   1.000000
     12        -24.771464   1.000000
     13        -24.737723   1.000000
     14        -24.720604   1.000000
     15        -24.707358   1.000000
     16        -24.707358   1.000000
     17        -24.706053   1.000000
     18        -24.706053   1.000000
     19        -24.676013   1.000000
     20        -24.676013   1.000000
     21        -24.663687   1.000000
     22        -24.663687   1.000000
     23        -24.621474   1.000000
     24        -24.610861   1.000000
     25        -24.304152   1.000000
     26        -24.304152   1.000000
     27        -24.303588   1.000000
     28        -24.303588   1.000000
     29        -24.262752   1.000000
     30        -24.262710   1.000000
     31        -24.262095   1.000000
     32        -24.262091   1.000000
     33         -0.753694   1.000000
     34          0.704051   1.000000
     35          3.023389   1.000000
     36          3.322382   1.000000
     37          3.322537   1.000000
     38          3.653588   1.000000
     39          3.653765   1.000000
     40          3.753352   1.000000
     41          3.753352   1.000000
     42          5.051156   1.000000
     43          5.328953   1.000000
     44          5.328953   1.000000
     45          5.769435   1.000000
     46          6.001861   1.000000
     47          6.001861   1.000000
     48          6.382966   1.000000
     49          6.589815   1.000000
     50          6.589891   1.000000
     51          7.005176   1.000000
     52          7.005176   1.000000
     53          7.101699   1.000000
     54          7.101823   1.000000
     55          7.414012   1.000000
     56          7.624894   1.000012
     57          7.635296   1.000016
     58          7.750961   1.000417
     59          7.750961   1.000417
     60          7.899014   1.008619
     61          7.899690   1.008711
     62          7.899690   1.008711
     63          8.062243   1.034761
     64          8.062243   1.034761
     65          8.962164  -0.000012
     66          9.282486  -0.000000
     67          9.391565  -0.000000
     68          9.391565  -0.000000
     69          9.567946  -0.000000
     70          9.801335  -0.000000
     71          9.801335  -0.000000
     72          9.843030  -0.000000
     73          9.843030  -0.000000
     74          9.870208  -0.000000
     75          9.870208  -0.000000
     76          9.914147  -0.000000
     77          9.960740  -0.000000
     78          9.960740  -0.000000
     79          9.975988  -0.000000
     80          9.977899  -0.000000
     81         10.013956  -0.000000
     82         10.015097  -0.000000
     83         10.015812  -0.000000
     84         10.015812  -0.000000
     85         10.090259  -0.000000
     86         10.090259  -0.000000
     87         10.105951  -0.000000
     88         10.132119  -0.000000
 
  0.1111111E+00  0.1276756E-14  0.1276756E-14  0.8230453E-02
      1        -48.343337   1.000000
      2        -48.342677   1.000000
      3        -48.289409   1.000000
      4        -48.288893   1.000000
      5        -48.286022   1.000000
      6        -48.285491   1.000000
      7        -48.234089   1.000000
      8        -48.233548   1.000000
      9        -24.772147   1.000000
     10        -24.769507   1.000000
     11        -24.760344   1.000000
     12        -24.757733   1.000000
     13        -24.735877   1.000000
     14        -24.718899   1.000000
     15        -24.709389   1.000000
     16        -24.708048   1.000000
     17        -24.694304   1.000000
     18        -24.692989   1.000000
     19        -24.677898   1.000000
     20        -24.674382   1.000000
     21        -24.665414   1.000000
     22        -24.662109   1.000000
     23        -24.623125   1.000000
     24        -24.612488   1.000000
     25        -24.318727   1.000000
     26        -24.318078   1.000000
     27        -24.302907   1.000000
     28        -24.302335   1.000000
     29        -24.276488   1.000000
     30        -24.275794   1.000000
     31        -24.263984   1.000000
     32        -24.263333   1.000000
     33         -0.693312   1.000000
     34          0.748372   1.000000
     35          2.835657   1.000000
     36          3.090966   1.000000
     37          3.117237   1.000000
     38          3.372150   1.000000
     39          3.688510   1.000000
     40          3.812693   1.000000
     41          4.618250   1.000000
     42          5.001231   1.000000
     43          5.350443   1.000000
     44          5.581034   1.000000
     45          5.802854   1.000000
     46          5.838129   1.000000
     47          5.984965   1.000000
     48          6.432065   1.000000
     49          6.444975   1.000000
     50          6.621952   1.000000
     51          6.622116   1.000000
     52          7.007975   1.000000
     53          7.050140   1.000000
     54          7.092032   1.000000
     55          7.435644   1.000000
     56          7.563006   1.000001
     57          7.667377   1.000043
     58          7.775428   1.000752
     59          7.845851   1.003385
     60          7.850835   1.003723
     61          7.944747   1.016514
     62          8.007883   1.030539
     63          8.127544   0.998209
     64          8.318349   0.399112
     65          8.981582  -0.000007
     66          9.293684  -0.000000
     67          9.387651  -0.000000
     68          9.416788  -0.000000
     69          9.699054  -0.000000
     70          9.729089  -0.000000
     71          9.733318  -0.000000
     72          9.777949  -0.000000
     73          9.790533  -0.000000
     74          9.818518  -0.000000
     75          9.829105  -0.000000
     76          9.846676  -0.000000
     77          9.874328  -0.000000
     78          9.965727  -0.000000
     79          9.971540  -0.000000
     80          9.986500  -0.000000
     81          9.988521  -0.000000
     82         10.016310  -0.000000
     83         10.053210  -0.000000
     84         10.075134  -0.000000
     85         10.086973  -0.000000
     86         10.108486  -0.000000
     87         10.131790  -0.000000
     88         10.140752  -0.000000
 
  0.2222222E+00  0.1276756E-14  0.1276756E-14  0.8230453E-02
      1        -48.338386   1.000000
      2        -48.337735   1.000000
      3        -48.294415   1.000000
      4        -48.293907   1.000000
      5        -48.281243   1.000000
      6        -48.280718   1.000000
      7        -48.238924   1.000000
      8        -48.238374   1.000000
      9        -24.766378   1.000000
     10        -24.763869   1.000000
     11        -24.730546   1.000000
     12        -24.720493   1.000000
     13        -24.718083   1.000000
     14        -24.715236   1.000000
     15        -24.713981   1.000000
     16        -24.713757   1.000000
     17        -24.683285   1.000000
     18        -24.670376   1.000000
     19        -24.669668   1.000000
     20        -24.657541   1.000000
     21        -24.656535   1.000000
     22        -24.655281   1.000000
     23        -24.627897   1.000000
     24        -24.617083   1.000000
     25        -24.360527   1.000000
     26        -24.359703   1.000000
     27        -24.315964   1.000000
     28        -24.315217   1.000000
     29        -24.299331   1.000000
     30        -24.298740   1.000000
     31        -24.267591   1.000000
     32        -24.266953   1.000000
     33         -0.513174   1.000000
     34          0.880663   1.000000
     35          2.040160   1.000000
     36          2.682876   1.000000
     37          3.290506   1.000000
     38          3.520230   1.000000
     39          3.790908   1.000000
     40          3.988763   1.000000
     41          4.859466   1.000000
     42          5.412402   1.000000
     43          5.443492   1.000000
     44          5.534577   1.000000
     45          5.800353   1.000000
     46          5.900616   1.000000
     47          5.934190   1.000000
     48          6.151768   1.000000
     49          6.339184   1.000000
     50          6.571723   1.000000
     51          6.715954   1.000000
     52          6.716934   1.000000
     53          6.908314   1.000000
     54          7.346393   1.000000
     55          7.488115   1.000000
     56          7.701696   1.000115
     57          7.714307   1.000162
     58          7.756864   1.000482
     59          7.857668   1.004232
     60          7.860649   1.004471
     61          7.912896   1.010668
     62          8.077915   1.031678
     63          8.315326   0.411637
     64          8.815322  -0.000715
     65          9.037454  -0.000001
     66          9.332587  -0.000000
     67          9.343235  -0.000000
     68          9.347365  -0.000000
     69          9.376154  -0.000000
     70          9.492579  -0.000000
     71          9.568375  -0.000000
     72          9.589466  -0.000000
     73          9.854228  -0.000000
     74          9.855204  -0.000000
     75          9.886500  -0.000000
     76          9.905452  -0.000000
     77          9.907350  -0.000000
     78          9.971282  -0.000000
     79         10.003042  -0.000000
     80         10.016394  -0.000000
     81         10.021239  -0.000000
     82         10.038763  -0.000000
     83         10.078366  -0.000000
     84         10.079998  -0.000000
     85         10.110562  -0.000000
     86         10.131822  -0.000000
     87         10.161663  -0.000000
     88         10.163136  -0.000000
 
  0.3333333E+00  0.1276756E-14  0.1276756E-14  0.8230453E-02
      1        -48.330794   1.000000
      2        -48.330157   1.000000
      3        -48.302085   1.000000
      4        -48.301553   1.000000
      5        -48.273926   1.000000
      6        -48.273380   1.000000
      7        -48.246308   1.000000
      8        -48.245773   1.000000
      9        -24.757529   1.000000
     10        -24.755202   1.000000
     11        -24.724155   1.000000
     12        -24.722495   1.000000
     13        -24.722369   1.000000
     14        -24.706458   1.000000
     15        -24.691532   1.000000
     16        -24.677988   1.000000
     17        -24.662440   1.000000
     18        -24.659084   1.000000
     19        -24.656935   1.000000
     20        -24.650541   1.000000
     21        -24.635178   1.000000
     22        -24.624128   1.000000
     23        -24.598353   1.000000
     24        -24.597192   1.000000
     25        -24.424179   1.000000
     26        -24.423035   1.000000
     27        -24.376080   1.000000
     28        -24.375237   1.000000
     29        -24.293839   1.000000
     30        -24.293228   1.000000
     31        -24.273114   1.000000
     32        -24.272497   1.000000
     33         -0.216136   1.000000
     34          1.098817   1.000000
     35          1.328472   1.000000
     36          2.211077   1.000000
     37          3.613292   1.000000
     38          3.763471   1.000000
     39          3.954156   1.000000
     40          4.275967   1.000000
     41          4.649885   1.000000
     42          4.968699   1.000000
     43          5.163290   1.000000
     44          5.507290   1.000000
     45          5.711629   1.000000
     46          5.851192   1.000000
     47          6.055154   1.000000
     48          6.371985   1.000000
     49          6.706722   1.000000
     50          6.779124   1.000000
     51          6.837100   1.000000
     52          6.864861   1.000000
     53          6.868187   1.000000
     54          7.500357   1.000000
     55          7.515922   1.000000
     56          7.526869   1.000000
     57          7.643897   1.000021
     58          7.748310   1.000390
     59          7.883275   1.006661
     60          8.025640   1.033622
     61          8.082493   1.030224
     62          8.292217   0.508877
     63          8.596785  -0.027097
     64          8.835698  -0.000437
     65          8.962591  -0.000012
     66          9.100648  -0.000000
     67          9.121511  -0.000000
     68          9.253131  -0.000000
     69          9.266762  -0.000000
     70          9.351442  -0.000000
     71          9.404085  -0.000000
     72          9.619809  -0.000000
     73          9.784712  -0.000000
     74          9.867311  -0.000000
     75          9.881310  -0.000000
     76          9.905230  -0.000000
     77          9.965202  -0.000000
     78         10.019194  -0.000000
     79         10.030037  -0.000000
     80         10.046559  -0.000000
     81         10.052959  -0.000000
     82         10.066671  -0.000000
     83         10.091759  -0.000000
     84         10.107271  -0.000000
     85         10.127943  -0.000000
     86         10.198073  -0.000000
     87         10.218042  -0.000000
     88         10.264387  -0.000000
 
  0.4444444E+00  0.1276756E-14  0.1276756E-14  0.8230453E-02
      1        -48.321442   1.000000
      2        -48.320844   1.000000
      3        -48.311457   1.000000
      4        -48.310908   1.000000
      5        -48.264931   1.000000
      6        -48.264416   1.000000
      7        -48.255347   1.000000
      8        -48.254823   1.000000
      9        -24.746661   1.000000
     10        -24.744569   1.000000
     11        -24.735073   1.000000
     12        -24.733215   1.000000
     13        -24.712339   1.000000
     14        -24.701621   1.000000
     15        -24.697195   1.000000
     16        -24.687288   1.000000
     17        -24.653574   1.000000
     18        -24.644099   1.000000
     19        -24.641928   1.000000
     20        -24.632760   1.000000
     21        -24.583129   1.000000
     22        -24.581341   1.000000
     23        -24.526463   1.000000
     24        -24.525411   1.000000
     25        -24.501562   1.000000
     26        -24.500099   1.000000
     27        -24.449258   1.000000
     28        -24.448329   1.000000
     29        -24.287086   1.000000
     30        -24.286472   1.000000
     31        -24.279879   1.000000
     32        -24.279267   1.000000
     33          0.193528   1.000000
     34          0.710477   1.000000
     35          1.398890   1.000000
     36          1.773943   1.000000
     37          4.045491   1.000000
     38          4.095489   1.000000
     39          4.166019   1.000000
     40          4.407159   1.000000
     41          4.504589   1.000000
     42          4.569395   1.000000
     43          4.666001   1.000000
     44          5.148637   1.000000
     45          5.622789   1.000000
     46          5.742970   1.000000
     47          6.253854   1.000000
     48          6.478853   1.000000
     49          6.970972   1.000000
     50          7.006353   1.000000
     51          7.057070   1.000000
     52          7.064671   1.000000
     53          7.276149   1.000000
     54          7.288873   1.000000
     55          7.431340   1.000000
     56          7.469278   1.000000
     57          7.545425   1.000001
     58          8.012313   1.031400
     59          8.097358   1.023475
     60          8.224683   0.775775
     61          8.257279   0.653774
     62          8.274884   0.581793
     63          8.575085  -0.031631
     64          8.595502  -0.027386
     65          8.799726  -0.001025
     66          8.906049  -0.000067
     67          8.906551  -0.000066
     68          9.120246  -0.000000
     69          9.216842  -0.000000
     70          9.299434  -0.000000
     71          9.510601  -0.000000
     72          9.644090  -0.000000
     73          9.801874  -0.000000
     74          9.880052  -0.000000
     75          9.887117  -0.000000
     76          9.927723  -0.000000
     77          9.948830  -0.000000
     78         10.041063  -0.000000
     79         10.044529  -0.000000
     80         10.053682  -0.000000
     81         10.073548  -0.000000
     82         10.094809  -0.000000
     83         10.106477  -0.000000
     84         10.116994  -0.000000
     85         10.119605  -0.000000
     86         10.137553  -0.000000
     87         10.190172  -0.000000
     88         10.233855  -0.000000
 
  0.1111111E+00  0.1111111E+00  0.1276756E-14  0.8230453E-02
      1        -48.341623   1.000000
      2        -48.340964   1.000000
      3        -48.287757   1.000000
      4        -48.287757   1.000000
      5        -48.287222   1.000000
      6        -48.287222   1.000000
      7        -48.235781   1.000000
      8        -48.235221   1.000000
      9        -24.758385   1.000000
     10        -24.758361   1.000000
     11        -24.755807   1.000000
     12        -24.755793   1.000000
     13        -24.734038   1.000000
     14        -24.717191   1.000000
     15        -24.697117   1.000000
     16        -24.695735   1.000000
     17        -24.695490   1.000000
     18        -24.694188   1.000000
     19        -24.676248   1.000000
     20        -24.676248   1.000000
     21        -24.663833   1.000000
     22        -24.663833   1.000000
     23        -24.624782   1.000000
     24        -24.614091   1.000000
     25        -24.318323   1.000000
     26        -24.317624   1.000000
     27        -24.316588   1.000000
     28        -24.316004   1.000000
     29        -24.277787   1.000000
     30        -24.277747   1.000000
     31        -24.277080   1.000000
     32        -24.277077   1.000000
     33         -0.633097   1.000000
     34          0.792722   1.000000
     35          2.884986   1.000000
     36          2.885083   1.000000
     37          3.158014   1.000000
     38          3.165386   1.000000
     39          3.165487   1.000000
     40          4.662292   1.000000
     41          4.662371   1.000000
     42          4.911759   1.000000
     43          5.588387   1.000000
     44          5.602974   1.000000
     45          5.602991   1.000000
     46          5.832547   1.000000
     47          6.086068   1.000000
     48          6.472510   1.000000
     49          6.472591   1.000000
     50          6.480525   1.000000
     51          6.653659   1.000000
     52          6.653736   1.000000
     53          6.810749   1.000000
     54          7.458364   1.000000
     55          7.578288   1.000003
     56          7.578327   1.000003
     57          7.700388   1.000111
     58          7.787555   1.000994
     59          7.801076   1.001345
     60          7.835700   1.002775
     61          7.957536   1.019254
     62          8.068842   1.033796
     63          8.068844   1.033795
     64          8.528504  -0.034978
     65          9.000779  -0.000004
     66          9.292405  -0.000000
     67          9.407407  -0.000000
     68          9.407428  -0.000000
     69          9.654033  -0.000000
     70          9.741999  -0.000000
     71          9.742905  -0.000000
     72          9.742956  -0.000000
     73          9.792533  -0.000000
     74          9.792597  -0.000000
     75          9.821564  -0.000000
     76          9.842192  -0.000000
     77          9.842289  -0.000000
     78          9.862839  -0.000000
     79          9.904130  -0.000000
     80          9.908946  -0.000000
     81          9.982820  -0.000000
     82          9.983833  -0.000000
     83         10.034831  -0.000000
     84         10.110022  -0.000000
     85         10.143128  -0.000000
     86         10.145200  -0.000000
     87         10.214064  -0.000000
     88         10.226885  -0.000000
 
  0.2222222E+00  0.1111111E+00  0.1276756E-14  0.1646091E-01
      1        -48.336665   1.000000
      2        -48.336027   1.000000
      3        -48.292765   1.000000
      4        -48.292226   1.000000
      5        -48.282984   1.000000
      6        -48.282454   1.000000
      7        -48.240600   1.000000
      8        -48.240067   1.000000
      9        -24.752672   1.000000
     10        -24.750227   1.000000
     11        -24.728722   1.000000
     12        -24.718586   1.000000
     13        -24.716198   1.000000
     14        -24.712285   1.000000
     15        -24.702112   1.000000
     16        -24.700657   1.000000
     17        -24.681615   1.000000
     18        -24.671520   1.000000
     19        -24.668798   1.000000
     20        -24.659251   1.000000
     21        -24.658420   1.000000
     22        -24.657141   1.000000
     23        -24.629577   1.000000
     24        -24.618691   1.000000
     25        -24.359239   1.000000
     26        -24.358414   1.000000
     27        -24.317307   1.000000
     28        -24.316556   1.000000
     29        -24.313742   1.000000
     30        -24.313100   1.000000
     31        -24.281448   1.000000
     32        -24.280764   1.000000
     33         -0.453454   1.000000
     34          0.925102   1.000000
     35          2.092437   1.000000
     36          2.729374   1.000000
     37          3.030618   1.000000
     38          3.308896   1.000000
     39          3.356291   1.000000
     40          4.664656   1.000000
     41          4.792681   1.000000
     42          5.169190   1.000000
     43          5.573495   1.000000
     44          5.666053   1.000000
     45          5.837546   1.000000
     46          5.918361   1.000000
     47          6.121243   1.000000
     48          6.172273   1.000000
     49          6.421947   1.000000
     50          6.513730   1.000000
     51          6.617976   1.000000
     52          6.745952   1.000000
     53          6.746939   1.000000
     54          7.514430   1.000000
     55          7.668167   1.000044
     56          7.676167   1.000056
     57          7.718241   1.000179
     58          7.792657   1.001116
     59          7.858712   1.004315
     60          7.910816   1.010341
     61          7.939219   1.015392
     62          8.075455   1.032348
     63          8.238435   0.726527
     64          8.894517  -0.000093
     65          9.055983  -0.000001
     66          9.315483  -0.000000
     67          9.323739  -0.000000
     68          9.386198  -0.000000
     69          9.420128  -0.000000
     70          9.469310  -0.000000
     71          9.566277  -0.000000
     72          9.571332  -0.000000
     73          9.797993  -0.000000
     74          9.813369  -0.000000
     75          9.853689  -0.000000
     76          9.857810  -0.000000
     77          9.867385  -0.000000
     78          9.870131  -0.000000
     79          9.894371  -0.000000
     80          9.906814  -0.000000
     81          9.973846  -0.000000
     82         10.088084  -0.000000
     83         10.104178  -0.000000
     84         10.114268  -0.000000
     85         10.153150  -0.000000
     86         10.169865  -0.000000
     87         10.229745  -0.000000
     88         10.265139  -0.000000
 
  0.3333333E+00  0.1111111E+00  0.1276756E-14  0.1646091E-01
      1        -48.329085   1.000000
      2        -48.328459   1.000000
      3        -48.300420   1.000000
      4        -48.299870   1.000000
      5        -48.275659   1.000000
      6        -48.275113   1.000000
      7        -48.247986   1.000000
      8        -48.247466   1.000000
      9        -24.743933   1.000000
     10        -24.741647   1.000000
     11        -24.720578   1.000000
     12        -24.710922   1.000000
     13        -24.709311   1.000000
     14        -24.704771   1.000000
     15        -24.689837   1.000000
     16        -24.676371   1.000000
     17        -24.664260   1.000000
     18        -24.657282   1.000000
     19        -24.655154   1.000000
     20        -24.652235   1.000000
     21        -24.636897   1.000000
     22        -24.625752   1.000000
     23        -24.600158   1.000000
     24        -24.598978   1.000000
     25        -24.422772   1.000000
     26        -24.421644   1.000000
     27        -24.377532   1.000000
     28        -24.376666   1.000000
     29        -24.308158   1.000000
     30        -24.307508   1.000000
     31        -24.287069   1.000000
     32        -24.286390   1.000000
     33         -0.157202   1.000000
     34          1.143413   1.000000
     35          1.383001   1.000000
     36          2.256695   1.000000
     37          3.264675   1.000000
     38          3.544245   1.000000
     39          3.676592   1.000000
     40          4.317056   1.000000
     41          4.705640   1.000000
     42          5.003630   1.000000
     43          5.209748   1.000000
     44          5.761825   1.000000
     45          6.012286   1.000000
     46          6.050268   1.000000
     47          6.079518   1.000000
     48          6.404413   1.000000
     49          6.485500   1.000000
     50          6.820817   1.000000
     51          6.853319   1.000000
     52          6.891363   1.000000
     53          6.895496   1.000000
     54          7.494864   1.000000
     55          7.528088   1.000000
     56          7.559679   1.000001
     57          7.693644   1.000092
     58          7.917646   1.011440
     59          7.923410   1.012425
     60          8.010397   1.031034
     61          8.122657   1.003494
     62          8.286531   0.532910
     63          8.451710   0.013360
     64          8.827638  -0.000533
     65          9.119874  -0.000000
     66          9.138755  -0.000000
     67          9.150964  -0.000000
     68          9.248104  -0.000000
     69          9.262931  -0.000000
     70          9.358378  -0.000000
     71          9.379269  -0.000000
     72          9.576538  -0.000000
     73          9.766358  -0.000000
     74          9.805530  -0.000000
     75          9.815147  -0.000000
     76          9.832529  -0.000000
     77          9.882638  -0.000000
     78          9.897191  -0.000000
     79          9.958251  -0.000000
     80          9.980655  -0.000000
     81         10.001993  -0.000000
     82         10.113757  -0.000000
     83         10.129326  -0.000000
     84         10.165417  -0.000000
     85         10.204296  -0.000000
     86         10.214570  -0.000000
     87         10.237327  -0.000000
     88         10.282313  -0.000000
 
  0.4444444E+00  0.1111111E+00  0.1276756E-14  0.1646091E-01
      1        -48.319751   1.000000
      2        -48.319154   1.000000
      3        -48.309780   1.000000
      4        -48.309231   1.000000
      5        -48.266643   1.000000
      6        -48.266125   1.000000
      7        -48.257044   1.000000
      8        -48.256521   1.000000
      9        -24.733176   1.000000
     10        -24.731117   1.000000
     11        -24.721719   1.000000
     12        -24.719882   1.000000
     13        -24.710571   1.000000
     14        -24.699897   1.000000
     15        -24.695528   1.000000
     16        -24.685651   1.000000
     17        -24.655349   1.000000
     18        -24.645849   1.000000
     19        -24.643603   1.000000
     20        -24.634418   1.000000
     21        -24.581457   1.000000
     22        -24.579679   1.000000
     23        -24.528140   1.000000
     24        -24.527065   1.000000
     25        -24.500028   1.000000
     26        -24.498563   1.000000
     27        -24.450821   1.000000
     28        -24.449884   1.000000
     29        -24.301286   1.000000
     30        -24.300625   1.000000
     31        -24.293949   1.000000
     32        -24.293293   1.000000
     33          0.251315   1.000000
     34          0.766805   1.000000
     35          1.443713   1.000000
     36          1.819075   1.000000
     37          3.573641   1.000000
     38          3.864782   1.000000
     39          3.935879   1.000000
     40          4.104966   1.000000
     41          4.258770   1.000000
     42          4.623308   1.000000
     43          5.285961   1.000000
     44          5.627219   1.000000
     45          5.876117   1.000000
     46          5.989600   1.000000
     47          6.210244   1.000000
     48          6.369627   1.000000
     49          6.993165   1.000000
     50          7.037967   1.000000
     51          7.077339   1.000000
     52          7.088129   1.000000
     53          7.286139   1.000000
     54          7.307285   1.000000
     55          7.486672   1.000000
     56          7.513691   1.000000
     57          7.555171   1.000001
     58          8.057092   1.035216
     59          8.143765   0.976952
     60          8.226346   0.770016
     61          8.233851   0.743344
     62          8.332552   0.341439
     63          8.463265  -0.000627
     64          8.568447  -0.032789
     65          8.822952  -0.000596
     66          8.899669  -0.000080
     67          9.059705  -0.000000
     68          9.187247  -0.000000
     69          9.231812  -0.000000
     70          9.310198  -0.000000
     71          9.484574  -0.000000
     72          9.620537  -0.000000
     73          9.714357  -0.000000
     74          9.800530  -0.000000
     75          9.813377  -0.000000
     76          9.820484  -0.000000
     77          9.909138  -0.000000
     78          9.935908  -0.000000
     79          9.937070  -0.000000
     80         10.064859  -0.000000
     81         10.082967  -0.000000
     82         10.101378  -0.000000
     83         10.114764  -0.000000
     84         10.172245  -0.000000
     85         10.179502  -0.000000
     86         10.196237  -0.000000