       N       E                     dE             d eps       ncg     rms          rms(c)
DAV:   1     0.119314107669E+04    0.11931E+04   -0.60841E+04 10560   0.146E+03
DAV:   2     0.171766875424E+03   -0.10214E+04   -0.10151E+04 10560   0.400E+02
DAV:   3     0.729414809844E+02   -0.98825E+02   -0.98245E+02 21120   0.104E+02
DAV:   4     0.686526989865E+02   -0.42888E+01   -0.42833E+01 11660   0.212E+01
DAV:   5     0.683811254077E+02   -0.27157E+00   -0.27154E+00 18480   0.424E+00    0.287E+01
DAV:   6     0.112368647675E+03    0.43988E+02   -0.94549E+01 16456   0.356E+01    0.999E+00
DAV:   7     0.124618812133E+03    0.12250E+02   -0.11747E+01 15268   0.104E+01    0.640E+00
DAV:   8     0.101189247828E+03   -0.23430E+02   -0.31605E+02 21120   0.732E+00    0.778E+01
DAV:   9     0.113745697591E+03    0.12556E+02   -0.34948E+01 15972   0.777E+00    0.570E+01
DAV:  10     0.113357682288E+03   -0.38802E+00   -0.23352E+00 17952   0.193E+00    0.558E+01
DAV:  11     0.107205847912E+03   -0.61518E+01   -0.67661E+00 18480   0.130E+00    0.674E+01
DAV:  12     0.918210869673E+02   -0.15385E+02   -0.22973E+01 19668   0.303E+00    0.892E+01
DAV:  13     0.795342421000E+02   -0.12287E+02   -0.82453E+00 19976   0.200E+00    0.102E+02
DAV:  14     0.738524105787E+02   -0.56818E+01   -0.15419E+00 18568   0.119E+00    0.106E+02
DAV:  15     0.506670661702E+02   -0.23185E+02   -0.13230E+01 20064   0.302E+00    0.122E+02
DAV:  16    -0.138342753363E+02   -0.64501E+02   -0.33248E+01 20020   0.538E+00    0.145E+02
DAV:  17     0.752721950725E+01    0.21361E+02   -0.64102E+00 15136   0.267E+00    0.139E+02
DAV:  18     0.703443309269E+02    0.62817E+02   -0.51332E+01 19668   0.564E+00    0.112E+02
DAV:  19     0.774976377978E+02    0.71533E+01   -0.90493E+00 18744   0.237E+00    0.105E+02
DAV:  20     0.549367233604E+02   -0.22561E+02   -0.76450E+00 17644   0.275E+00    0.119E+02
DAV:  21     0.137549851556E+02   -0.41182E+02   -0.10540E+01 19184   0.379E+00    0.137E+02
DAV:  22    -0.117812187523E+02   -0.25536E+02   -0.51446E+00 19228   0.286E+00    0.145E+02
DAV:  23    -0.552238423290E+02   -0.43443E+02   -0.90252E+00 17072   0.441E+00    0.158E+02
DAV:  24    -0.556329465465E+02   -0.40910E+00   -0.37225E-01 19228   0.102E+00    0.159E+02
DAV:  25    -0.222733714822E+02    0.33360E+02   -0.64166E+00 15884   0.249E+00    0.150E+02
DAV:  26     0.295986167087E+02    0.51872E+02   -0.19095E+01 19712   0.514E+00    0.135E+02
DAV:  27     0.300800569465E+02    0.48144E+00   -0.21629E+00 14564   0.414E+00    0.136E+02
DAV:  28     0.428291916702E+02    0.12749E+02   -0.14260E+00 16236   0.278E+00    0.132E+02
DAV:  29     0.134136222593E+03    0.91307E+02   -0.33093E+02 21032   0.125E+01    0.496E+01
DAV:  30     0.130746336553E+03   -0.33899E+01   -0.17633E+02 17292   0.144E+01    0.192E+01
DAV:  31     0.114769100595E+03   -0.15977E+02   -0.18429E+02 16896   0.196E+01    0.554E+01
DAV:  32     0.126055766145E+03    0.11287E+02   -0.79954E+01 15708   0.116E+01    0.197E+01
DAV:  33     0.118335702498E+03   -0.77201E+01   -0.36776E+01 17732   0.513E+00    0.442E+01
DAV:  34     0.123580583684E+03    0.52449E+01   -0.88032E+00 16236   0.294E+00    0.329E+01
DAV:  35     0.122187535587E+03   -0.13930E+01   -0.84916E-01 18260   0.125E+00    0.347E+01
DAV:  36     0.124164054205E+03    0.19765E+01   -0.24716E+00 20240   0.869E-01    0.274E+01
DAV:  37     0.123125463142E+03   -0.10386E+01   -0.79399E-01 18172   0.750E-01    0.297E+01
DAV:  38     0.123080803552E+03   -0.44660E-01   -0.52159E-01 16192   0.538E-01    0.296E+01
DAV:  39     0.123478779969E+03    0.39798E+00   -0.30426E-01 15004   0.626E-01    0.289E+01
DAV:  40     0.123636414125E+03    0.15763E+00   -0.21696E-01 18128   0.438E-01    0.285E+01
DAV:  41     0.123477948057E+03   -0.15847E+00   -0.13023E-01 17776   0.377E-01    0.289E+01
DAV:  42     0.122120931945E+03   -0.13570E+01   -0.15230E+00 17336   0.150E+00    0.338E+01
DAV:  43     0.122972862741E+03    0.85193E+00   -0.80054E-01 15312   0.128E+00    0.306E+01
DAV:  44     0.123527984910E+03    0.55512E+00   -0.46118E-01 18656   0.983E-01    0.277E+01
DAV:  45     0.123170961739E+03   -0.35702E+00   -0.64987E-01 15224   0.201E+00    0.293E+01
DAV:  46     0.125453994222E+03    0.22830E+01   -0.50238E+00 17644   0.133E+00    0.184E+01
DAV:  47     0.127028595603E+03    0.15746E+01   -0.30513E+00 18216   0.221E+00    0.141E+01
DAV:  48     0.127353561802E+03    0.32497E+00   -0.12329E+00 17908   0.154E+00    0.125E+01
DAV:  49     0.127423049913E+03    0.69488E-01   -0.49012E-01 15356   0.134E+00    0.123E+01
DAV:  50     0.128089356393E+03    0.66631E+00   -0.96433E-01 15928   0.211E+00    0.113E+01
DAV:  51     0.128800251101E+03    0.71089E+00   -0.15016E+00 17028   0.173E+00    0.838E+00
DAV:  52     0.129286042623E+03    0.48579E+00   -0.12887E+00 21076   0.897E-01    0.580E+00
DAV:  53     0.129633525134E+03    0.34748E+00   -0.76357E-01 15400   0.168E+00    0.513E+00
DAV:  54     0.129758965362E+03    0.12544E+00   -0.41921E-01 18524   0.813E-01    0.423E+00
DAV:  55     0.129973835996E+03    0.21487E+00   -0.68564E-01 20812   0.715E-01    0.283E+00
DAV:  56     0.130067188393E+03    0.93352E-01   -0.23816E-01 20548   0.553E-01    0.229E+00
DAV:  57     0.130112407120E+03    0.45219E-01   -0.85552E-02 15576   0.604E-01    0.224E+00
DAV:  58     0.130189936987E+03    0.77530E-01   -0.14481E-01 16280   0.661E-01    0.213E+00
DAV:  59     0.130219468203E+03    0.29531E-01   -0.49079E-02 20856   0.274E-01    0.190E+00
DAV:  60     0.130247565671E+03    0.28097E-01   -0.37014E-02 20592   0.182E-01    0.178E+00
DAV:  61     0.130261708457E+03    0.14143E-01   -0.14422E-02 18568   0.171E-01    0.172E+00
DAV:  62     0.130264814603E+03    0.31061E-02   -0.36972E-03 20328   0.681E-02    0.169E+00
DAV:  63     0.130269369258E+03    0.45547E-02   -0.24641E-03 19228   0.548E-02    0.162E+00
DAV:  64     0.130268939278E+03   -0.42998E-03   -0.14817E-03 15532   0.979E-02    0.149E+00
DAV:  65     0.130269482463E+03    0.54318E-03   -0.22132E-04 18568   0.335E-02    0.142E+00
DAV:  66     0.130280669720E+03    0.11187E-01   -0.13826E-02 15444   0.317E-01    0.862E-01
DAV:  67     0.130274077326E+03   -0.65924E-02   -0.59479E-03 15972   0.181E-01    0.993E-01
DAV:  68     0.130274276427E+03    0.19910E-03   -0.68570E-04 15752   0.781E-02    0.943E-01
DAV:  69     0.130288731444E+03    0.14455E-01   -0.15117E-02 20328   0.143E-01    0.671E-01
DAV:  70     0.130300358560E+03    0.11627E-01   -0.16464E-02 20680   0.136E-01    0.478E-01
DAV:  71     0.130305831350E+03    0.54728E-02   -0.68909E-03 15224   0.163E-01    0.447E-01
DAV:  72     0.130307326096E+03    0.14947E-02   -0.15226E-03 20856   0.561E-02    0.396E-01
DAV:  73     0.130308431277E+03    0.11052E-02   -0.60669E-04 20504   0.296E-02    0.365E-01
DAV:  74     0.130309937802E+03    0.15065E-02   -0.78773E-04 19888   0.221E-02    0.331E-01
DAV:  75     0.130311103682E+03    0.11659E-02   -0.45836E-04 20152   0.196E-02    0.309E-01
DAV:  76     0.130312932438E+03    0.18288E-02   -0.15246E-03 20020   0.298E-02    0.254E-01
DAV:  77     0.130314880133E+03    0.19477E-02   -0.22949E-03 17996   0.315E-02    0.197E-01
DAV:  78     0.130316602127E+03    0.17220E-02   -0.37621E-03 18612   0.425E-02    0.124E-01
DAV:  79     0.130317504988E+03    0.90286E-03   -0.71107E-03 18436   0.559E-02    0.769E-02
DAV:  80     0.130317411438E+03   -0.93550E-04   -0.12346E-03 20636   0.317E-02    0.941E-02
DAV:  81     0.130316145592E+03   -0.12658E-02   -0.55178E-03 18480   0.508E-02    0.166E-01
DAV:  82     0.130315798312E+03   -0.34728E-03   -0.25970E-04 19712   0.187E-02    0.182E-01
DAV:  83     0.130315829188E+03    0.30876E-04   -0.40029E-05 17248   0.915E-03    0.179E-01
DAV:  84     0.130316394620E+03    0.56543E-03   -0.28898E-04 20372   0.153E-02    0.154E-01
DAV:  85     0.130316998780E+03    0.60416E-03   -0.51480E-04 18920   0.168E-02    0.124E-01
DAV:  86     0.130317708572E+03    0.70979E-03   -0.13869E-03 18392   0.245E-02    0.782E-02
DAV:  87     0.130317940556E+03    0.23198E-03   -0.42475E-04 20636   0.171E-02    0.488E-02
DAV:  88     0.130318061150E+03    0.12059E-03   -0.39112E-04 19580   0.145E-02    0.239E-02
DAV:  89     0.130318089798E+03    0.28648E-04   -0.15665E-04 20812   0.114E-02    0.549E-03
DAV:  90     0.130318090648E+03    0.84981E-06   -0.22763E-05 15092   0.495E-03    0.193E-03
DAV:  91     0.130318090524E+03   -0.12325E-06   -0.38901E-06 12980   0.338E-03
   1 F= 0.13031809E+03 E0= 0.13031658E+03  d E =0.452285E-02
 Found     6 degrees of freedom:
 Adding 6 more for cell shape distortion
       N       E                     dE             d eps       ncg     rms          rms(c)
DAV:   1     0.130182385025E+03   -0.13571E+00   -0.13883E+01 17688   0.219E+01    0.521E+00
DAV:   2     0.130469462352E+03    0.28708E+00   -0.46042E+00 27544   0.820E+00    0.224E+00
DAV:   3     0.130522392474E+03    0.52930E-01   -0.30391E+00 27368   0.276E+00    0.186E+00
DAV:   4     0.130620018218E+03    0.97626E-01   -0.10700E+00 28908   0.230E+00    0.669E-01
DAV:   5     0.130617123889E+03   -0.28943E-02   -0.99146E-02 23012   0.880E-01    0.320E-01
DAV:   6     0.130614812349E+03   -0.23115E-02   -0.40837E-02 30272   0.304E-01    0.279E-01
DAV:   7     0.130613962177E+03   -0.85017E-03   -0.24921E-03 26884   0.133E-01    0.159E-01
DAV:   8     0.130614652239E+03    0.69006E-03   -0.78609E-03 33660   0.122E-01    0.891E-02
DAV:   9     0.130614692850E+03    0.40611E-04   -0.57990E-04 23892   0.649E-02    0.151E-02
DAV:  10     0.130614694082E+03    0.12311E-05   -0.52364E-05 31988   0.204E-02    0.316E-03
DAV:  11     0.130614691631E+03   -0.24509E-05   -0.24139E-05 30844   0.635E-03    0.629E-03
DAV:  12     0.130614694688E+03    0.30571E-05   -0.20835E-05 24332   0.549E-03    0.468E-04
DAV:  13     0.130614694669E+03   -0.18952E-07   -0.73241E-07 20240   0.188E-03
   2 F= 0.13061469E+03 E0= 0.13061385E+03  d E =0.254711E-02
       N       E                     dE             d eps       ncg     rms          rms(c)
DAV:   1     0.128301167589E+03   -0.23135E+01   -0.49104E+01 21956   0.404E+01    0.106E+01
DAV:   2     0.129481953638E+03    0.11808E+01   -0.17872E+01 27368   0.156E+01    0.428E+00
DAV:   3     0.129950709544E+03    0.46876E+00   -0.69751E+00 27016   0.526E+00    0.306E+00
DAV:   4     0.130050069464E+03    0.99360E-01   -0.38909E+00 31680   0.439E+00    0.167E+00
DAV:   5     0.130106577439E+03    0.56508E-01   -0.42201E-01 24464   0.152E+00    0.732E-01
DAV:   6     0.130031232317E+03   -0.75345E-01   -0.87569E-01 34232   0.101E+00    0.983E-01
DAV:   7     0.130062766230E+03    0.31534E-01   -0.56901E-02 28028   0.402E-01    0.718E-01
DAV:   8     0.130084576517E+03    0.21810E-01   -0.22031E-01 34716   0.408E-01    0.388E-01
DAV:   9     0.130088443643E+03    0.38671E-02   -0.23070E-02 26356   0.419E-01    0.891E-02
DAV:  10     0.130088096784E+03   -0.34686E-03   -0.96800E-03 34672   0.111E-01    0.961E-02
DAV:  11     0.130088361828E+03    0.26504E-03   -0.65824E-04 26444   0.455E-02    0.574E-02
DAV:  12     0.130088449397E+03    0.87570E-04   -0.14874E-03 34408   0.388E-02    0.732E-03
DAV:  13     0.130088449138E+03   -0.25893E-06   -0.24391E-05 27984   0.103E-02    0.436E-03
DAV:  14     0.130088449872E+03    0.73337E-06   -0.11917E-05 23716   0.367E-03    0.688E-04
DAV:  15     0.130088449910E+03    0.38559E-07   -0.36952E-07 18744   0.138E-03
   3 F= 0.13008845E+03 E0= 0.13008650E+03  d E =0.585518E-02
       N       E                     dE             d eps       ncg     rms          rms(c)
DAV:   1     0.129172791522E+03   -0.91566E+00   -0.43394E+01 24992   0.385E+01    0.104E+01
DAV:   2     0.129904280340E+03    0.73149E+00   -0.22985E+01 28116   0.168E+01    0.511E+00
DAV:   3     0.130163424528E+03    0.25914E+00   -0.21944E+01 27544   0.702E+00    0.349E+00
DAV:   4     0.130654911255E+03    0.49149E+00   -0.26695E+00 29700   0.402E+00    0.949E-01
DAV:   5     0.130391377107E+03   -0.26353E+00   -0.36225E+00 35200   0.210E+00    0.253E+00
DAV:   6     0.130638314186E+03    0.24694E+00   -0.27216E+00 34628   0.142E+00    0.568E-01
DAV:   7     0.130612586028E+03   -0.25728E-01   -0.18859E-01 29172   0.841E-01    0.324E-01
DAV:   8     0.130612429899E+03   -0.15613E-03   -0.28308E-02 27104   0.435E-01    0.189E-01
DAV:   9     0.130607976581E+03   -0.44533E-02   -0.15450E-02 28776   0.216E-01    0.359E-01
DAV:  10     0.130614589758E+03    0.66132E-02   -0.26183E-02 28556   0.167E-01    0.963E-02
DAV:  11     0.130614710519E+03    0.12076E-03   -0.47168E-03 34100   0.785E-02    0.418E-02
DAV:  12     0.130614710632E+03    0.11279E-06   -0.11790E-03 32868   0.405E-02    0.744E-03
DAV:  13     0.130614692468E+03   -0.18163E-04   -0.12992E-04 26136   0.155E-02    0.824E-03
DAV:  14     0.130614694904E+03    0.24362E-05   -0.43548E-05 27016   0.706E-03    0.273E-03
DAV:  15     0.130614694292E+03   -0.61290E-06   -0.56921E-06 20944   0.373E-03
   4 F= 0.13061469E+03 E0= 0.13061385E+03  d E =0.254527E-02
       N       E                     dE             d eps       ncg     rms          rms(c)
DAV:   1     0.128299384297E+03   -0.23153E+01   -0.49587E+01 22000   0.405E+01    0.107E+01
DAV:   2     0.129467786727E+03    0.11684E+01   -0.18033E+01 27500   0.155E+01    0.430E+00
DAV:   3     0.129946032521E+03    0.47825E+00   -0.72504E+00 27104   0.527E+00    0.311E+00
DAV:   4     0.130050682491E+03    0.10465E+00   -0.40172E+00 31724   0.444E+00    0.167E+00
DAV:   5     0.130107077011E+03    0.56395E-01   -0.43061E-01 24508   0.153E+00    0.719E-01
DAV:   6     0.130025497968E+03   -0.81579E-01   -0.92597E-01 34056   0.104E+00    0.103E+00
DAV:   7     0.130058373765E+03    0.32876E-01   -0.59143E-02 29348   0.401E-01    0.758E-01
DAV:   8     0.130083467333E+03    0.25094E-01   -0.20985E-01 34716   0.397E-01    0.390E-01
DAV:   9     0.130088461662E+03    0.49943E-02   -0.27770E-02 26796   0.434E-01    0.930E-02
DAV:  10     0.130088214202E+03   -0.24746E-03   -0.10938E-02 34760   0.116E-01    0.905E-02
DAV:  11     0.130088315254E+03    0.10105E-03   -0.51202E-04 25256   0.549E-02    0.615E-02
DAV:  12     0.130088446855E+03    0.13160E-03   -0.75928E-04 31460   0.311E-02    0.161E-02
DAV:  13     0.130088450605E+03    0.37494E-05   -0.10263E-04 32340   0.138E-02    0.310E-03
DAV:  14     0.130088449848E+03   -0.75717E-06   -0.11523E-05 22308   0.552E-03    0.161E-03
DAV:  15     0.130088449897E+03    0.49189E-07   -0.77445E-07 20812   0.148E-03
   5 F= 0.13008845E+03 E0= 0.13008650E+03  d E =0.585232E-02
       N       E                     dE             d eps       ncg     rms          rms(c)
DAV:   1     0.128825982647E+03   -0.12625E+01   -0.42409E+01 18480   0.364E+01    0.118E+01
DAV:   2     0.129072859973E+03    0.24688E+00   -0.41423E+01 16456   0.188E+01    0.851E+00
DAV:   3     0.129586316193E+03    0.51346E+00   -0.67617E+01 16632   0.108E+01    0.428E+00
DAV:   4     0.130424407279E+03    0.83809E+00   -0.26655E+00 16280   0.420E+00    0.190E+00
DAV:   5     0.130371189990E+03   -0.53217E-01   -0.79090E+00 21076   0.224E+00    0.305E+00
DAV:   6     0.130515058142E+03    0.14387E+00   -0.38816E-01 16720   0.824E-01    0.209E+00
DAV:   7     0.130612903188E+03    0.97845E-01   -0.12069E+00 20856   0.865E-01    0.427E-01
DAV:   8     0.130614824608E+03    0.19214E-02   -0.67384E-02 19536   0.406E-01    0.215E-01
DAV:   9     0.130608438396E+03   -0.63862E-02   -0.22600E-02 17424   0.252E-01    0.179E-01
DAV:  10     0.130610034810E+03    0.15964E-02   -0.78004E-03 16016   0.114E-01    0.546E-02
DAV:  11     0.130609641187E+03   -0.39362E-03   -0.32469E-03 20680   0.613E-02    0.309E-02
DAV:  12     0.130609440384E+03   -0.20080E-03   -0.41883E-04 15268   0.407E-02    0.389E-02
DAV:  13     0.130609563795E+03    0.12341E-03   -0.37096E-04 21076   0.178E-02    0.117E-02
DAV:  14     0.130609551092E+03   -0.12703E-04   -0.21394E-05 14916   0.720E-03    0.813E-03
DAV:  15     0.130609555678E+03    0.45859E-05   -0.21889E-05 15620   0.361E-03    0.278E-03
DAV:  16     0.130609556147E+03    0.46915E-06   -0.52223E-06 12276   0.276E-03
   6 F= 0.13060956E+03 E0= 0.13060783E+03  d E =0.518104E-02
       N       E                     dE             d eps       ncg     rms          rms(c)
DAV:   1     0.128095034823E+03   -0.25145E+01   -0.56760E+01 11088   0.431E+01    0.112E+01
DAV:   2     0.129021341814E+03    0.92631E+00   -0.32891E+01 16632   0.178E+01    0.520E+00
DAV:   3     0.130051283639E+03    0.10299E+01   -0.90507E+00 16104   0.683E+00    0.277E+00
DAV:   4     0.130091597013E+03    0.40313E-01   -0.15829E+00 17028   0.417E+00    0.122E+00
DAV:   5     0.130084075027E+03   -0.75220E-02   -0.16427E-01 16632   0.936E-01    0.119E+00
DAV:   6     0.130084210324E+03    0.13530E-03   -0.13441E-02 18612   0.203E-01    0.120E+00
DAV:   7     0.130086124524E+03    0.19142E-02   -0.20883E-03 17160   0.788E-02    0.118E+00
DAV:   8     0.129987186848E+03   -0.98938E-01   -0.36249E-01 20636   0.521E-01    0.177E+00
DAV:   9     0.129987466595E+03    0.27975E-03   -0.39399E-03 14916   0.141E-01    0.176E+00
DAV:  10     0.130086239204E+03    0.98773E-01   -0.10285E+00 20108   0.736E-01    0.133E+00
DAV:  11     0.129949433915E+03   -0.13681E+00   -0.11148E+00 19272   0.148E+00    0.160E+00
DAV:  12     0.129859451324E+03   -0.89983E-01   -0.88656E-02 20284   0.483E-01    0.170E+00
DAV:  13     0.129861099954E+03    0.16486E-02   -0.27981E-03 15664   0.959E-02    0.170E+00
DAV:  14     0.129870950676E+03    0.98507E-02   -0.74428E-04 16588   0.671E-02    0.172E+00
DAV:  15     0.129990193370E+03    0.11924E+00   -0.13387E-01 19668   0.547E-01    0.113E+00
DAV:  16     0.130075059358E+03    0.84866E-01   -0.28461E-01 19272   0.486E-01    0.583E-01
DAV:  17     0.130081091855E+03    0.60325E-02   -0.10725E-02 18436   0.155E-01    0.445E-01
DAV:  18     0.130085003373E+03    0.39115E-02   -0.63137E-02 20020   0.182E-01    0.256E-01
DAV:  19     0.130085476985E+03    0.47361E-03   -0.65810E-03 13816   0.194E-01    0.134E-01
DAV:  20     0.130085795954E+03    0.31897E-03   -0.15360E-03 17952   0.116E-01    0.131E-01
DAV:  21     0.130086199874E+03    0.40392E-03   -0.28081E-04 15576   0.287E-02    0.117E-01
DAV:  22     0.130086583625E+03    0.38375E-03   -0.52809E-04 19800   0.418E-02    0.982E-02
DAV:  23     0.130086608185E+03    0.24560E-04   -0.28707E-05 17644   0.116E-02    0.922E-02
DAV:  24     0.130086926572E+03    0.31839E-03   -0.62182E-04 20416   0.265E-02    0.631E-02
DAV:  25     0.130087042923E+03    0.11635E-03   -0.20241E-04 20416   0.143E-02    0.436E-02
DAV:  26     0.130087053518E+03    0.10595E-04   -0.15002E-05 12760   0.552E-03    0.391E-02
DAV:  27     0.130087098301E+03    0.44784E-04   -0.88524E-05 19448   0.815E-03    0.265E-02
DAV:  28     0.130087111112E+03    0.12810E-04   -0.14002E-05 13112   0.438E-03    0.203E-02
DAV:  29     0.130087118133E+03    0.70211E-05   -0.10090E-05 15752   0.421E-03    0.155E-02
DAV:  30     0.130087126773E+03    0.86401E-05   -0.30206E-05 17512   0.579E-03    0.692E-03
DAV:  31     0.130087128050E+03    0.12773E-05   -0.44442E-06 13772   0.269E-03    0.392E-03
DAV:  32     0.130087128284E+03    0.23352E-06   -0.10068E-06 13068   0.156E-03
   7 F= 0.13008713E+03 E0= 0.13008578E+03  d E =0.405069E-02
       N       E                     dE             d eps       ncg     rms          rms(c)
DAV:   1     0.129780008083E+03   -0.30712E+00   -0.18491E+01 28952   0.251E+01    0.581E+00
DAV:   2     0.130067083215E+03    0.28708E+00   -0.73817E+00 44176   0.933E+00    0.301E+00
DAV:   3     0.130171504522E+03    0.10442E+00   -0.62501E+00 45100   0.381E+00    0.233E+00
DAV:   4     0.130334267920E+03    0.16276E+00   -0.15514E+00 48576   0.288E+00    0.861E-01
DAV:   5     0.130317231857E+03   -0.17036E-01   -0.31364E-01 47432   0.134E+00    0.514E-01
DAV:   6     0.130322292687E+03    0.50608E-02   -0.23610E-01 52800   0.824E-01    0.564E-01
DAV:   7     0.130314126730E+03   -0.81660E-02   -0.59028E-02 46376   0.553E-01    0.375E-01
DAV:   8     0.130326303160E+03    0.12176E-01   -0.63421E-02 57068   0.237E-01    0.620E-02
DAV:   9     0.130326257637E+03   -0.45523E-04   -0.24300E-03 47608   0.855E-02    0.211E-02
DAV:  10     0.130326180108E+03   -0.77529E-04   -0.13497E-03 57200   0.357E-02    0.291E-02
DAV:  11     0.130326235163E+03    0.55055E-04   -0.31402E-04 50292   0.204E-02    0.113E-02
DAV:  12     0.130326233160E+03   -0.20029E-05   -0.59029E-05 45848   0.104E-02    0.264E-03
DAV:  13     0.130326233101E+03   -0.58884E-07   -0.46786E-06 32120   0.438E-03
   8 F= 0.13032623E+03 E0= 0.13032498E+03  d E =0.375385E-02
       N       E                     dE             d eps       ncg     rms          rms(c)
DAV:   1     0.130092890074E+03   -0.23334E+00   -0.91314E+00 35772   0.134E+01    0.371E+00
DAV:   2     0.130255251151E+03    0.16236E+00   -0.39350E-01 37400   0.271E+00    0.200E+00
DAV:   3     0.130325773848E+03    0.70523E-01   -0.17974E-01 43384   0.201E+00    0.211E-01
DAV:   4     0.130325753838E+03   -0.20010E-04   -0.27913E-02 46508   0.523E-01    0.107E-01
DAV:   5     0.130326203110E+03    0.44927E-03   -0.31472E-03 44220   0.223E-01    0.528E-02
DAV:   6     0.130326232425E+03    0.29315E-04   -0.44383E-04 48796   0.625E-02    0.123E-02
DAV:   7     0.130326229731E+03   -0.26935E-05   -0.12379E-04 55616   0.160E-02    0.998E-03
DAV:   8     0.130326231892E+03    0.21605E-05   -0.26097E-05 45540   0.752E-03    0.543E-03
DAV:   9     0.130326232883E+03    0.99087E-06   -0.34076E-06 37136   0.390E-03
   9 F= 0.13032623E+03 E0= 0.13032498E+03  d E =0.375591E-02
       N       E                     dE             d eps       ncg     rms          rms(c)
DAV:   1     0.130220696096E+03   -0.10554E+00   -0.85893E+00 24640   0.161E+01    0.246E+00
DAV:   2     0.130289725041E+03    0.69029E-01   -0.39765E-01 30316   0.298E+00    0.141E+00
DAV:   3     0.130337616157E+03    0.47891E-01   -0.11806E-01 37488   0.174E+00    0.241E-01
DAV:   4     0.130337477557E+03   -0.13860E-03   -0.17260E-02 40348   0.573E-01    0.137E-01
DAV:   5     0.130337864733E+03    0.38718E-03   -0.46314E-03 42064   0.217E-01    0.798E-02
DAV:   6     0.130338047764E+03    0.18303E-03   -0.12442E-03 39248   0.126E-01    0.113E-02
DAV:   7     0.130338035818E+03   -0.11946E-04   -0.15497E-04 44748   0.313E-02    0.716E-03
DAV:   8     0.130338038974E+03    0.31565E-05   -0.23095E-05 44176   0.770E-03    0.299E-03
DAV:   9     0.130338038912E+03   -0.62189E-07   -0.10742E-05 33880   0.362E-03    0.287E-03
DAV:  10     0.130338039302E+03    0.38946E-06   -0.42219E-06 29260   0.230E-03
  10 F= 0.13033804E+03 E0= 0.13033656E+03  d E =0.445069E-02
       N       E                     dE             d eps       ncg     rms          rms(c)
DAV:   1     0.130037543835E+03   -0.30050E+00   -0.12778E+01 25696   0.183E+01    0.395E+00
DAV:   2     0.130247451491E+03    0.20991E+00   -0.72768E-01 27148   0.375E+00    0.208E+00
DAV:   3     0.130338295923E+03    0.90844E-01   -0.26488E-01 37136   0.220E+00    0.240E-01
DAV:   4     0.130337722006E+03   -0.57392E-03   -0.25604E-02 38544   0.663E-01    0.130E-01
DAV:   5     0.130337915404E+03    0.19340E-03   -0.44601E-03 42944   0.210E-01    0.909E-02
DAV:   6     0.130338032816E+03    0.11741E-03   -0.14132E-03 39512   0.853E-02    0.184E-02
DAV:   7     0.130338036850E+03    0.40344E-05   -0.10233E-04 45100   0.245E-02    0.923E-03
DAV:   8     0.130338037597E+03    0.74607E-06   -0.43845E-05 46200   0.787E-03    0.585E-03
DAV:   9     0.130338039234E+03    0.16378E-05   -0.54744E-06 28028   0.420E-03    0.171E-03
DAV:  10     0.130338039283E+03    0.48738E-07   -0.32500E-06 30536   0.289E-03
  11 F= 0.13033804E+03 E0= 0.13033656E+03  d E =0.444816E-02
       N       E                     dE             d eps       ncg     rms          rms(c)
DAV:   1     0.130190280568E+03   -0.14776E+00   -0.67409E+00 28952   0.123E+01    0.251E+00
DAV:   2     0.130279731738E+03    0.89451E-01   -0.38508E-01 29964   0.264E+00    0.140E+00
DAV:   3     0.130336561333E+03    0.56830E-01   -0.13644E-01 37576   0.174E+00    0.260E-01
DAV:   4     0.130336753218E+03    0.19188E-03   -0.21693E-02 38412   0.516E-01    0.178E-01
DAV:   5     0.130337729466E+03    0.97625E-03   -0.91855E-03 40568   0.341E-01    0.908E-02
DAV:   6     0.130338009348E+03    0.27988E-03   -0.25767E-03 40084   0.150E-01    0.123E-02
DAV:   7     0.130338003489E+03   -0.58596E-05   -0.19828E-04 44968   0.367E-02    0.758E-03
DAV:   8     0.130338009300E+03    0.58113E-05   -0.39246E-05 45540   0.888E-03    0.403E-03
DAV:   9     0.130338015320E+03    0.60198E-05   -0.23237E-06 27676   0.359E-03    0.121E-03
DAV:  10     0.130338015673E+03    0.35345E-06   -0.16486E-06 30272   0.196E-03
  12 F= 0.13033802E+03 E0= 0.13033653E+03  d E =0.446640E-02
       N       E                     dE             d eps       ncg     rms          rms(c)
DAV:   1     0.130035441874E+03   -0.30257E+00   -0.12123E+01 26400   0.177E+01    0.394E+00
DAV:   2     0.130247037954E+03    0.21160E+00   -0.69997E-01 27368   0.372E+00    0.208E+00
DAV:   3     0.130338185920E+03    0.91148E-01   -0.26450E-01 37268   0.221E+00    0.244E-01
DAV:   4     0.130337678623E+03   -0.50730E-03   -0.25503E-02 38192   0.659E-01    0.134E-01
DAV:   5     0.130337884534E+03    0.20591E-03   -0.49666E-03 43252   0.218E-01    0.946E-02
DAV:   6     0.130338012673E+03    0.12814E-03   -0.13669E-03 39600   0.913E-02    0.176E-02
DAV:   7     0.130338012324E+03   -0.34902E-06   -0.10717E-04 46508   0.231E-02    0.974E-03
DAV:   8     0.130338015429E+03    0.31045E-05   -0.38496E-05 46992   0.860E-03    0.556E-03
DAV:   9     0.130338016186E+03    0.75754E-06   -0.27872E-06 27588   0.456E-03
  13 F= 0.13033802E+03 E0= 0.13033653E+03  d E =0.447014E-02
       N       E                     dE             d eps       ncg     rms          rms(c)
DAV:   1     0.130270752276E+03   -0.67263E-01   -0.52757E+00 17600   0.152E+01    0.155E+00
DAV:   2     0.130285203563E+03    0.14451E-01   -0.40358E-01 18964   0.265E+00    0.953E-01
DAV:   3     0.130318623015E+03    0.33419E-01   -0.70409E-02 27060   0.127E+00    0.201E-01
DAV:   4     0.130317142284E+03   -0.14807E-02   -0.43635E-02 29480   0.832E-01    0.356E-01
DAV:   5     0.130319033074E+03    0.18908E-02   -0.18909E-02 30316   0.501E-01    0.417E-02
DAV:   6     0.130319004724E+03   -0.28350E-04   -0.10348E-03 29084   0.133E-01    0.428E-02
DAV:   7     0.130319024291E+03    0.19567E-04   -0.39943E-04 30712   0.881E-02    0.173E-02
DAV:   8     0.130319029061E+03    0.47696E-05   -0.10420E-04 30756   0.385E-02    0.130E-02
DAV:   9     0.130319028721E+03   -0.33954E-06   -0.53627E-05 30668   0.346E-02    0.118E-02
DAV:  10     0.130319031529E+03    0.28081E-05   -0.20779E-05 29480   0.198E-02    0.368E-03
DAV:  11     0.130319031627E+03    0.97951E-07   -0.79750E-06 23364   0.124E-02
  14 F= 0.13031903E+03 E0= 0.13031752E+03  d E =0.452657E-02
       N       E                     dE             d eps       ncg     rms          rms(c)
DAV:   1     0.130334204755E+03    0.15173E-01   -0.34693E+00 18216   0.161E+01    0.301E-01
DAV:   2     0.130319140400E+03   -0.15064E-01   -0.16414E-01 26312   0.140E+00    0.162E-01
DAV:   3     0.130318679729E+03   -0.46067E-03   -0.10190E-02 28512   0.334E-01    0.165E-01
DAV:   4     0.130318963223E+03    0.28349E-03   -0.57857E-03 27148   0.274E-01    0.931E-02
DAV:   5     0.130318859550E+03   -0.10367E-03   -0.41610E-03 29744   0.121E-01    0.697E-02
DAV:   6     0.130319004927E+03    0.14538E-03   -0.13240E-03 25916   0.124E-01    0.440E-02
DAV:   7     0.130319034887E+03    0.29960E-04   -0.72193E-04 30580   0.750E-02    0.133E-02
DAV:   8     0.130319029016E+03   -0.58708E-05   -0.11030E-04 29084   0.351E-02    0.119E-02
DAV:   9     0.130319031343E+03    0.23271E-05   -0.32782E-05 30360   0.245E-02    0.634E-03
DAV:  10     0.130319032043E+03    0.70004E-06   -0.76132E-06 20944   0.110E-02
  15 F= 0.13031903E+03 E0= 0.13031752E+03  d E =0.452580E-02
       N       E                     dE             d eps       ncg     rms          rms(c)
DAV:   1     0.130328485375E+03    0.94540E-02   -0.21204E+00 11176   0.130E+01    0.187E-01
DAV:   2     0.130318617792E+03   -0.98676E-02   -0.10490E-01 15840   0.120E+00    0.110E-01
DAV:   3     0.130318558203E+03   -0.59589E-04   -0.61896E-03 15884   0.189E-01    0.910E-02
DAV:   4     0.130318701490E+03    0.14329E-03   -0.21671E-03 15268   0.154E-01    0.670E-02
DAV:   5     0.130318738067E+03    0.36577E-04   -0.14815E-03 18172   0.108E-01    0.407E-02
DAV:   6     0.130318767267E+03    0.29200E-04   -0.31745E-04 16148   0.588E-02    0.238E-02
DAV:   7     0.130318779686E+03    0.12419E-04   -0.13470E-04 18480   0.515E-02    0.119E-02
DAV:   8     0.130318784937E+03    0.52508E-05   -0.97490E-05 19008   0.252E-02    0.674E-03
DAV:   9     0.130318786841E+03    0.19044E-05   -0.14048E-05 14960   0.155E-02    0.513E-03
DAV:  10     0.130318788048E+03    0.12066E-05   -0.10725E-05 13244   0.106E-02    0.253E-03
DAV:  11     0.130318788495E+03    0.44682E-06   -0.30595E-06 12672   0.530E-03
  16 F= 0.13031879E+03 E0= 0.13031727E+03  d E =0.454534E-02
       N       E                     dE             d eps       ncg     rms          rms(c)
DAV:   1     0.130340163909E+03    0.21376E-01   -0.42141E+00 10824   0.187E+01    0.304E-01
DAV:   2     0.130318332894E+03   -0.21831E-01   -0.23791E-01 15884   0.164E+00    0.176E-01
DAV:   3     0.130318421490E+03    0.88596E-04   -0.19180E-02 15796   0.290E-01    0.131E-01
DAV:   4     0.130318765895E+03    0.34441E-03   -0.34334E-03 14036   0.194E-01    0.875E-02
DAV:   5     0.130318642452E+03   -0.12344E-03   -0.33708E-03 18436   0.226E-01    0.106E-01
DAV:   6     0.130318732299E+03    0.89847E-04   -0.13964E-03 17820   0.156E-01    0.361E-02
DAV:   7     0.130318776173E+03    0.43874E-04   -0.45225E-04 17952   0.698E-02    0.294E-02
DAV:   8     0.130318783971E+03    0.77983E-05   -0.34594E-04 20504   0.526E-02    0.114E-02
DAV:   9     0.130318787354E+03    0.33825E-05   -0.52090E-05 16544   0.290E-02    0.113E-02
DAV:  10     0.130318789518E+03    0.21650E-05   -0.28694E-05 17116   0.204E-02    0.232E-03
DAV:  11     0.130318789424E+03   -0.94169E-07   -0.34563E-06 12760   0.633E-03
  17 F= 0.13031879E+03 E0= 0.13031727E+03  d E =0.454353E-02
       N       E                     dE             d eps       ncg     rms          rms(c)
DAV:   1     0.860689163972E+03    0.73037E+03   -0.10708E+00 17864   0.934E+00    0.152E-01
DAV:   2     0.860681525336E+03   -0.76386E-02   -0.87930E-02 26400   0.117E+00    0.272E-01
DAV:   3     0.860682494947E+03    0.96961E-03   -0.14988E-02 27148   0.521E-01    0.835E-02
DAV:   4     0.860682473722E+03   -0.21224E-04   -0.22966E-03 31416   0.134E-01    0.549E-02
DAV:   5     0.860682580160E+03    0.10644E-03   -0.96764E-04 24684   0.565E-02    0.260E-02
DAV:   6     0.860682553169E+03   -0.26991E-04   -0.42960E-04 34804   0.322E-02    0.220E-02
DAV:   7     0.860682585577E+03    0.32407E-04   -0.28373E-04 30844   0.182E-02    0.579E-03
DAV:   8     0.860682583860E+03   -0.17166E-05   -0.41776E-05 31416   0.119E-02    0.451E-03
DAV:   9     0.860682585012E+03    0.11514E-05   -0.60039E-06 20900   0.554E-03    0.175E-03
DAV:  10     0.860682585154E+03    0.14203E-06   -0.30259E-06 22000   0.315E-03
  18 F= 0.86068259E+03 E0= 0.86068107E+03  d E =0.453702E-02
       N       E                     dE             d eps       ncg     rms          rms(c)
DAV:   1     0.860681897505E+03   -0.68751E-03   -0.13785E-01 17600   0.838E-01    0.180E-01
DAV:   2     0.860678547769E+03   -0.33497E-02   -0.67754E-02 29876   0.119E+00    0.523E-01
DAV:   3     0.860682580882E+03    0.40331E-02   -0.42812E-02 30712   0.751E-01    0.631E-02
DAV:   4     0.860682591932E+03    0.11049E-04   -0.68499E-04 23408   0.868E-02    0.270E-02
DAV:   5     0.860682584397E+03   -0.75350E-05   -0.95339E-05 34672   0.285E-02    0.116E-02
DAV:   6     0.860682583912E+03   -0.48423E-06   -0.53257E-05 29304   0.126E-02    0.668E-03
DAV:   7     0.860682585406E+03    0.14933E-05   -0.14776E-05 25784   0.624E-03    0.165E-03
DAV:   8     0.860682585212E+03   -0.19338E-06   -0.28036E-06 22000   0.327E-03
  19 F= 0.86068259E+03 E0= 0.86068107E+03  d E =0.453342E-02
       N       E                     dE             d eps       ncg     rms          rms(c)
DAV:   1     0.860682538809E+03   -0.46597E-04   -0.84930E-02 10560   0.673E-01    0.110E-01
DAV:   2     0.860680819606E+03   -0.17192E-02   -0.30218E-02 17688   0.434E-01    0.334E-01
DAV:   3     0.860682671033E+03    0.18514E-02   -0.19041E-02 18260   0.254E-01    0.471E-02
DAV:   4     0.860682743326E+03    0.72293E-04   -0.37662E-04 15532   0.575E-02    0.177E-02
DAV:   5     0.860682772253E+03    0.28928E-04   -0.88424E-05 18172   0.298E-02    0.642E-03
DAV:   6     0.860682783044E+03    0.10791E-04   -0.39433E-05 16764   0.189E-02    0.364E-03
DAV:   7     0.860682785453E+03    0.24085E-05   -0.10676E-05 17600   0.807E-03    0.176E-03
DAV:   8     0.860682788370E+03    0.29176E-05   -0.85736E-06 15840   0.113E-02    0.115E-03
DAV:   9     0.860682789078E+03    0.70800E-06   -0.20801E-06 13200   0.507E-03
  20 F= 0.86068279E+03 E0= 0.86068128E+03  d E =0.452307E-02
       N       E                     dE             d eps       ncg     rms          rms(c)
DAV:   1     0.860682256846E+03   -0.53152E-03   -0.17478E-01 10560   0.948E-01    0.193E-01
DAV:   2     0.860675396837E+03   -0.68600E-02   -0.11593E-01 17732   0.715E-01    0.663E-01
DAV:   3     0.860682794335E+03    0.73975E-02   -0.73542E-02 18128   0.479E-01    0.730E-02
DAV:   4     0.860682792295E+03   -0.20402E-05   -0.83506E-04 15092   0.856E-02    0.317E-02
DAV:   5     0.860682783047E+03   -0.92484E-05   -0.18779E-04 20460   0.307E-02    0.177E-02
DAV:   6     0.860682787102E+03    0.40548E-05   -0.15564E-04 17688   0.142E-02    0.935E-03
DAV:   7     0.860682789644E+03    0.25418E-05   -0.25671E-05 16016   0.752E-03    0.265E-03
DAV:   8     0.860682789464E+03   -0.17950E-06   -0.70421E-06 13508   0.405E-03
  21 F= 0.86068279E+03 E0= 0.86068128E+03  d E =0.452502E-02
       N       E                     dE             d eps       ncg     rms          rms(c)
DAV:   1     0.860681728702E+03   -0.10609E-02   -0.13144E-01 17600   0.861E-01    0.728E-02
DAV:   2     0.860681664001E+03   -0.64700E-04   -0.17254E-03 22264   0.117E-01    0.461E-02
DAV:   3     0.860681672033E+03    0.80317E-05   -0.11207E-03 32296   0.145E-01    0.605E-02
DAV:   4     0.860681758683E+03    0.86649E-04   -0.58371E-04 26532   0.115E-01    0.940E-03
DAV:   5     0.860681769967E+03    0.11284E-04   -0.87295E-05 33088   0.191E-02    0.572E-03
DAV:   6     0.860681787955E+03    0.17988E-04   -0.25429E-05 25872   0.130E-02    0.269E-03
DAV:   7     0.860681798218E+03    0.10263E-04   -0.18423E-05 26444   0.918E-03    0.173E-03
DAV:   8     0.860681805632E+03    0.74132E-05   -0.12471E-05 25916   0.826E-03    0.110E-03
DAV:   9     0.860681809154E+03    0.35227E-05   -0.61456E-06 22000   0.554E-03    0.886E-04
DAV:  10     0.860681812073E+03    0.29186E-05   -0.84285E-06 25828   0.684E-03    0.823E-04
DAV:  11     0.860681812824E+03    0.75161E-06   -0.21414E-06 22000   0.388E-03
  22 F= 0.86068181E+03 E0= 0.86068030E+03  d E =0.452865E-02
       N       E                     dE             d eps       ncg     rms          rms(c)
DAV:   1     0.860681915052E+03    0.10298E-03   -0.29393E-01 17600   0.116E+00    0.100E-01
DAV:   2     0.860681833885E+03   -0.81166E-04   -0.99564E-04 18392   0.109E-01    0.606E-02
DAV:   3     0.860681739420E+03   -0.94466E-04   -0.11958E-03 30624   0.163E-01    0.733E-02
DAV:   4     0.860681808237E+03    0.68817E-04   -0.82142E-04 28424   0.139E-01    0.137E-02
DAV:   5     0.860681812281E+03    0.40440E-05   -0.89451E-05 30272   0.211E-02    0.734E-03
DAV:   6     0.860681812988E+03    0.70744E-06   -0.11043E-05 24508   0.577E-03    0.375E-03
DAV:   7     0.860681812820E+03   -0.16858E-06   -0.75926E-06 22528   0.399E-03
  23 F= 0.86068181E+03 E0= 0.86068030E+03  d E =0.452763E-02
       N       E                     dE             d eps       ncg     rms          rms(c)
DAV:   1     0.860681880231E+03    0.67243E-04   -0.16988E-01 10560   0.914E-01    0.691E-02
DAV:   2     0.860681829242E+03   -0.50990E-04   -0.54260E-04 10956   0.816E-02    0.433E-02
DAV:   3     0.860681782509E+03   -0.46733E-04   -0.58279E-04 17996   0.803E-02    0.506E-02
DAV:   4     0.860681812793E+03    0.30284E-04   -0.40865E-04 17600   0.495E-02    0.904E-03
DAV:   5     0.860681815584E+03    0.27912E-05   -0.44805E-05 18084   0.118E-02    0.380E-03
DAV:   6     0.860681815729E+03    0.14507E-06   -0.46275E-06 12188   0.365E-03
  24 F= 0.86068182E+03 E0= 0.86068031E+03  d E =0.452427E-02
       N       E                     dE             d eps       ncg     rms          rms(c)
DAV:   1     0.860681919555E+03    0.10397E-03   -0.33422E-01 10560   0.127E+00    0.920E-02
DAV:   2     0.860681834064E+03   -0.85491E-04   -0.11139E-03 10824   0.106E-01    0.585E-02
DAV:   3     0.860681764475E+03   -0.69589E-04   -0.98547E-04 18084   0.934E-02    0.604E-02
DAV:   4     0.860681804080E+03    0.39605E-04   -0.70744E-04 17996   0.631E-02    0.202E-02
DAV:   5     0.860681814275E+03    0.10195E-04   -0.16729E-04 17556   0.240E-02    0.850E-03
DAV:   6     0.860681815390E+03    0.11146E-05   -0.23376E-05 15312   0.694E-03    0.450E-03
DAV:   7     0.860681815310E+03   -0.79399E-07   -0.10401E-05 13772   0.417E-03    0.302E-03
DAV:   8     0.860681815742E+03    0.43168E-06   -0.53719E-06 12320   0.302E-03
  25 F= 0.86068182E+03 E0= 0.86068031E+03  d E =0.452231E-02
