<?xml version="1.0" encoding="ISO-8859-1"?>
<modeling>
 <generator>
  <i name="program" type="string">vasp </i>
  <i name="version" type="string">6.5.0  </i>
  <i name="subversion" type="string">16Dec24 (build Apr 17 2025 17:55:45) complex                          parallel </i>
  <i name="platform" type="string">LinuxIFC </i>
  <i name="date" type="string">2025 06 06 </i>
  <i name="time" type="string">17:53:28 </i>
 </generator>
 <incar>
  <i type="int" name="ISTART">     0</i>
  <i type="string" name="PREC">N</i>
  <i type="string" name="ALGO">N</i>
  <i type="int" name="ICHARG">     2</i>
  <i type="int" name="NELM">   500</i>
  <i type="int" name="IBRION">     6</i>
  <i type="int" name="NFREE">     2</i>
  <i name="EDIFF">      0.00000100</i>
  <i name="EDIFFG">     -0.00100000</i>
  <i type="int" name="NSW">     1</i>
  <i type="int" name="ISIF">     3</i>
  <i name="SYMPREC">      0.00000100</i>
  <i name="ENCUT">    500.00000000</i>
  <i name="POTIM">      0.01500000</i>
  <v name="VCA">      1.00000000      0.98000000      0.02000000</v>
  <i type="logical" name="LREAL"> F  </i>
  <i type="int" name="ISMEAR">     1</i>
  <i name="SIGMA">      0.20000000</i>
  <i type="int" name="LMAXMIX">     4</i>
 </incar>
 <primitive_cell>
  <structure name="primitive_cell" >
   <crystal>
    <varray name="basis" >
     <v>       2.82534089       0.00000000       0.00000000 </v>
     <v>       0.00000000       2.82534089       0.00000000 </v>
     <v>       0.00000000       0.00000000       4.06231459 </v>
    </varray>
    <i name="volume">     32.42763392 </i>
    <varray name="rec_basis" >
     <v>       0.35393959       0.00000000       0.00000000 </v>
     <v>       0.00000000       0.35393959       0.00000000 </v>
     <v>       0.00000000       0.00000000       0.24616508 </v>
    </varray>
   </crystal>
   <varray name="positions" >
    <v>       0.00000000       0.00000000       0.00000000 </v>
    <v>       0.50000000       0.50000000       0.50000000 </v>
    <v>       0.50000000       0.50000000       0.50000000 </v>
   </varray>
  </structure>
  <varray name="primitive_index" >
   <v type="int" >        1 </v>
   <v type="int" >        9 </v>
   <v type="int" >       17 </v>
  </varray>
 </primitive_cell>
 <kpoints>
  <generation param="Gamma">
   <v type="int" name="divisions">       9        9        6 </v>
   <v name="usershift">      0.00000000       0.00000000       0.00000000 </v>
   <v name="genvec1">      0.11111111       0.00000000       0.00000000 </v>
   <v name="genvec2">      0.00000000       0.11111111       0.00000000 </v>
   <v name="genvec3">      0.00000000       0.00000000       0.16666667 </v>
   <v name="shift">      0.00000000       0.00000000       0.00000000 </v>
  </generation>
  <varray name="kpointlist" >
   <v>       0.00000000       0.00000000       0.00000000 </v>
   <v>       0.11111111       0.00000000       0.00000000 </v>
   <v>       0.22222222       0.00000000       0.00000000 </v>
   <v>       0.33333333       0.00000000       0.00000000 </v>
   <v>       0.44444444       0.00000000       0.00000000 </v>
   <v>       0.11111111       0.11111111       0.00000000 </v>
   <v>       0.22222222       0.11111111       0.00000000 </v>
   <v>       0.33333333       0.11111111       0.00000000 </v>
   <v>       0.44444444       0.11111111       0.00000000 </v>
   <v>       0.22222222       0.22222222       0.00000000 </v>
   <v>       0.33333333       0.22222222       0.00000000 </v>
   <v>       0.44444444       0.22222222       0.00000000 </v>
   <v>       0.33333333       0.33333333       0.00000000 </v>
   <v>       0.44444444       0.33333333       0.00000000 </v>
   <v>       0.44444444       0.44444444       0.00000000 </v>
   <v>       0.00000000       0.00000000       0.16666667 </v>
   <v>       0.11111111       0.00000000       0.16666667 </v>
   <v>       0.22222222       0.00000000       0.16666667 </v>
   <v>       0.33333333       0.00000000       0.16666667 </v>
   <v>       0.44444444       0.00000000       0.16666667 </v>
   <v>       0.11111111       0.11111111       0.16666667 </v>
   <v>       0.22222222       0.11111111       0.16666667 </v>
   <v>       0.33333333       0.11111111       0.16666667 </v>
   <v>       0.44444444       0.11111111       0.16666667 </v>
   <v>       0.22222222       0.22222222       0.16666667 </v>
   <v>       0.33333333       0.22222222       0.16666667 </v>
   <v>       0.44444444       0.22222222       0.16666667 </v>
   <v>       0.33333333       0.33333333       0.16666667 </v>
   <v>       0.44444444       0.33333333       0.16666667 </v>
   <v>       0.44444444       0.44444444       0.16666667 </v>
   <v>       0.00000000       0.00000000       0.33333333 </v>
   <v>       0.11111111       0.00000000       0.33333333 </v>
   <v>       0.22222222       0.00000000       0.33333333 </v>
   <v>       0.33333333       0.00000000       0.33333333 </v>
   <v>       0.44444444       0.00000000       0.33333333 </v>
   <v>       0.11111111       0.11111111       0.33333333 </v>
   <v>       0.22222222       0.11111111       0.33333333 </v>
   <v>       0.33333333       0.11111111       0.33333333 </v>
   <v>       0.44444444       0.11111111       0.33333333 </v>
   <v>       0.22222222       0.22222222       0.33333333 </v>
   <v>       0.33333333       0.22222222       0.33333333 </v>
   <v>       0.44444444       0.22222222       0.33333333 </v>
   <v>       0.33333333       0.33333333       0.33333333 </v>
   <v>       0.44444444       0.33333333       0.33333333 </v>
   <v>       0.44444444       0.44444444       0.33333333 </v>
   <v>       0.00000000       0.00000000       0.50000000 </v>
   <v>       0.11111111       0.00000000       0.50000000 </v>
   <v>       0.22222222       0.00000000       0.50000000 </v>
   <v>       0.33333333       0.00000000       0.50000000 </v>
   <v>       0.44444444       0.00000000       0.50000000 </v>
   <v>       0.11111111       0.11111111       0.50000000 </v>
   <v>       0.22222222       0.11111111       0.50000000 </v>
   <v>       0.33333333       0.11111111       0.50000000 </v>
   <v>       0.44444444       0.11111111       0.50000000 </v>
   <v>       0.22222222       0.22222222       0.50000000 </v>
   <v>       0.33333333       0.22222222       0.50000000 </v>
   <v>       0.44444444       0.22222222       0.50000000 </v>
   <v>       0.33333333       0.33333333       0.50000000 </v>
   <v>       0.44444444       0.33333333       0.50000000 </v>
   <v>       0.44444444       0.44444444       0.50000000 </v>
  </varray>
  <varray name="weights" >
   <v>       0.00205761 </v>
   <v>       0.00823045 </v>
   <v>       0.00823045 </v>
   <v>       0.00823045 </v>
   <v>       0.00823045 </v>
   <v>       0.00823045 </v>
   <v>       0.01646091 </v>
   <v>       0.01646091 </v>
   <v>       0.01646091 </v>
   <v>       0.00823045 </v>
   <v>       0.01646091 </v>
   <v>       0.01646091 </v>
   <v>       0.00823045 </v>
   <v>       0.01646091 </v>
   <v>       0.00823045 </v>
   <v>       0.00411523 </v>
   <v>       0.01646091 </v>
   <v>       0.01646091 </v>
   <v>       0.01646091 </v>
   <v>       0.01646091 </v>
   <v>       0.01646091 </v>
   <v>       0.03292181 </v>
   <v>       0.03292181 </v>
   <v>       0.03292181 </v>
   <v>       0.01646091 </v>
   <v>       0.03292181 </v>
   <v>       0.03292181 </v>
   <v>       0.01646091 </v>
   <v>       0.03292181 </v>
   <v>       0.01646091 </v>
   <v>       0.00411523 </v>
   <v>       0.01646091 </v>
   <v>       0.01646091 </v>
   <v>       0.01646091 </v>
   <v>       0.01646091 </v>
   <v>       0.01646091 </v>
   <v>       0.03292181 </v>
   <v>       0.03292181 </v>
   <v>       0.03292181 </v>
   <v>       0.01646091 </v>
   <v>       0.03292181 </v>
   <v>       0.03292181 </v>
   <v>       0.01646091 </v>
   <v>       0.03292181 </v>
   <v>       0.01646091 </v>
   <v>       0.00205761 </v>
   <v>       0.00823045 </v>
   <v>       0.00823045 </v>
   <v>       0.00823045 </v>
   <v>       0.00823045 </v>
   <v>       0.00823045 </v>
   <v>       0.01646091 </v>
   <v>       0.01646091 </v>
   <v>       0.01646091 </v>
   <v>       0.00823045 </v>
   <v>       0.01646091 </v>
   <v>       0.01646091 </v>
   <v>       0.00823045 </v>
   <v>       0.01646091 </v>
   <v>       0.00823045 </v>
  </varray>
 </kpoints>
 <parameters>
  <separator name="general" >
   <i type="string" name="SYSTEM">unknown system</i>
   <i type="logical" name="LCOMPAT"> F  </i>
  </separator>
  <separator name="electronic" >
   <i type="string" name="PREC">n</i>
   <i name="ENMAX">    500.00000000</i>
   <i name="ENAUG">    490.69000000</i>
   <i name="EDIFF">      0.00000100</i>
   <i type="int" name="IALGO">    38</i>
   <i type="int" name="IWAVPR">    11</i>
   <i type="int" name="NBANDS">    88</i>
   <i type="int" name="NBANDSLOW">    -1</i>
   <i type="int" name="NBANDSHIGH">    -1</i>
   <i name="NELECT">    121.60000000</i>
   <i type="int" name="TURBO">     0</i>
   <i type="int" name="IRESTART">     0</i>
   <i type="int" name="NREBOOT">     0</i>
   <i type="int" name="NMIN">     0</i>
   <i name="EREF">      0.00000000</i>
   <separator name="electronic smearing" >
    <i type="int" name="ISMEAR">     1</i>
    <i name="SIGMA">      0.20000000</i>
    <i name="KSPACING">      0.50000000</i>
    <i type="logical" name="KGAMMA"> T  </i>
    <i type="logical" name="KBLOWUP"> T  </i>
   </separator>
   <separator name="electronic projectors" >
    <i type="logical" name="LREAL"> F  </i>
    <v name="ROPT">      0.00000000      0.00000000      0.00000000</v>
    <i type="int" name="LMAXPAW">  -100</i>
    <i type="int" name="LMAXMIX">     4</i>
    <i type="logical" name="NLSPLINE"> F  </i>
   </separator>
   <separator name="electronic startup" >
    <i type="int" name="ISTART">     0</i>
    <i type="int" name="ICHARG">     2</i>
    <i type="int" name="INIWAV">     1</i>
   </separator>
   <separator name="electronic spin" >
    <i type="int" name="ISPIN">     1</i>
    <i type="logical" name="LNONCOLLINEAR"> F  </i>
    <v name="MAGMOM">      1.00000000      1.00000000      1.00000000      1.00000000      1.00000000      1.00000000      1.00000000      1.00000000      1.00000000      1.00000000      1.00000000      1.00000000      1.00000000      1.00000000      1.00000000      1.00000000      1.00000000      1.00000000      1.00000000      1.00000000
      1.00000000      1.00000000      1.00000000      1.00000000</v>
    <i name="NUPDOWN">     -1.00000000</i>
    <i type="logical" name="LSORBIT"> F  </i>
    <v name="SAXIS">      0.00000000      0.00000000      1.00000000</v>
    <i type="logical" name="LSPIRAL"> F  </i>
    <v name="QSPIRAL">      0.00000000      0.00000000      0.00000000</v>
    <i type="logical" name="LZEROZ"> F  </i>
   </separator>
   <separator name="electronic exchange-correlation" >
    <i type="logical" name="LASPH"> F  </i>
   </separator>
   <separator name="electronic convergence" >
    <i type="int" name="NELM">   500</i>
    <i type="int" name="NELMDL">    -5</i>
    <i type="int" name="NELMIN">     2</i>
    <i name="ENINI">    500.00000000</i>
    <separator name="electronic convergence detail" >
     <i type="logical" name="LDIAG"> T  </i>
     <i type="logical" name="LSUBROT"> F  </i>
     <i name="WEIMIN">      0.00100000</i>
     <i name="EBREAK">      0.00000000</i>
     <i name="DEPER">      0.30000000</i>
     <i type="int" name="NRMM">     4</i>
     <i name="TIME">      0.40000000</i>
    </separator>
   </separator>
   <separator name="electronic mixer" >
    <i name="AMIX">      0.40000000</i>
    <i name="BMIX">      1.00000000</i>
    <i name="AMIN">      0.10000000</i>
    <i name="AMIX_MAG">      1.60000000</i>
    <i name="BMIX_MAG">      1.00000000</i>
    <separator name="electronic mixer details" >
     <i type="int" name="IMIX">     4</i>
     <i type="logical" name="MIXFIRST"> F  </i>
     <i type="int" name="MAXMIX">   -45</i>
     <i name="WC">    100.00000000</i>
     <i type="int" name="INIMIX">     1</i>
     <i type="int" name="MIXPRE">     1</i>
     <i type="int" name="MREMOVE">     5</i>
    </separator>
   </separator>
   <separator name="electronic dipolcorrection" >
    <i type="logical" name="LDIPOL"> F  </i>
    <i type="logical" name="LMONO"> F  </i>
    <i type="int" name="IDIPOL">     0</i>
    <i name="EPSILON">      1.00000000</i>
    <v name="DIPOL">   -100.00000000   -100.00000000   -100.00000000</v>
    <i name="EFIELD">      0.00000000</i>
    <i type="logical" name="LVACPOTAV"> F  </i>
   </separator>
  </separator>
  <separator name="grids" >
   <i type="int" name="NGX">    32</i>
   <i type="int" name="NGY">    32</i>
   <i type="int" name="NGZ">    48</i>
   <i type="int" name="NGXF">    64</i>
   <i type="int" name="NGYF">    64</i>
   <i type="int" name="NGZF">    96</i>
   <i type="logical" name="ADDGRID"> F  </i>
  </separator>
  <separator name="ionic" >
   <i type="int" name="NSW">   325</i>
   <i type="int" name="IBRION">     6</i>
   <i type="int" name="MDALGO">     0</i>
   <i type="int" name="ISIF">     3</i>
   <i name="PSTRESS">      0.00000000</i>
   <i name="EDIFFG">     -0.00100000</i>
   <i type="int" name="NFREE">     2</i>
   <i name="POTIM">      0.01500000</i>
   <i name="SMASS">     -3.00000000</i>
   <i name="SCALEE">      1.00000000</i>
  </separator>
  <separator name="ionic md" >
   <i name="TEBEG">      0.00010000</i>
   <i name="TEEND">      0.00010000</i>
   <i type="int" name="NBLOCK">     1</i>
   <i type="int" name="KBLOCK">   325</i>
   <i type="int" name="NPACO">   256</i>
   <i name="APACO">     10.00000000</i>
  </separator>
  <separator name="symmetry" >
   <i type="int" name="ISYM">     2</i>
   <i name="SYMPREC">      0.00000100</i>
  </separator>
  <separator name="dos" >
   <i type="int" name="LORBIT">     0</i>
   <v name="RWIGS">     -1.00000000     -1.00000000     -1.00000000</v>
   <i type="int" name="NEDOS">   301</i>
   <i name="EMIN">     10.00000000</i>
   <i name="EMAX">    -10.00000000</i>
   <i name="EFERMI">      0.00000000</i>
  </separator>
  <separator name="writing" >
   <i type="int" name="NWRITE">     2</i>
   <i type="logical" name="LWAVE"> T  </i>
   <i type="logical" name="LDOWNSAMPLE"> F  </i>
   <i type="logical" name="LCHARG"> T  </i>
   <i type="logical" name="LPARD"> F  </i>
   <i type="logical" name="LVTOT"> F  </i>
   <i type="logical" name="LVHAR"> F  </i>
   <i type="logical" name="LELF"> F  </i>
   <i type="logical" name="LOPTICS"> F  </i>
   <v name="STM">      0.00000000      0.00000000      0.00000000      0.00000000      0.00000000      0.00000000      0.00000000</v>
  </separator>
  <separator name="performance" >
   <i type="int" name="NPAR">    44</i>
   <i type="int" name="NSIM">     4</i>
   <i type="int" name="NBLK">    -1</i>
   <i type="logical" name="LPLANE"> T  </i>
   <i type="logical" name="LSCALAPACK"> T  </i>
   <i type="logical" name="LSCAAWARE"> F  </i>
   <i type="logical" name="LSCALU"> F  </i>
   <i type="logical" name="LASYNC"> F  </i>
   <i type="logical" name="LORBITALREAL"> F  </i>
  </separator>
  <separator name="miscellaneous" >
   <i type="int" name="IDIOT">     3</i>
   <i type="int" name="PHON_NSTRUCT">    -1</i>
   <i type="logical" name="LMUSIC"> F  </i>
   <v name="POMASS">     47.88000000     26.98100000     69.72300000</v>
   <v name="DARWINR">      0.00000000      0.00000000      0.00000000</v>
   <v name="DARWINV">      1.00000000      1.00000000      1.00000000</v>
   <i type="logical" name="LCORR"> T  </i>
  </separator>
  <i type="logical" name="GGA_COMPAT"> T  </i>
  <i type="logical" name="LBERRY"> F  </i>
  <i type="int" name="ICORELEVEL">     0</i>
  <i type="logical" name="LDAU"> F  </i>
  <i type="int" name="I_CONSTRAINED_M">     0</i>
  <separator name="electronic exchange-correlation" >
   <i type="string" name="GGA    ">PE</i>
   <i type="string" name="XC_C">1</i>
   <i type="int" name="VOSKOWN">     0</i>
   <i type="logical" name="LHFCALC"> F  </i>
   <i type="string" name="PRECFOCK"></i>
   <i type="logical" name="LSYMGRAD"> F  </i>
   <i type="logical" name="LHFONE"> F  </i>
   <i type="logical" name="LRHFCALC"> F  </i>
   <i type="logical" name="LTHOMAS"> F  </i>
   <i type="logical" name="LMODELHF"> F  </i>
   <i type="logical" name="LFOCKACE"> F  </i>
   <i name="ENCUT4O">     -1.00000000</i>
   <i type="int" name="EXXOEP">     0</i>
   <i type="int" name="FOURORBIT">     0</i>
   <i name="AEXX">      0.00000000</i>
   <i name="HFALPHA">      0.00000000</i>
   <i name="MCALPHA">      0.00000000</i>
   <i name="ALDAX">      1.00000000</i>
   <i name="AGGAX">      1.00000000</i>
   <i name="AMGGAX">      1.00000000</i>
   <i name="ALDAC">      1.00000000</i>
   <i name="AGGAC">      1.00000000</i>
   <i name="AMGGAC">      1.00000000</i>
   <i type="int" name="NKREDX">     1</i>
   <i type="int" name="NKREDY">     1</i>
   <i type="int" name="NKREDZ">     1</i>
   <i type="logical" name="SHIFTRED"> F  </i>
   <i type="logical" name="ODDONLY"> F  </i>
   <i type="logical" name="EVENONLY"> F  </i>
   <i type="int" name="LMAXFOCK">     0</i>
   <i type="int" name="NMAXFOCKAE">     0</i>
   <i type="logical" name="LFOCKAEDFT"> F  </i>
   <i name="HFSCREEN">      0.00000000</i>
   <i name="HFSCREENC">      0.00000000</i>
   <i type="int" name="NBANDSGWLOW">     0</i>
  </separator>
  <separator name="vdW DFT" >
   <i type="logical" name="LUSE_VDW"> F  </i>
   <i type="int" name="IVDW_NL">    -1</i>
   <i type="logical" name="LSPIN_VDW"> F  </i>
   <i name="ZAB_VDW">     -0.84910000</i>
   <i name="GAMMA_VDW">      1.39626340</i>
   <i name="ALPHA_VDW">      0.00000000</i>
   <i name="PARAM1">      0.12340000</i>
   <i name="PARAM2">      1.00000000</i>
   <i name="BPARAM">      6.30000000</i>
   <i name="CPARAM">      0.00930000</i>
  </separator>
  <separator name="model GW" >
   <i type="int" name="MODEL_GW">     0</i>
   <i name="MODEL_EPS0">      6.48552678</i>
   <i name="MODEL_ALPHA">      1.00000000</i>
  </separator>
  <separator name="linear response parameters" >
   <i type="logical" name="LEPSILON"> F  </i>
   <i type="logical" name="LRPA"> F  </i>
   <i type="logical" name="LNABLA"> F  </i>
   <i type="logical" name="LVEL"> F  </i>
   <i name="CSHIFT">      0.10000000</i>
   <i name="OMEGAMAX">     -1.00000000</i>
   <i name="DEG_THRESHOLD">      0.00200000</i>
   <i name="RTIME">     -0.10000000</i>
   <i name="WPLASMAI">      0.00000000</i>
   <v name="DFIELD">      0.00000000      0.00000000      0.00000000</v>
   <v name="WPLASMA">      0.00000000      0.00000000      0.00000000      0.00000000      0.00000000      0.00000000      0.00000000      0.00000000      0.00000000</v>
  </separator>
  <separator name="orbital magnetization" >
   <i type="logical" name="NUCIND"> F  </i>
   <v name="MAGPOS">      0.00000000      0.00000000      0.00000000</v>
   <i type="logical" name="LNICSALL"> T  </i>
   <i type="logical" name="ORBITALMAG"> F  </i>
   <i type="logical" name="LMAGBLOCH"> F  </i>
   <i type="logical" name="LCHIMAG"> F  </i>
   <i type="logical" name="LGAUGE"> T  </i>
   <i type="int" name="MAGATOM">     0</i>
   <v name="MAGDIPOL">      0.00000000      0.00000000      0.00000000</v>
   <v name="AVECCONST">      0.00000000      0.00000000      0.00000000</v>
  </separator>
  <separator name="response functions" >
   <i type="logical" name="LALL_IN_ONE"> F  </i>
   <i type="int" name="IALL_IN_ONE">    -1</i>
   <i type="int" name="NBANDS_WAVE">    -1</i>
   <i type="logical" name="LFINITE_TEMPERATURE"> F  </i>
   <i type="logical" name="LADDER"> F  </i>
   <i type="logical" name="LRPAFORCE"> F  </i>
   <i type="logical" name="LFXC"> F  </i>
   <i type="logical" name="LHARTREE"> T  </i>
   <i type="int" name="IBSE">     2</i>
   <v type="int" name="KPOINT">    -1     0     0     0</v>
   <i type="logical" name="LTCTC"> F  </i>
   <i type="logical" name="LTCTE"> F  </i>
   <i type="logical" name="LTETE"> F  </i>
   <i type="logical" name="LTRIPLET"> F  </i>
   <i type="logical" name="LFXCEPS"> F  </i>
   <i type="logical" name="LFXHEG"> F  </i>
   <i type="int" name="NATURALO">     2</i>
   <i type="logical" name="LHOLEGF"> F  </i>
   <i type="logical" name="L2ORDER"> F  </i>
   <i type="logical" name="LDMP1"> F  </i>
   <i type="logical" name="LMP2LT"> F  </i>
   <i type="logical" name="LSMP2LT"> F  </i>
   <i type="logical" name="LGWLF"> F  </i>
   <i name="ENCUTGW">     -1.60000002</i>
   <i name="ENCUTGWSOFT">     -1.60000002</i>
   <i name="ENCUTLF">     -1.00000000</i>
   <i type="logical" name="ESF_SPLINES"> F  </i>
   <i name="ESF_CONV">      0.01000000</i>
   <i type="int" name="ESF_NINTER">    15</i>
   <i type="int" name="LMAXMP2">    -1</i>
   <i name="SCISSOR">      0.00000000</i>
   <i type="int" name="NOMEGA">     0</i>
   <i type="int" name="NOMEGAR">     0</i>
   <i type="int" name="NBANDSGW">    -1</i>
   <i type="int" name="NBANDSO">    -1</i>
   <i type="int" name="NBANDSV">    -1</i>
   <i type="int" name="NELMGW">     1</i>
   <i type="int" name="NELMHF">     1</i>
   <i type="int" name="DIM">     3</i>
   <i type="int" name="IESPILON">     4</i>
   <i type="int" name="ANTIRES">     0</i>
   <i name="OMEGAMAX">    -30.00000000</i>
   <i name="OMEGAMIN">    -30.00000000</i>
   <i name="OMEGATL">   -200.00000000</i>
   <i type="int" name="OMEGAGRID">     0</i>
   <i name="CSHIFT">     -0.10000000</i>
   <i type="logical" name="LSELFENERGY"> F  </i>
   <i type="logical" name="LSPECTRAL"> F  </i>
   <i type="logical" name="LSPECTRALGW"> F  </i>
   <i type="logical" name="LSINGLES"> F  </i>
   <i type="logical" name="LFERMIGW"> F  </i>
   <i type="logical" name="ODDONLYGW"> F  </i>
   <i type="logical" name="EVENONLYGW"> F  </i>
   <i type="int" name="NKREDLFX">     1</i>
   <i type="int" name="NKREDLFY">     1</i>
   <i type="int" name="NKREDLFZ">     1</i>
   <i type="int" name="MAXMEM">  2800</i>
   <i type="int" name="TELESCOPE">     0</i>
   <i type="int" name="NTAUPAR">    -1</i>
   <i type="int" name="NOMEGAPAR">    -1</i>
   <i name="DAMP_NEWTON">      0.80000001</i>
   <i name="LAMBDA">      1.00000000</i>
  </separator>
  <separator name="External order field" >
   <i name="OFIELD_KAPPA">      0.00000000</i>
   <v name="OFIELD_K">      0.00000000      0.00000000      0.00000000</v>
   <i name="OFIELD_Q6_NEAR">      0.00000000</i>
   <i name="OFIELD_Q6_FAR">      0.00000000</i>
   <i name="OFIELD_A">      0.00000000</i>
  </separator>
  <separator name="optional k-points parameters" >
   <i type="int" name="KPOINTS_OPT_MODE">     1</i>
   <i type="logical" name="LKPOINTS_OPT"> F  </i>
  </separator>
 </parameters>
 <atominfo>
  <atoms>      24 </atoms>
  <types>       3 </types>
  <array name="atoms" >
   <dimension dim="1">ion</dimension>
   <field type="string">element</field>
   <field type="int">atomtype</field>
   <set>
    <rc><c>Ti</c><c>   1</c></rc>
    <rc><c>Ti</c><c>   1</c></rc>
    <rc><c>Ti</c><c>   1</c></rc>
    <rc><c>Ti</c><c>   1</c></rc>
    <rc><c>Ti</c><c>   1</c></rc>
    <rc><c>Ti</c><c>   1</c></rc>
    <rc><c>Ti</c><c>   1</c></rc>
    <rc><c>Ti</c><c>   1</c></rc>
    <rc><c>Al</c><c>   2</c></rc>
    <rc><c>Al</c><c>   2</c></rc>
    <rc><c>Al</c><c>   2</c></rc>
    <rc><c>Al</c><c>   2</c></rc>
    <rc><c>Al</c><c>   2</c></rc>
    <rc><c>Al</c><c>   2</c></rc>
    <rc><c>Al</c><c>   2</c></rc>
    <rc><c>Al</c><c>   2</c></rc>
    <rc><c>Ga</c><c>   3</c></rc>
    <rc><c>Ga</c><c>   3</c></rc>
    <rc><c>Ga</c><c>   3</c></rc>
    <rc><c>Ga</c><c>   3</c></rc>
    <rc><c>Ga</c><c>   3</c></rc>
    <rc><c>Ga</c><c>   3</c></rc>
    <rc><c>Ga</c><c>   3</c></rc>
    <rc><c>Ga</c><c>   3</c></rc>
   </set>
  </array>
  <array name="atomtypes" >
   <dimension dim="1">type</dimension>
   <field type="int">atomspertype</field>
   <field type="string">element</field>
   <field>mass</field>
   <field>valence</field>
   <field type="string">pseudopotential</field>
   <set>
    <rc><c>   8</c><c>Ti</c><c>     47.88000000</c><c>     12.00000000</c><c>  PAW_PBE Ti_sv 26Sep2005               </c></rc>
    <rc><c>   8</c><c>Al</c><c>     26.98100000</c><c>      3.00000000</c><c>  PAW_PBE Al 04Jan2001                  </c></rc>
    <rc><c>   8</c><c>Ga</c><c>     69.72300000</c><c>     13.00000000</c><c>  PAW_PBE Ga_d 06Jul2010                </c></rc>
   </set>
  </array>
 </atominfo>
 <structure name="initialpos" >
  <crystal>
   <varray name="basis" >
    <v>       5.65068177       0.00000000       0.00000000 </v>
    <v>       0.00000000       5.65068177       0.00000000 </v>
    <v>       0.00000000       0.00000000       8.12462919 </v>
   </varray>
   <i name="volume">    259.42107139 </i>
   <varray name="rec_basis" >
    <v>       0.17696980       0.00000000       0.00000000 </v>
    <v>       0.00000000       0.17696980       0.00000000 </v>
    <v>       0.00000000       0.00000000       0.12308254 </v>
   </varray>
  </crystal>
  <varray name="positions" >
   <v>       0.00000000       0.00000000       0.00000000 </v>
   <v>       0.00000000       0.00000000       0.50000000 </v>
   <v>       0.00000000       0.50000000       0.00000000 </v>
   <v>       0.00000000       0.50000000       0.50000000 </v>
   <v>       0.50000000       0.00000000       0.00000000 </v>
   <v>       0.50000000       0.00000000       0.50000000 </v>
   <v>       0.50000000       0.50000000       0.00000000 </v>
   <v>       0.50000000       0.50000000       0.50000000 </v>
   <v>       0.25000000       0.25000000       0.25000000 </v>
   <v>       0.25000000       0.25000000       0.75000000 </v>
   <v>       0.25000000       0.75000000       0.25000000 </v>
   <v>       0.25000000       0.75000000       0.75000000 </v>
   <v>       0.75000000       0.25000000       0.25000000 </v>
   <v>       0.75000000       0.25000000       0.75000000 </v>
   <v>       0.75000000       0.75000000       0.25000000 </v>
   <v>       0.75000000       0.75000000       0.75000000 </v>
   <v>       0.25000000       0.25000000       0.25000000 </v>
   <v>       0.25000000       0.25000000       0.75000000 </v>
   <v>       0.25000000       0.75000000       0.25000000 </v>
   <v>       0.25000000       0.75000000       0.75000000 </v>
   <v>       0.75000000       0.25000000       0.25000000 </v>
   <v>       0.75000000       0.25000000       0.75000000 </v>
   <v>       0.75000000       0.75000000       0.25000000 </v>
   <v>       0.75000000       0.75000000       0.75000000 </v>
  </varray>
 </structure>
 <calculation>
  <scstep>
   <time name="dav">    4.58    4.58</time>
   <time name="total">    4.59    4.59</time>
   <energy>
    <i name="alphaZ">    314.35736413 </i>
    <i name="ewald">  -8862.31031354 </i>
    <i name="hartreedc">  -4096.19214618 </i>
    <i name="XCdc">    291.58238999 </i>
    <i name="pawpsdc">  10892.03567380 </i>
    <i name="pawaedc"> -10538.20148631 </i>
    <i name="eentropy">      0.00165113 </i>
    <i name="bandstr">   -276.36214718 </i>
    <i name="atom">  13468.23009085 </i>
    <i name="e_fr_energy">   1193.14107669 </i>
    <i name="e_wo_entrp">   1193.13942556 </i>
    <i name="e_0_energy">   1193.14052632 </i>
   </energy>
  </scstep>
  <scstep>
   <time name="dav">    4.66    4.66</time>
   <time name="total">    4.66    4.66</time>
   <energy>
    <i name="e_fr_energy">    171.76687542 </i>
    <i name="e_wo_entrp">    171.76259128 </i>
    <i name="e_0_energy">    171.76544738 </i>
   </energy>
  </scstep>
  <scstep>
   <time name="dav">   11.33   11.33</time>
   <time name="total">   11.33   11.34</time>
   <energy>
    <i name="e_fr_energy">     72.94148098 </i>
    <i name="e_wo_entrp">     72.95307105 </i>
    <i name="e_0_energy">     72.94534434 </i>
   </energy>
  </scstep>
  <scstep>
   <time name="dav">    5.21    5.21</time>
   <time name="total">    5.21    5.21</time>
   <energy>
    <i name="e_fr_energy">     68.65269899 </i>
    <i name="e_wo_entrp">     68.66181280 </i>
    <i name="e_0_energy">     68.65573692 </i>
   </energy>
  </scstep>
  <scstep>
   <time name="dav">    9.33    9.34</time>
   <time name="total">    9.40    9.40</time>
   <energy>
    <i name="e_fr_energy">     68.38112541 </i>
    <i name="e_wo_entrp">     68.39012745 </i>
    <i name="e_0_energy">     68.38412609 </i>
   </energy>
  </scstep>
  <scstep>
   <time name="dav">    8.07    8.07</time>
   <time name="total">    8.16    8.16</time>
   <energy>
    <i name="e_fr_energy">    112.36864767 </i>
    <i name="e_wo_entrp">    112.36875484 </i>
    <i name="e_0_energy">    112.36868340 </i>
   </energy>
  </scstep>
  <scstep>
   <time name="dav">    7.69    7.69</time>
   <time name="total">    7.77    7.77</time>
   <energy>
    <i name="e_fr_energy">    124.61881213 </i>
    <i name="e_wo_entrp">    124.61051538 </i>
    <i name="e_0_energy">    124.61604655 </i>
   </energy>
  </scstep>
  <scstep>
   <time name="dav">   11.23   11.23</time>
   <time name="total">   11.31   11.32</time>
   <energy>
    <i name="e_fr_energy">    101.18924783 </i>
    <i name="e_wo_entrp">    101.92671250 </i>
    <i name="e_0_energy">    101.43506938 </i>
   </energy>
  </scstep>
  <scstep>
   <time name="dav">    7.79    7.80</time>
   <time name="total">    7.88    7.88</time>
   <energy>
    <i name="e_fr_energy">    113.74569759 </i>
    <i name="e_wo_entrp">    114.20275683 </i>
    <i name="e_0_energy">    113.89805067 </i>
   </energy>
  </scstep>
  <scstep>
   <time name="dav">    9.17    9.17</time>
   <time name="total">    9.25    9.25</time>
   <energy>
    <i name="e_fr_energy">    113.35768229 </i>
    <i name="e_wo_entrp">    113.79073232 </i>
    <i name="e_0_energy">    113.50203230 </i>
   </energy>
  </scstep>
  <scstep>
   <time name="dav">    9.60    9.60</time>
   <time name="total">    9.69    9.69</time>
   <energy>
    <i name="e_fr_energy">    107.20584791 </i>
    <i name="e_wo_entrp">    107.66332725 </i>
    <i name="e_0_energy">    107.35834102 </i>
   </energy>
  </scstep>
  <scstep>
   <time name="dav">   10.31   10.31</time>
   <time name="total">   10.39   10.39</time>
   <energy>
    <i name="e_fr_energy">     91.82108697 </i>
    <i name="e_wo_entrp">     92.90530593 </i>
    <i name="e_0_energy">     92.18249329 </i>
   </energy>
  </scstep>
  <scstep>
   <time name="dav">   10.84   10.84</time>
   <time name="total">   10.93   10.93</time>
   <energy>
    <i name="e_fr_energy">     79.53424210 </i>
    <i name="e_wo_entrp">     80.80188165 </i>
    <i name="e_0_energy">     79.95678862 </i>
   </energy>
  </scstep>
  <scstep>
   <time name="dav">    9.61    9.61</time>
   <time name="total">    9.69    9.69</time>
   <energy>
    <i name="e_fr_energy">     73.85241058 </i>
    <i name="e_wo_entrp">     75.24765604 </i>
    <i name="e_0_energy">     74.31749240 </i>
   </energy>
  </scstep>
  <scstep>
   <time name="dav">   10.35   10.35</time>
   <time name="total">   10.43   10.43</time>
   <energy>
    <i name="e_fr_energy">     50.66706617 </i>
    <i name="e_wo_entrp">     52.12871083 </i>
    <i name="e_0_energy">     51.15428106 </i>
   </energy>
  </scstep>
  <scstep>
   <time name="dav">   10.38   10.38</time>
   <time name="total">   10.46   10.46</time>
   <energy>
    <i name="e_fr_energy">    -13.83427534 </i>
    <i name="e_wo_entrp">    -11.99975415 </i>
    <i name="e_0_energy">    -13.22276828 </i>
   </energy>
  </scstep>
  <scstep>
   <time name="dav">    7.06    7.06</time>
   <time name="total">    7.14    7.14</time>
   <energy>
    <i name="e_fr_energy">      7.52721951 </i>
    <i name="e_wo_entrp">      9.36620507 </i>
    <i name="e_0_energy">      8.14021470 </i>
   </energy>
  </scstep>
  <scstep>
   <time name="dav">   10.15   10.15</time>
   <time name="total">   10.23   10.23</time>
   <energy>
    <i name="e_fr_energy">     70.34433093 </i>
    <i name="e_wo_entrp">     71.58580329 </i>
    <i name="e_0_energy">     70.75815505 </i>
   </energy>
  </scstep>
  <scstep>
   <time name="dav">    9.82    9.82</time>
   <time name="total">    9.90    9.91</time>
   <energy>
    <i name="e_fr_energy">     77.49763780 </i>
    <i name="e_wo_entrp">     78.92437965 </i>
    <i name="e_0_energy">     77.97321842 </i>
   </energy>
  </scstep>
  <scstep>
   <time name="dav">    8.87    8.87</time>
   <time name="total">    8.95    8.95</time>
   <energy>
    <i name="e_fr_energy">     54.93672336 </i>
    <i name="e_wo_entrp">     56.66488996 </i>
    <i name="e_0_energy">     55.51277889 </i>
   </energy>
  </scstep>
  <scstep>
   <time name="dav">    9.84    9.84</time>
   <time name="total">    9.92    9.92</time>
   <energy>
    <i name="e_fr_energy">     13.75498516 </i>
    <i name="e_wo_entrp">     15.69701296 </i>
    <i name="e_0_energy">     14.40232776 </i>
   </energy>
  </scstep>
  <scstep>
   <time name="dav">    9.87    9.87</time>
   <time name="total">    9.96    9.96</time>
   <energy>
    <i name="e_fr_energy">    -11.78121875 </i>
    <i name="e_wo_entrp">     -9.82745029 </i>
    <i name="e_0_energy">    -11.12996260 </i>
   </energy>
  </scstep>
  <scstep>
   <time name="dav">    8.28    8.28</time>
   <time name="total">    8.36    8.36</time>
   <energy>
    <i name="e_fr_energy">    -55.22384233 </i>
    <i name="e_wo_entrp">    -53.32719967 </i>
    <i name="e_0_energy">    -54.59162811 </i>
   </energy>
  </scstep>
  <scstep>
   <time name="dav">    9.90    9.90</time>
   <time name="total">    9.98    9.98</time>
   <energy>
    <i name="e_fr_energy">    -55.63294655 </i>
    <i name="e_wo_entrp">    -53.72462286 </i>
    <i name="e_0_energy">    -54.99683865 </i>
   </energy>
  </scstep>
  <scstep>
   <time name="dav">    7.67    7.67</time>
   <time name="total">    7.75    7.75</time>
   <energy>
    <i name="e_fr_energy">    -22.27337148 </i>
    <i name="e_wo_entrp">    -20.38339781 </i>
    <i name="e_0_energy">    -21.64338026 </i>
   </energy>
  </scstep>
  <scstep>
   <time name="dav">   10.29   10.29</time>
   <time name="total">   10.38   10.38</time>
   <energy>
    <i name="e_fr_energy">     29.59861671 </i>
    <i name="e_wo_entrp">     31.37102560 </i>
    <i name="e_0_energy">     30.18941967 </i>
   </energy>
  </scstep>
  <scstep>
   <time name="dav">    6.78    6.78</time>
   <time name="total">    6.86    6.86</time>
   <energy>
    <i name="e_fr_energy">     30.08005695 </i>
    <i name="e_wo_entrp">     31.72180120 </i>
    <i name="e_0_energy">     30.62730503 </i>
   </energy>
  </scstep>
  <scstep>
   <time name="dav">    7.92    7.92</time>
   <time name="total">    8.00    8.00</time>
   <energy>
    <i name="e_fr_energy">     42.82919167 </i>
    <i name="e_wo_entrp">     44.26671633 </i>
    <i name="e_0_energy">     43.30836656 </i>
   </energy>
  </scstep>
  <scstep>
   <time name="dav">   11.14   11.14</time>
   <time name="total">   11.22   11.22</time>
   <energy>
    <i name="e_fr_energy">    134.13622259 </i>
    <i name="e_wo_entrp">    134.43236865 </i>
    <i name="e_0_energy">    134.23493794 </i>
   </energy>
  </scstep>
  <scstep>
   <time name="dav">    8.41    8.41</time>
   <time name="total">    8.49    8.49</time>
   <energy>
    <i name="e_fr_energy">    130.74633655 </i>
    <i name="e_wo_entrp">    130.74791775 </i>
    <i name="e_0_energy">    130.74686362 </i>
   </energy>
  </scstep>
  <scstep>
   <time name="dav">    8.27    8.27</time>
   <time name="total">    8.35    8.35</time>
   <energy>
    <i name="e_fr_energy">    114.76910059 </i>
    <i name="e_wo_entrp">    115.51466168 </i>
    <i name="e_0_energy">    115.01762096 </i>
   </energy>
  </scstep>
  <scstep>
   <time name="dav">    7.49    7.49</time>
   <time name="total">    7.57    7.57</time>
   <energy>
    <i name="e_fr_energy">    126.05576614 </i>
    <i name="e_wo_entrp">    125.79102113 </i>
    <i name="e_0_energy">    125.96751781 </i>
   </energy>
  </scstep>
  <scstep>
   <time name="dav">    8.80    8.80</time>
   <time name="total">    8.88    8.88</time>
   <energy>
    <i name="e_fr_energy">    118.33570250 </i>
    <i name="e_wo_entrp">    118.81626748 </i>
    <i name="e_0_energy">    118.49589082 </i>
   </energy>
  </scstep>
  <scstep>
   <time name="dav">    7.90    7.90</time>
   <time name="total">    7.98    7.98</time>
   <energy>
    <i name="e_fr_energy">    123.58058368 </i>
    <i name="e_wo_entrp">    123.60778415 </i>
    <i name="e_0_energy">    123.58965051 </i>
   </energy>
  </scstep>
  <scstep>
   <time name="dav">    9.34    9.34</time>
   <time name="total">    9.42    9.42</time>
   <energy>
    <i name="e_fr_energy">    122.18753559 </i>
    <i name="e_wo_entrp">    122.33215422 </i>
    <i name="e_0_energy">    122.23574180 </i>
   </energy>
  </scstep>
  <scstep>
   <time name="dav">   10.67   10.67</time>
   <time name="total">   10.76   10.76</time>
   <energy>
    <i name="e_fr_energy">    124.16405420 </i>
    <i name="e_wo_entrp">    124.12018435 </i>
    <i name="e_0_energy">    124.14943092 </i>
   </energy>
  </scstep>
  <scstep>
   <time name="dav">    9.37    9.37</time>
   <time name="total">    9.45    9.46</time>
   <energy>
    <i name="e_fr_energy">    123.12546314 </i>
    <i name="e_wo_entrp">    123.18200386 </i>
    <i name="e_0_energy">    123.14431005 </i>
   </energy>
  </scstep>
  <scstep>
   <time name="dav">    7.95    7.95</time>
   <time name="total">    8.03    8.03</time>
   <energy>
    <i name="e_fr_energy">    123.08080355 </i>
    <i name="e_wo_entrp">    123.12181969 </i>
    <i name="e_0_energy">    123.09447560 </i>
   </energy>
  </scstep>
  <scstep>
   <time name="dav">    7.60    7.60</time>
   <time name="total">    7.68    7.68</time>
   <energy>
    <i name="e_fr_energy">    123.47877997 </i>
    <i name="e_wo_entrp">    123.48045067 </i>
    <i name="e_0_energy">    123.47933687 </i>
   </energy>
  </scstep>
  <scstep>
   <time name="dav">    9.38    9.38</time>
   <time name="total">    9.46    9.46</time>
   <energy>
    <i name="e_fr_energy">    123.63641412 </i>
    <i name="e_wo_entrp">    123.62008231 </i>
    <i name="e_0_energy">    123.63097019 </i>
   </energy>
  </scstep>
  <scstep>
   <time name="dav">    9.28    9.28</time>
   <time name="total">    9.37    9.37</time>
   <energy>
    <i name="e_fr_energy">    123.47794806 </i>
    <i name="e_wo_entrp">    123.46670672 </i>
    <i name="e_0_energy">    123.47420094 </i>
   </energy>
  </scstep>
  <scstep>
   <time name="dav">    9.09    9.09</time>
   <time name="total">    9.18    9.18</time>
   <energy>
    <i name="e_fr_energy">    122.12093195 </i>
    <i name="e_wo_entrp">    122.20886475 </i>
    <i name="e_0_energy">    122.15024288 </i>
   </energy>
  </scstep>
  <scstep>
   <time name="dav">    7.80    7.80</time>
   <time name="total">    7.88    7.88</time>
   <energy>
    <i name="e_fr_energy">    122.97286274 </i>
    <i name="e_wo_entrp">    122.96102472 </i>
    <i name="e_0_energy">    122.96891673 </i>
   </energy>
  </scstep>
  <scstep>
   <time name="dav">   10.00   10.00</time>
   <time name="total">   10.08   10.08</time>
   <energy>
    <i name="e_fr_energy">    123.52798491 </i>
    <i name="e_wo_entrp">    123.44571292 </i>
    <i name="e_0_energy">    123.50056091 </i>
   </energy>
  </scstep>
  <scstep>
   <time name="dav">    7.71    7.71</time>
   <time name="total">    7.79    7.79</time>
   <energy>
    <i name="e_fr_energy">    123.17096174 </i>
    <i name="e_wo_entrp">    123.13069379 </i>
    <i name="e_0_energy">    123.15753909 </i>
   </energy>
  </scstep>
  <scstep>
   <time name="dav">    9.31    9.31</time>
   <time name="total">    9.39    9.39</time>
   <energy>
    <i name="e_fr_energy">    125.45399422 </i>
    <i name="e_wo_entrp">    125.24873242 </i>
    <i name="e_0_energy">    125.38557362 </i>
   </energy>
  </scstep>
  <scstep>
   <time name="dav">    9.65    9.65</time>
   <time name="total">    9.73    9.73</time>
   <energy>
    <i name="e_fr_energy">    127.02859560 </i>
    <i name="e_wo_entrp">    126.91015240 </i>
    <i name="e_0_energy">    126.98911454 </i>
   </energy>
  </scstep>
  <scstep>
   <time name="dav">    9.38    9.38</time>
   <time name="total">    9.46    9.46</time>
   <energy>
    <i name="e_fr_energy">    127.35356180 </i>
    <i name="e_wo_entrp">    127.26746976 </i>
    <i name="e_0_energy">    127.32486445 </i>
   </energy>
  </scstep>
  <scstep>
   <time name="dav">    7.81    7.81</time>
   <time name="total">    7.89    7.89</time>
   <energy>
    <i name="e_fr_energy">    127.42304991 </i>
    <i name="e_wo_entrp">    127.33184876 </i>
    <i name="e_0_energy">    127.39264953 </i>
   </energy>
  </scstep>
  <scstep>
   <time name="dav">    8.26    8.26</time>
   <time name="total">    8.34    8.34</time>
   <energy>
    <i name="e_fr_energy">    128.08935639 </i>
    <i name="e_wo_entrp">    128.04313615 </i>
    <i name="e_0_energy">    128.07394965 </i>
   </energy>
  </scstep>
  <scstep>
   <time name="dav">    8.83    8.83</time>
   <time name="total">    8.92    8.92</time>
   <energy>
    <i name="e_fr_energy">    128.80025110 </i>
    <i name="e_wo_entrp">    128.79924251 </i>
    <i name="e_0_energy">    128.79991490 </i>
   </energy>
  </scstep>
  <scstep>
   <time name="dav">   11.59   11.59</time>
   <time name="total">   11.67   11.67</time>
   <energy>
    <i name="e_fr_energy">    129.28604262 </i>
    <i name="e_wo_entrp">    129.29308983 </i>
    <i name="e_0_energy">    129.28839169 </i>
   </energy>
  </scstep>
  <scstep>
   <time name="dav">    7.94    7.94</time>
   <time name="total">    8.02    8.03</time>
   <energy>
    <i name="e_fr_energy">    129.63352513 </i>
    <i name="e_wo_entrp">    129.63976854 </i>
    <i name="e_0_energy">    129.63560627 </i>
   </energy>
  </scstep>
  <scstep>
   <time name="dav">    9.73    9.73</time>
   <time name="total">    9.81    9.81</time>
   <energy>
    <i name="e_fr_energy">    129.75896536 </i>
    <i name="e_wo_entrp">    129.76518689 </i>
    <i name="e_0_energy">    129.76103921 </i>
   </energy>
  </scstep>
  <scstep>
   <time name="dav">   11.38   11.38</time>
   <time name="total">   11.46   11.46</time>
   <energy>
    <i name="e_fr_energy">    129.97383600 </i>
    <i name="e_wo_entrp">    129.97364708 </i>
    <i name="e_0_energy">    129.97377302 </i>
   </energy>
  </scstep>
  <scstep>
   <time name="dav">   11.26   11.26</time>
   <time name="total">   11.34   11.34</time>
   <energy>
    <i name="e_fr_energy">    130.06718839 </i>
    <i name="e_wo_entrp">    130.06399184 </i>
    <i name="e_0_energy">    130.06612288 </i>
   </energy>
  </scstep>
  <scstep>
   <time name="dav">    8.04    8.04</time>
   <time name="total">    8.12    8.13</time>
   <energy>
    <i name="e_fr_energy">    130.11240712 </i>
    <i name="e_wo_entrp">    130.11001163 </i>
    <i name="e_0_energy">    130.11160862 </i>
   </energy>
  </scstep>
  <scstep>
   <time name="dav">    8.48    8.49</time>
   <time name="total">    8.57    8.57</time>
   <energy>
    <i name="e_fr_energy">    130.18993699 </i>
    <i name="e_wo_entrp">    130.18764728 </i>
    <i name="e_0_energy">    130.18917375 </i>
   </energy>
  </scstep>
  <scstep>
   <time name="dav">   11.46   11.46</time>
   <time name="total">   11.55   11.55</time>
   <energy>
    <i name="e_fr_energy">    130.21946820 </i>
    <i name="e_wo_entrp">    130.21625548 </i>
    <i name="e_0_energy">    130.21839730 </i>
   </energy>
  </scstep>
  <scstep>
   <time name="dav">   11.27   11.28</time>
   <time name="total">   11.36   11.36</time>
   <energy>
    <i name="e_fr_energy">    130.24756567 </i>
    <i name="e_wo_entrp">    130.24374396 </i>
    <i name="e_0_energy">    130.24629177 </i>
   </energy>
  </scstep>
  <scstep>
   <time name="dav">    9.93    9.93</time>
   <time name="total">   10.01   10.01</time>
   <energy>
    <i name="e_fr_energy">    130.26170846 </i>
    <i name="e_wo_entrp">    130.25798681 </i>
    <i name="e_0_energy">    130.26046791 </i>
   </energy>
  </scstep>
  <scstep>
   <time name="dav">   11.10   11.10</time>
   <time name="total">   11.19   11.19</time>
   <energy>
    <i name="e_fr_energy">    130.26481460 </i>
    <i name="e_wo_entrp">    130.26103009 </i>
    <i name="e_0_energy">    130.26355310 </i>
   </energy>
  </scstep>
  <scstep>
   <time name="dav">   10.35   10.35</time>
   <time name="total">   10.44   10.44</time>
   <energy>
    <i name="e_fr_energy">    130.26936926 </i>
    <i name="e_wo_entrp">    130.26555670 </i>
    <i name="e_0_energy">    130.26809841 </i>
   </energy>
  </scstep>
  <scstep>
   <time name="dav">    8.06    8.06</time>
   <time name="total">    8.15    8.15</time>
   <energy>
    <i name="e_fr_energy">    130.26893928 </i>
    <i name="e_wo_entrp">    130.26493137 </i>
    <i name="e_0_energy">    130.26760331 </i>
   </energy>
  </scstep>
  <scstep>
   <time name="dav">   10.03   10.03</time>
   <time name="total">   10.11   10.11</time>
   <energy>
    <i name="e_fr_energy">    130.26948246 </i>
    <i name="e_wo_entrp">    130.26545449 </i>
    <i name="e_0_energy">    130.26813981 </i>
   </energy>
  </scstep>
  <scstep>
   <time name="dav">    7.97    7.97</time>
   <time name="total">    8.05    8.05</time>
   <energy>
    <i name="e_fr_energy">    130.28066972 </i>
    <i name="e_wo_entrp">    130.27713556 </i>
    <i name="e_0_energy">    130.27949167 </i>
   </energy>
  </scstep>
  <scstep>
   <time name="dav">    8.30    8.31</time>
   <time name="total">    8.39    8.39</time>
   <energy>
    <i name="e_fr_energy">    130.27407733 </i>
    <i name="e_wo_entrp">    130.27107978 </i>
    <i name="e_0_energy">    130.27307814 </i>
   </energy>
  </scstep>
  <scstep>
   <time name="dav">    8.17    8.18</time>
   <time name="total">    8.26    8.26</time>
   <energy>
    <i name="e_fr_energy">    130.27427643 </i>
    <i name="e_wo_entrp">    130.27112220 </i>
    <i name="e_0_energy">    130.27322502 </i>
   </energy>
  </scstep>
  <scstep>
   <time name="dav">   11.14   11.14</time>
   <time name="total">   11.22   11.22</time>
   <energy>
    <i name="e_fr_energy">    130.28873144 </i>
    <i name="e_wo_entrp">    130.28495586 </i>
    <i name="e_0_energy">    130.28747292 </i>
   </energy>
  </scstep>
  <scstep>
   <time name="dav">   11.38   11.38</time>
   <time name="total">   11.47   11.47</time>
   <energy>
    <i name="e_fr_energy">    130.30035856 </i>
    <i name="e_wo_entrp">    130.29608669 </i>
    <i name="e_0_energy">    130.29893460 </i>
   </energy>
  </scstep>
  <scstep>
   <time name="dav">    7.84    7.84</time>
   <time name="total">    7.92    7.92</time>
   <energy>
    <i name="e_fr_energy">    130.30583135 </i>
    <i name="e_wo_entrp">    130.30166136 </i>
    <i name="e_0_energy">    130.30444135 </i>
   </energy>
  </scstep>
  <scstep>
   <time name="dav">   11.49   11.49</time>
   <time name="total">   11.58   11.58</time>
   <energy>
    <i name="e_fr_energy">    130.30732610 </i>
    <i name="e_wo_entrp">    130.30307330 </i>
    <i name="e_0_energy">    130.30590850 </i>
   </energy>
  </scstep>
  <scstep>
   <time name="dav">   11.24   11.24</time>
   <time name="total">   11.32   11.32</time>
   <energy>
    <i name="e_fr_energy">    130.30843128 </i>
    <i name="e_wo_entrp">    130.30411289 </i>
    <i name="e_0_energy">    130.30699181 </i>
   </energy>
  </scstep>
  <scstep>
   <time name="dav">   10.74   10.74</time>
   <time name="total">   10.83   10.83</time>
   <energy>
    <i name="e_fr_energy">    130.30993780 </i>
    <i name="e_wo_entrp">    130.30555896 </i>
    <i name="e_0_energy">    130.30847819 </i>
   </energy>
  </scstep>
  <scstep>
   <time name="dav">   11.01   11.01</time>
   <time name="total">   11.09   11.10</time>
   <energy>
    <i name="e_fr_energy">    130.31110368 </i>
    <i name="e_wo_entrp">    130.30670213 </i>
    <i name="e_0_energy">    130.30963650 </i>
   </energy>
  </scstep>
  <scstep>
   <time name="dav">   10.85   10.85</time>
   <time name="total">   10.94   10.94</time>
   <energy>
    <i name="e_fr_energy">    130.31293244 </i>
    <i name="e_wo_entrp">    130.30845544 </i>
    <i name="e_0_energy">    130.31144011 </i>
   </energy>
  </scstep>
  <scstep>
   <time name="dav">    9.35    9.35</time>
   <time name="total">    9.43    9.43</time>
   <energy>
    <i name="e_fr_energy">    130.31488013 </i>
    <i name="e_wo_entrp">    130.31032448 </i>
    <i name="e_0_energy">    130.31336158 </i>
   </energy>
  </scstep>
  <scstep>
   <time name="dav">    9.76    9.77</time>
   <time name="total">    9.85    9.85</time>
   <energy>
    <i name="e_fr_energy">    130.31660213 </i>
    <i name="e_wo_entrp">    130.31195128 </i>
    <i name="e_0_energy">    130.31505185 </i>
   </energy>
  </scstep>
  <scstep>
   <time name="dav">    9.66    9.66</time>
   <time name="total">    9.75    9.75</time>
   <energy>
    <i name="e_fr_energy">    130.31750499 </i>
    <i name="e_wo_entrp">    130.31275472 </i>
    <i name="e_0_energy">    130.31592156 </i>
   </energy>
  </scstep>
  <scstep>
   <time name="dav">   11.34   11.35</time>
   <time name="total">   11.43   11.43</time>
   <energy>
    <i name="e_fr_energy">    130.31741144 </i>
    <i name="e_wo_entrp">    130.31261941 </i>
    <i name="e_0_energy">    130.31581409 </i>
   </energy>
  </scstep>
  <scstep>
   <time name="dav">    9.65    9.65</time>
   <time name="total">    9.73    9.73</time>
   <energy>
    <i name="e_fr_energy">    130.31614559 </i>
    <i name="e_wo_entrp">    130.31128681 </i>
    <i name="e_0_energy">    130.31452600 </i>
   </energy>
  </scstep>
  <scstep>
   <time name="dav">   10.69   10.69</time>
   <time name="total">   10.77   10.77</time>
   <energy>
    <i name="e_fr_energy">    130.31579831 </i>
    <i name="e_wo_entrp">    130.31093013 </i>
    <i name="e_0_energy">    130.31417558 </i>
   </energy>
  </scstep>
  <scstep>
   <time name="dav">    9.04    9.04</time>
   <time name="total">    9.13    9.13</time>
   <energy>
    <i name="e_fr_energy">    130.31582919 </i>
    <i name="e_wo_entrp">    130.31097840 </i>
    <i name="e_0_energy">    130.31421226 </i>
   </energy>
  </scstep>
  <scstep>
   <time name="dav">   11.23   11.23</time>
   <time name="total">   11.32   11.32</time>
   <energy>
    <i name="e_fr_energy">    130.31639462 </i>
    <i name="e_wo_entrp">    130.31160853 </i>
    <i name="e_0_energy">    130.31479926 </i>
   </energy>
  </scstep>
  <scstep>
   <time name="dav">   10.03   10.03</time>
   <time name="total">   10.12   10.12</time>
   <energy>
    <i name="e_fr_energy">    130.31699878 </i>
    <i name="e_wo_entrp">    130.31226951 </i>
    <i name="e_0_energy">    130.31542236 </i>
   </energy>
  </scstep>
  <scstep>
   <time name="dav">    9.63    9.63</time>
   <time name="total">    9.71    9.71</time>
   <energy>
    <i name="e_fr_energy">    130.31770857 </i>
    <i name="e_wo_entrp">    130.31304203 </i>
    <i name="e_0_energy">    130.31615306 </i>
   </energy>
  </scstep>
  <scstep>
   <time name="dav">   11.37   11.37</time>
   <time name="total">   11.46   11.46</time>
   <energy>
    <i name="e_fr_energy">    130.31794056 </i>
    <i name="e_wo_entrp">    130.31332843 </i>
    <i name="e_0_energy">    130.31640318 </i>
   </energy>
  </scstep>
  <scstep>
   <time name="dav">   10.54   10.54</time>
   <time name="total">   10.62   10.62</time>
   <energy>
    <i name="e_fr_energy">    130.31806115 </i>
    <i name="e_wo_entrp">    130.31349200 </i>
    <i name="e_0_energy">    130.31653810 </i>
   </energy>
  </scstep>
  <scstep>
   <time name="dav">   11.48   11.48</time>
   <time name="total">   11.57   11.57</time>
   <energy>
    <i name="e_fr_energy">    130.31808980 </i>
    <i name="e_wo_entrp">    130.31355411 </i>
    <i name="e_0_energy">    130.31657790 </i>
   </energy>
  </scstep>
  <scstep>
   <time name="dav">    8.17    8.17</time>
   <time name="total">    8.26    8.26</time>
   <energy>
    <i name="e_fr_energy">    130.31809065 </i>
    <i name="e_wo_entrp">    130.31356339 </i>
    <i name="e_0_energy">    130.31658156 </i>
   </energy>
  </scstep>
  <scstep>
   <time name="dav">    7.19    7.20</time>
   <time name="total">    7.21    7.21</time>
   <energy>
    <i name="alphaZ">    314.35736413 </i>
    <i name="ewald">  -8862.31031354 </i>
    <i name="hartreedc">  -3877.00744827 </i>
    <i name="XCdc">    284.69509283 </i>
    <i name="pawpsdc">  12513.74835247 </i>
    <i name="pawaedc"> -12079.71522404 </i>
    <i name="eentropy">      0.00452285 </i>
    <i name="bandstr">  -1631.68434675 </i>
    <i name="atom">  13468.23009085 </i>
    <i name="e_fr_energy">    130.31809052 </i>
    <i name="e_wo_entrp">    130.31356767 </i>
    <i name="e_0_energy">    130.31658291 </i>
   </energy>
  </scstep>
  <structure>
   <crystal>
    <varray name="basis" >
     <v>       5.65068177       0.00000000       0.00000000 </v>
     <v>       0.00000000       5.65068177       0.00000000 </v>
     <v>       0.00000000       0.00000000       8.12462919 </v>
    </varray>
    <i name="volume">    259.42107139 </i>
    <varray name="rec_basis" >
     <v>       0.17696980       0.00000000       0.00000000 </v>
     <v>       0.00000000       0.17696980       0.00000000 </v>
     <v>       0.00000000       0.00000000       0.12308254 </v>
    </varray>
   </crystal>
   <varray name="positions" >
    <v>       0.00000000       0.00000000       0.00000000 </v>
    <v>       0.00000000       0.00000000       0.50000000 </v>
    <v>       0.00000000       0.50000000       0.00000000 </v>
    <v>       0.00000000       0.50000000       0.50000000 </v>
    <v>       0.50000000       0.00000000       0.00000000 </v>
    <v>       0.50000000       0.00000000       0.50000000 </v>
    <v>       0.50000000       0.50000000       0.00000000 </v>
    <v>       0.50000000       0.50000000       0.50000000 </v>
    <v>       0.25000000       0.25000000       0.25000000 </v>
    <v>       0.25000000       0.25000000       0.75000000 </v>
    <v>       0.25000000       0.75000000       0.25000000 </v>
    <v>       0.25000000       0.75000000       0.75000000 </v>
    <v>       0.75000000       0.25000000       0.25000000 </v>
    <v>       0.75000000       0.25000000       0.75000000 </v>
    <v>       0.75000000       0.75000000       0.25000000 </v>
    <v>       0.75000000       0.75000000       0.75000000 </v>
    <v>       0.25000000       0.25000000       0.25000000 </v>
    <v>       0.25000000       0.25000000       0.75000000 </v>
    <v>       0.25000000       0.75000000       0.25000000 </v>
    <v>       0.25000000       0.75000000       0.75000000 </v>
    <v>       0.75000000       0.25000000       0.25000000 </v>
    <v>       0.75000000       0.25000000       0.75000000 </v>
    <v>       0.75000000       0.75000000       0.25000000 </v>
    <v>       0.75000000       0.75000000       0.75000000 </v>
   </varray>
  </structure>
  <varray name="forces" >
   <v>      -0.00000000       0.00000000       0.00000000 </v>
   <v>       0.00000000       0.00000000      -0.00000000 </v>
   <v>      -0.00000000       0.00000000      -0.00000000 </v>
   <v>       0.00000000      -0.00000000      -0.00000000 </v>
   <v>       0.00000000      -0.00000000       0.00000000 </v>
   <v>      -0.00000000       0.00000000      -0.00000000 </v>
   <v>       0.00000000       0.00000000      -0.00000000 </v>
   <v>      -0.00000000       0.00000000       0.00000000 </v>
   <v>      -0.00000000      -0.00000000       0.00000000 </v>
   <v>       0.00000000      -0.00000000      -0.00000000 </v>
   <v>       0.00000000       0.00000000      -0.00000000 </v>
   <v>       0.00000000      -0.00000000      -0.00000000 </v>
   <v>      -0.00000000      -0.00000000       0.00000000 </v>
   <v>       0.00000000       0.00000000      -0.00000000 </v>
   <v>       0.00000000       0.00000000       0.00000000 </v>
   <v>      -0.00000000      -0.00000000       0.00000000 </v>
   <v>       0.00000000      -0.00000000      -0.00000000 </v>
   <v>       0.00000000      -0.00000000      -0.00000000 </v>
   <v>       0.00000000      -0.00000000      -0.00000000 </v>
   <v>       0.00000000      -0.00000000      -0.00000000 </v>
   <v>       0.00000000      -0.00000000       0.00000000 </v>
   <v>      -0.00000000       0.00000000      -0.00000000 </v>
   <v>       0.00000000      -0.00000000      -0.00000000 </v>
   <v>       0.00000000      -0.00000000      -0.00000000 </v>
  </varray>
  <varray name="stress" >
   <v>     -36.02765487       0.00000000       0.00000000 </v>
   <v>       0.00000000     -36.02765487       0.00000000 </v>
   <v>       0.00000000       0.00000000     -34.94614617 </v>
  </varray>
  <energy>
   <i name="e_fr_energy">    130.31809052 </i>
   <i name="e_wo_entrp">    130.31356767 </i>
   <i name="e_0_energy">    130.31658291 </i>
  </energy>
  <kpoints>
   <generation param="Gamma">
    <v type="int" name="divisions">       9        9        6 </v>
    <v name="usershift">      0.00000000       0.00000000       0.00000000 </v>
    <v name="genvec1">      0.11111111       0.00000000       0.00000000 </v>
    <v name="genvec2">      0.00000000       0.11111111       0.00000000 </v>
    <v name="genvec3">      0.00000000       0.00000000       0.16666667 </v>
    <v name="shift">      0.00000000       0.00000000       0.00000000 </v>
   </generation>
   <varray name="kpointlist" >
    <v>       0.00000000       0.00000000       0.00000000 </v>
    <v>       0.11111111       0.00000000       0.00000000 </v>
    <v>       0.22222222       0.00000000       0.00000000 </v>
    <v>       0.33333333       0.00000000       0.00000000 </v>
    <v>       0.44444444       0.00000000       0.00000000 </v>
    <v>       0.00000000       0.11111111       0.00000000 </v>
    <v>       0.11111111       0.11111111       0.00000000 </v>
    <v>       0.22222222       0.11111111       0.00000000 </v>
    <v>       0.33333333       0.11111111       0.00000000 </v>
    <v>       0.44444444       0.11111111       0.00000000 </v>
    <v>       0.00000000       0.22222222       0.00000000 </v>
    <v>       0.11111111       0.22222222       0.00000000 </v>
    <v>       0.22222222       0.22222222       0.00000000 </v>
    <v>       0.33333333       0.22222222       0.00000000 </v>
    <v>       0.44444444       0.22222222       0.00000000 </v>
    <v>       0.00000000       0.33333333       0.00000000 </v>
    <v>       0.11111111       0.33333333       0.00000000 </v>
    <v>       0.22222222       0.33333333       0.00000000 </v>
    <v>       0.33333333       0.33333333       0.00000000 </v>
    <v>       0.44444444       0.33333333       0.00000000 </v>
    <v>       0.00000000       0.44444444       0.00000000 </v>
    <v>       0.11111111       0.44444444       0.00000000 </v>
    <v>       0.22222222       0.44444444       0.00000000 </v>
    <v>       0.33333333       0.44444444       0.00000000 </v>
    <v>       0.44444444       0.44444444       0.00000000 </v>
    <v>       0.00000000       0.00000000       0.16666667 </v>
    <v>       0.11111111       0.00000000       0.16666667 </v>
    <v>       0.22222222       0.00000000       0.16666667 </v>
    <v>       0.33333333       0.00000000       0.16666667 </v>
    <v>       0.44444444       0.00000000       0.16666667 </v>
    <v>       0.00000000       0.11111111       0.16666667 </v>
    <v>       0.11111111       0.11111111       0.16666667 </v>
    <v>       0.22222222       0.11111111       0.16666667 </v>
    <v>       0.33333333       0.11111111       0.16666667 </v>
    <v>       0.44444444       0.11111111       0.16666667 </v>
    <v>       0.00000000       0.22222222       0.16666667 </v>
    <v>       0.11111111       0.22222222       0.16666667 </v>
    <v>       0.22222222       0.22222222       0.16666667 </v>
    <v>       0.33333333       0.22222222       0.16666667 </v>
    <v>       0.44444444       0.22222222       0.16666667 </v>
    <v>       0.00000000       0.33333333       0.16666667 </v>
    <v>       0.11111111       0.33333333       0.16666667 </v>
    <v>       0.22222222       0.33333333       0.16666667 </v>
    <v>       0.33333333       0.33333333       0.16666667 </v>
    <v>       0.44444444       0.33333333       0.16666667 </v>
    <v>       0.00000000       0.44444444       0.16666667 </v>
    <v>       0.11111111       0.44444444       0.16666667 </v>
    <v>       0.22222222       0.44444444       0.16666667 </v>
    <v>       0.33333333       0.44444444       0.16666667 </v>
    <v>       0.44444444       0.44444444       0.16666667 </v>
    <v>       0.00000000       0.00000000       0.33333333 </v>
    <v>       0.11111111       0.00000000       0.33333333 </v>
    <v>       0.22222222       0.00000000       0.33333333 </v>
    <v>       0.33333333       0.00000000       0.33333333 </v>
    <v>       0.44444444       0.00000000       0.33333333 </v>
    <v>       0.00000000       0.11111111       0.33333333 </v>
    <v>       0.11111111       0.11111111       0.33333333 </v>
    <v>       0.22222222       0.11111111       0.33333333 </v>
    <v>       0.33333333       0.11111111       0.33333333 </v>
    <v>       0.44444444       0.11111111       0.33333333 </v>
    <v>       0.00000000       0.22222222       0.33333333 </v>
    <v>       0.11111111       0.22222222       0.33333333 </v>
    <v>       0.22222222       0.22222222       0.33333333 </v>
    <v>       0.33333333       0.22222222       0.33333333 </v>
    <v>       0.44444444       0.22222222       0.33333333 </v>
    <v>       0.00000000       0.33333333       0.33333333 </v>
    <v>       0.11111111       0.33333333       0.33333333 </v>
    <v>       0.22222222       0.33333333       0.33333333 </v>
    <v>       0.33333333       0.33333333       0.33333333 </v>
    <v>       0.44444444       0.33333333       0.33333333 </v>
    <v>       0.00000000       0.44444444       0.33333333 </v>
    <v>       0.11111111       0.44444444       0.33333333 </v>
    <v>       0.22222222       0.44444444       0.33333333 </v>
    <v>       0.33333333       0.44444444       0.33333333 </v>
    <v>       0.44444444       0.44444444       0.33333333 </v>
    <v>       0.00000000       0.00000000       0.50000000 </v>
    <v>       0.11111111       0.00000000       0.50000000 </v>
    <v>       0.22222222       0.00000000       0.50000000 </v>
    <v>       0.33333333       0.00000000       0.50000000 </v>
    <v>       0.44444444       0.00000000       0.50000000 </v>
    <v>       0.00000000       0.11111111       0.50000000 </v>
    <v>       0.11111111       0.11111111       0.50000000 </v>
    <v>       0.22222222       0.11111111       0.50000000 </v>
    <v>       0.33333333       0.11111111       0.50000000 </v>
    <v>       0.44444444       0.11111111       0.50000000 </v>
    <v>       0.00000000       0.22222222       0.50000000 </v>
    <v>       0.11111111       0.22222222       0.50000000 </v>
    <v>       0.22222222       0.22222222       0.50000000 </v>
    <v>       0.33333333       0.22222222       0.50000000 </v>
    <v>       0.44444444       0.22222222       0.50000000 </v>
    <v>       0.00000000       0.33333333       0.50000000 </v>
    <v>       0.11111111       0.33333333       0.50000000 </v>
    <v>       0.22222222       0.33333333       0.50000000 </v>
    <v>       0.33333333       0.33333333       0.50000000 </v>
    <v>       0.44444444       0.33333333       0.50000000 </v>
    <v>       0.00000000       0.44444444       0.50000000 </v>
    <v>       0.11111111       0.44444444       0.50000000 </v>
    <v>       0.22222222       0.44444444       0.50000000 </v>
    <v>       0.33333333       0.44444444       0.50000000 </v>
    <v>       0.44444444       0.44444444       0.50000000 </v>
   </varray>
   <varray name="weights" >
    <v>       0.00205761 </v>
    <v>       0.00411523 </v>
    <v>       0.00411523 </v>
    <v>       0.00411523 </v>
    <v>       0.00411523 </v>
    <v>       0.00411523 </v>
    <v>       0.00823045 </v>
    <v>       0.00823045 </v>
    <v>       0.00823045 </v>
    <v>       0.00823045 </v>
    <v>       0.00411523 </v>
    <v>       0.00823045 </v>
    <v>       0.00823045 </v>
    <v>       0.00823045 </v>
    <v>       0.00823045 </v>
    <v>       0.00411523 </v>
    <v>       0.00823045 </v>
    <v>       0.00823045 </v>
    <v>       0.00823045 </v>
    <v>       0.00823045 </v>
    <v>       0.00411523 </v>
    <v>       0.00823045 </v>
    <v>       0.00823045 </v>
    <v>       0.00823045 </v>
    <v>       0.00823045 </v>
    <v>       0.00411523 </v>
    <v>       0.00823045 </v>
    <v>       0.00823045 </v>
    <v>       0.00823045 </v>
    <v>       0.00823045 </v>
    <v>       0.00823045 </v>
    <v>       0.01646091 </v>
    <v>       0.01646091 </v>
    <v>       0.01646091 </v>
    <v>       0.01646091 </v>
    <v>       0.00823045 </v>
    <v>       0.01646091 </v>
    <v>       0.01646091 </v>
    <v>       0.01646091 </v>
    <v>       0.01646091 </v>
    <v>       0.00823045 </v>
    <v>       0.01646091 </v>
    <v>       0.01646091 </v>
    <v>       0.01646091 </v>
    <v>       0.01646091 </v>
    <v>       0.00823045 </v>
    <v>       0.01646091 </v>
    <v>       0.01646091 </v>
    <v>       0.01646091 </v>
    <v>       0.01646091 </v>
    <v>       0.00411523 </v>
    <v>       0.00823045 </v>
    <v>       0.00823045 </v>
    <v>       0.00823045 </v>
    <v>       0.00823045 </v>
    <v>       0.00823045 </v>
    <v>       0.01646091 </v>
    <v>       0.01646091 </v>
    <v>       0.01646091 </v>
    <v>       0.01646091 </v>
    <v>       0.00823045 </v>
    <v>       0.01646091 </v>
    <v>       0.01646091 </v>
    <v>       0.01646091 </v>
    <v>       0.01646091 </v>
    <v>       0.00823045 </v>
    <v>       0.01646091 </v>
    <v>       0.01646091 </v>
    <v>       0.01646091 </v>
    <v>       0.01646091 </v>
    <v>       0.00823045 </v>
    <v>       0.01646091 </v>
    <v>       0.01646091 </v>
    <v>       0.01646091 </v>
    <v>       0.01646091 </v>
    <v>       0.00205761 </v>
    <v>       0.00411523 </v>
    <v>       0.00411523 </v>
    <v>       0.00411523 </v>
    <v>       0.00411523 </v>
    <v>       0.00411523 </v>
    <v>       0.00823045 </v>
    <v>       0.00823045 </v>
    <v>       0.00823045 </v>
    <v>       0.00823045 </v>
    <v>       0.00411523 </v>
    <v>       0.00823045 </v>
    <v>       0.00823045 </v>
    <v>       0.00823045 </v>
    <v>       0.00823045 </v>
    <v>       0.00411523 </v>
    <v>       0.00823045 </v>
    <v>       0.00823045 </v>
    <v>       0.00823045 </v>
    <v>       0.00823045 </v>
    <v>       0.00411523 </v>
    <v>       0.00823045 </v>
    <v>       0.00823045 </v>
    <v>       0.00823045 </v>
    <v>       0.00823045 </v>
   </varray>
  </kpoints>
  <time name="totalsc">  865.41  865.47</time>
 </calculation>
 <calculation>
  <scstep>
   <time name="dav">    8.29    8.29</time>
   <time name="total">    8.41    8.41</time>
   <energy>
    <i name="alphaZ">    309.71168880 </i>
    <i name="ewald">  -8826.18498033 </i>
    <i name="hartreedc">  -3850.76240791 </i>
    <i name="XCdc">    282.18413841 </i>
    <i name="pawpsdc">  12513.75921930 </i>
    <i name="pawaedc"> -12079.72372231 </i>
    <i name="eentropy">      0.00140514 </i>
    <i name="bandstr">  -1687.03304692 </i>
    <i name="atom">  13468.23009085 </i>
    <i name="e_fr_energy">    130.18238503 </i>
    <i name="e_wo_entrp">    130.18097989 </i>
    <i name="e_0_energy">    130.18191665 </i>
   </energy>
  </scstep>
  <scstep>
   <time name="dav">   14.43   14.43</time>
   <time name="total">   14.55   14.55</time>
   <energy>
    <i name="e_fr_energy">    130.46946235 </i>
    <i name="e_wo_entrp">    130.47540480 </i>
    <i name="e_0_energy">    130.47144317 </i>
   </energy>
  </scstep>
  <scstep>
   <time name="dav">   14.38   14.38</time>
   <time name="total">   14.50   14.50</time>
   <energy>
    <i name="e_fr_energy">    130.52239247 </i>
    <i name="e_wo_entrp">    130.51836098 </i>
    <i name="e_0_energy">    130.52104864 </i>
   </energy>
  </scstep>
  <scstep>
   <time name="dav">   15.14   15.14</time>
   <time name="total">   15.26   15.26</time>
   <energy>
    <i name="e_fr_energy">    130.62001822 </i>
    <i name="e_wo_entrp">    130.61918099 </i>
    <i name="e_0_energy">    130.61973914 </i>
   </energy>
  </scstep>
  <scstep>
   <time name="dav">   11.52   11.52</time>
   <time name="total">   11.64   11.64</time>
   <energy>
    <i name="e_fr_energy">    130.61712389 </i>
    <i name="e_wo_entrp">    130.61529175 </i>
    <i name="e_0_energy">    130.61651318 </i>
   </energy>
  </scstep>
  <scstep>
   <time name="dav">   15.87   15.87</time>
   <time name="total">   15.99   15.99</time>
   <energy>
    <i name="e_fr_energy">    130.61481235 </i>
    <i name="e_wo_entrp">    130.61241322 </i>
    <i name="e_0_energy">    130.61401264 </i>
   </energy>
  </scstep>
  <scstep>
   <time name="dav">   13.76   13.76</time>
   <time name="total">   13.88   13.88</time>
   <energy>
    <i name="e_fr_energy">    130.61396218 </i>
    <i name="e_wo_entrp">    130.61148940 </i>
    <i name="e_0_energy">    130.61313792 </i>
   </energy>
  </scstep>
  <scstep>
   <time name="dav">   18.35   18.35</time>
   <time name="total">   18.47   18.47</time>
   <energy>
    <i name="e_fr_energy">    130.61465224 </i>
    <i name="e_wo_entrp">    130.61222905 </i>
    <i name="e_0_energy">    130.61384451 </i>
   </energy>
  </scstep>
  <scstep>
   <time name="dav">   12.00   12.00</time>
   <time name="total">   12.12   12.12</time>
   <energy>
    <i name="e_fr_energy">    130.61469285 </i>
    <i name="e_wo_entrp">    130.61216255 </i>
    <i name="e_0_energy">    130.61384942 </i>
   </energy>
  </scstep>
  <scstep>
   <time name="dav">   17.19   17.19</time>
   <time name="total">   17.31   17.32</time>
   <energy>
    <i name="e_fr_energy">    130.61469408 </i>
    <i name="e_wo_entrp">    130.61215180 </i>
    <i name="e_0_energy">    130.61384666 </i>
   </energy>
  </scstep>
  <scstep>
   <time name="dav">   16.53   16.53</time>
   <time name="total">   16.65   16.65</time>
   <energy>
    <i name="e_fr_energy">    130.61469163 </i>
    <i name="e_wo_entrp">    130.61215297 </i>
    <i name="e_0_energy">    130.61384541 </i>
   </energy>
  </scstep>
  <scstep>
   <time name="dav">   13.26   13.27</time>
   <time name="total">   13.39   13.39</time>
   <energy>
    <i name="e_fr_energy">    130.61469469 </i>
    <i name="e_wo_entrp">    130.61214726 </i>
    <i name="e_0_energy">    130.61384554 </i>
   </energy>
  </scstep>
  <scstep>
   <time name="dav">   11.08   11.08</time>
   <time name="total">   11.09   11.10</time>
   <energy>
    <i name="alphaZ">    309.71168880 </i>
    <i name="ewald">  -8826.18498033 </i>
    <i name="hartreedc">  -3886.28532102 </i>
    <i name="XCdc">    283.93334229 </i>
    <i name="pawpsdc">  12396.49468418 </i>
    <i name="pawaedc"> -11964.04906988 </i>
    <i name="eentropy">      0.00254711 </i>
    <i name="bandstr">  -1651.23828733 </i>
    <i name="atom">  13468.23009085 </i>
    <i name="e_fr_energy">    130.61469467 </i>
    <i name="e_wo_entrp">    130.61214755 </i>
    <i name="e_0_energy">    130.61384563 </i>
   </energy>
  </scstep>
  <structure>
   <crystal>
    <varray name="basis" >
     <v>       5.73544200       0.00000000       0.00000000 </v>
     <v>       0.00000000       5.65068177       0.00000000 </v>
     <v>       0.00000000       0.00000000       8.12462919 </v>
    </varray>
    <i name="volume">    263.31238747 </i>
    <varray name="rec_basis" >
     <v>       0.17435448       0.00000000       0.00000000 </v>
     <v>       0.00000000       0.17696980       0.00000000 </v>
     <v>       0.00000000       0.00000000       0.12308254 </v>
    </varray>
   </crystal>
   <varray name="positions" >
    <v>       0.00000000       0.00000000       0.00000000 </v>
    <v>       0.00000000       0.00000000       0.50000000 </v>
    <v>       0.00000000       0.50000000       0.00000000 </v>
    <v>       0.00000000       0.50000000       0.50000000 </v>
    <v>       0.50000000       0.00000000       0.00000000 </v>
    <v>       0.50000000       0.00000000       0.50000000 </v>
    <v>       0.50000000       0.50000000       0.00000000 </v>
    <v>       0.50000000       0.50000000       0.50000000 </v>
    <v>       0.25000000       0.25000000       0.25000000 </v>
    <v>       0.25000000       0.25000000       0.75000000 </v>
    <v>       0.25000000       0.75000000       0.25000000 </v>
    <v>       0.25000000       0.75000000       0.75000000 </v>
    <v>       0.75000000       0.25000000       0.25000000 </v>
    <v>       0.75000000       0.25000000       0.75000000 </v>
    <v>       0.75000000       0.75000000       0.25000000 </v>
    <v>       0.75000000       0.75000000       0.75000000 </v>
    <v>       0.25000000       0.25000000       0.25000000 </v>
    <v>       0.25000000       0.25000000       0.75000000 </v>
    <v>       0.25000000       0.75000000       0.25000000 </v>
    <v>       0.25000000       0.75000000       0.75000000 </v>
    <v>       0.75000000       0.25000000       0.25000000 </v>
    <v>       0.75000000       0.25000000       0.75000000 </v>
    <v>       0.75000000       0.75000000       0.25000000 </v>
    <v>       0.75000000       0.75000000       0.75000000 </v>
   </varray>
  </structure>
  <varray name="forces" >
   <v>       0.00000000      -0.00000000       0.00000000 </v>
   <v>       0.00000000       0.00000000      -0.00000000 </v>
   <v>      -0.00000000       0.00000000      -0.00000000 </v>
   <v>       0.00000000       0.00000000       0.00000000 </v>
   <v>      -0.00000000      -0.00000000      -0.00000000 </v>
   <v>       0.00000000       0.00000000      -0.00000000 </v>
   <v>      -0.00000000       0.00000000       0.00000000 </v>
   <v>       0.00000000       0.00000000       0.00000000 </v>
   <v>      -0.00000000      -0.00000000      -0.00000000 </v>
   <v>       0.00000000      -0.00000000      -0.00000000 </v>
   <v>       0.00000000       0.00000000       0.00000000 </v>
   <v>      -0.00000000      -0.00000000      -0.00000000 </v>
   <v>       0.00000000      -0.00000000      -0.00000000 </v>
   <v>       0.00000000       0.00000000      -0.00000000 </v>
   <v>       0.00000000       0.00000000      -0.00000000 </v>
   <v>       0.00000000       0.00000000       0.00000000 </v>
   <v>       0.00000000       0.00000000      -0.00000000 </v>
   <v>       0.00000000      -0.00000000      -0.00000000 </v>
   <v>       0.00000000       0.00000000      -0.00000000 </v>
   <v>       0.00000000       0.00000000      -0.00000000 </v>
   <v>       0.00000000       0.00000000      -0.00000000 </v>
   <v>       0.00000000       0.00000000      -0.00000000 </v>
   <v>       0.00000000       0.00000000      -0.00000000 </v>
   <v>       0.00000000       0.00000000      -0.00000000 </v>
  </varray>
  <varray name="stress" >
   <v>     -63.35666458       0.00000000       0.00000000 </v>
   <v>       0.00000000     -44.20505228       0.00000000 </v>
   <v>       0.00000000       0.00000000     -45.67380135 </v>
  </varray>
  <energy>
   <i name="e_fr_energy">    130.61469467 </i>
   <i name="e_wo_entrp">    130.61214755 </i>
   <i name="e_0_energy">    130.61384563 </i>
  </energy>
  <kpoints>
   <generation param="Gamma">
    <v type="int" name="divisions">       9        9        6 </v>
    <v name="usershift">      0.00000000       0.00000000       0.00000000 </v>
    <v name="genvec1">      0.11111111       0.00000000       0.00000000 </v>
    <v name="genvec2">      0.00000000       0.11111111       0.00000000 </v>
    <v name="genvec3">      0.00000000       0.00000000       0.16666667 </v>
    <v name="shift">      0.00000000       0.00000000       0.00000000 </v>
   </generation>
   <varray name="kpointlist" >
    <v>       0.00000000       0.00000000       0.00000000 </v>
    <v>       0.11111111       0.00000000       0.00000000 </v>
    <v>       0.22222222       0.00000000       0.00000000 </v>
    <v>       0.33333333       0.00000000       0.00000000 </v>
    <v>       0.44444444       0.00000000       0.00000000 </v>
    <v>       0.00000000       0.11111111       0.00000000 </v>
    <v>       0.11111111       0.11111111       0.00000000 </v>
    <v>       0.22222222       0.11111111       0.00000000 </v>
    <v>       0.33333333       0.11111111       0.00000000 </v>
    <v>       0.44444444       0.11111111       0.00000000 </v>
    <v>       0.00000000       0.22222222       0.00000000 </v>
    <v>       0.11111111       0.22222222       0.00000000 </v>
    <v>       0.22222222       0.22222222       0.00000000 </v>
    <v>       0.33333333       0.22222222       0.00000000 </v>
    <v>       0.44444444       0.22222222       0.00000000 </v>
    <v>       0.00000000       0.33333333       0.00000000 </v>
    <v>       0.11111111       0.33333333       0.00000000 </v>
    <v>       0.22222222       0.33333333       0.00000000 </v>
    <v>       0.33333333       0.33333333       0.00000000 </v>
    <v>       0.44444444       0.33333333       0.00000000 </v>
    <v>       0.00000000       0.44444444       0.00000000 </v>
    <v>       0.11111111       0.44444444       0.00000000 </v>
    <v>       0.22222222       0.44444444       0.00000000 </v>
    <v>       0.33333333       0.44444444       0.00000000 </v>
    <v>       0.44444444       0.44444444       0.00000000 </v>
    <v>       0.00000000       0.00000000       0.16666667 </v>
    <v>       0.11111111       0.00000000       0.16666667 </v>
    <v>       0.22222222       0.00000000       0.16666667 </v>
    <v>       0.33333333       0.00000000       0.16666667 </v>
    <v>       0.44444444       0.00000000       0.16666667 </v>
    <v>       0.00000000       0.11111111       0.16666667 </v>
    <v>       0.11111111       0.11111111       0.16666667 </v>
    <v>       0.22222222       0.11111111       0.16666667 </v>
    <v>       0.33333333       0.11111111       0.16666667 </v>
    <v>       0.44444444       0.11111111       0.16666667 </v>
    <v>       0.00000000       0.22222222       0.16666667 </v>
    <v>       0.11111111       0.22222222       0.16666667 </v>
    <v>       0.22222222       0.22222222       0.16666667 </v>
    <v>       0.33333333       0.22222222       0.16666667 </v>
    <v>       0.44444444       0.22222222       0.16666667 </v>
    <v>       0.00000000       0.33333333       0.16666667 </v>
    <v>       0.11111111       0.33333333       0.16666667 </v>
    <v>       0.22222222       0.33333333       0.16666667 </v>
    <v>       0.33333333       0.33333333       0.16666667 </v>
    <v>       0.44444444       0.33333333       0.16666667 </v>
    <v>       0.00000000       0.44444444       0.16666667 </v>
    <v>       0.11111111       0.44444444       0.16666667 </v>
    <v>       0.22222222       0.44444444       0.16666667 </v>
    <v>       0.33333333       0.44444444       0.16666667 </v>
    <v>       0.44444444       0.44444444       0.16666667 </v>
    <v>       0.00000000       0.00000000       0.33333333 </v>
    <v>       0.11111111       0.00000000       0.33333333 </v>
    <v>       0.22222222       0.00000000       0.33333333 </v>
    <v>       0.33333333       0.00000000       0.33333333 </v>
    <v>       0.44444444       0.00000000       0.33333333 </v>
    <v>       0.00000000       0.11111111       0.33333333 </v>
    <v>       0.11111111       0.11111111       0.33333333 </v>
    <v>       0.22222222       0.11111111       0.33333333 </v>
    <v>       0.33333333       0.11111111       0.33333333 </v>
    <v>       0.44444444       0.11111111       0.33333333 </v>
    <v>       0.00000000       0.22222222       0.33333333 </v>
[...]
       <r>  -24.5594    1.0000 </r>
       <r>  -24.5594    1.0000 </r>
       <r>  -24.5561    1.0000 </r>
       <r>  -24.5559    1.0000 </r>
       <r>  -24.5427    1.0000 </r>
       <r>  -24.5424    1.0000 </r>
       <r>  -24.4863    1.0000 </r>
       <r>  -24.4861    1.0000 </r>
       <r>  -24.4727    1.0000 </r>
       <r>  -24.4725    1.0000 </r>
       <r>  -24.4700    1.0000 </r>
       <r>  -24.4699    1.0000 </r>
       <r>  -24.4697    1.0000 </r>
       <r>  -24.4697    1.0000 </r>
       <r>    1.5105    1.0000 </r>
       <r>    1.5109    1.0000 </r>
       <r>    1.9648    1.0000 </r>
       <r>    1.9650    1.0000 </r>
       <r>    1.9652    1.0000 </r>
       <r>    1.9653    1.0000 </r>
       <r>    2.4062    1.0000 </r>
       <r>    2.4066    1.0000 </r>
       <r>    5.9573    1.0000 </r>
       <r>    5.9574    1.0000 </r>
       <r>    6.1848    1.0000 </r>
       <r>    6.1850    1.0000 </r>
       <r>    6.1851    1.0000 </r>
       <r>    6.1851    1.0000 </r>
       <r>    6.3405    1.0000 </r>
       <r>    6.3407    1.0000 </r>
       <r>    7.5391    1.0000 </r>
       <r>    7.5393    1.0000 </r>
       <r>    7.5395    1.0000 </r>
       <r>    7.5395    1.0000 </r>
       <r>    7.5649    1.0000 </r>
       <r>    7.5653    1.0000 </r>
       <r>    7.9147    1.0110 </r>
       <r>    7.9147    1.0110 </r>
       <r>    8.0235    1.0333 </r>
       <r>    8.0235    1.0333 </r>
       <r>    8.2197    0.7926 </r>
       <r>    8.2199    0.7919 </r>
       <r>    8.3151    0.4125 </r>
       <r>    8.3152    0.4120 </r>
       <r>    8.3157    0.4102 </r>
       <r>    8.3158    0.4097 </r>
       <r>    8.8270   -0.0005 </r>
       <r>    8.8273   -0.0005 </r>
       <r>    8.8348   -0.0004 </r>
       <r>    8.8348   -0.0004 </r>
       <r>    8.8349   -0.0004 </r>
       <r>    8.8350   -0.0004 </r>
       <r>    8.9675   -0.0000 </r>
       <r>    8.9678   -0.0000 </r>
       <r>    9.7132   -0.0000 </r>
       <r>    9.7138   -0.0000 </r>
       <r>    9.7882   -0.0000 </r>
       <r>    9.7887   -0.0000 </r>
       <r>    9.7890   -0.0000 </r>
       <r>    9.7891   -0.0000 </r>
       <r>    9.8955   -0.0000 </r>
       <r>    9.8962   -0.0000 </r>
       <r>   10.2586   -0.0000 </r>
       <r>   10.2598   -0.0000 </r>
       <r>   10.2606   -0.0000 </r>
       <r>   10.2613   -0.0000 </r>
       <r>   10.2690   -0.0000 </r>
       <r>   10.2696   -0.0000 </r>
       <r>   10.3011   -0.0000 </r>
       <r>   10.3023   -0.0000 </r>
      </set>
     </set>
    </set>
   </array>
  </eigenvalues>
  <separator name="orbital magnetization" >
   <v name="MAGDIPOLOUT">      0.00000000      0.00000000      0.00000000</v>
  </separator>
  <dos>
   <i name="efermi">      8.29431514 </i>
   <total>
    <array>
     <dimension dim="1">gridpoints</dimension>
     <dimension dim="2">spin</dimension>
     <field>energy</field>
     <field>total</field>
     <field>integrated</field>
     <set>
      <set comment="spin 1">
       <r>   -51.2789     0.0000     0.0000 </r>
       <r>   -51.0637     0.0000     0.0000 </r>
       <r>   -50.8486     0.0000     0.0000 </r>
       <r>   -50.6334     0.0000     0.0000 </r>
       <r>   -50.4183     0.0000     0.0000 </r>
       <r>   -50.2031     0.0000     0.0000 </r>
       <r>   -49.9880    -0.0000    -0.0000 </r>
       <r>   -49.7729    -0.0000    -0.0000 </r>
       <r>   -49.5577    -0.0000    -0.0000 </r>
       <r>   -49.3426    -0.0000    -0.0000 </r>
       <r>   -49.1274    -0.0000    -0.0000 </r>
       <r>   -48.9123    -0.0047    -0.0010 </r>
       <r>   -48.6971    -0.5499    -0.1193 </r>
       <r>   -48.4820    -0.5698    -0.2419 </r>
       <r>   -48.2668    44.7230     9.3801 </r>
       <r>   -48.0517    33.1128    16.5041 </r>
       <r>   -47.8365    -2.0760    16.0575 </r>
       <r>   -47.6214    -0.2659    16.0003 </r>
       <r>   -47.4062    -0.0013    16.0000 </r>
       <r>   -47.1911    -0.0000    16.0000 </r>
       <r>   -46.9760    -0.0000    16.0000 </r>
       <r>   -46.7608     0.0000    16.0000 </r>
       <r>   -46.5457     0.0000    16.0000 </r>
       <r>   -46.3305     0.0000    16.0000 </r>
       <r>   -46.1154     0.0000    16.0000 </r>
       <r>   -45.9002     0.0000    16.0000 </r>
       <r>   -45.6851     0.0000    16.0000 </r>
       <r>   -45.4699     0.0000    16.0000 </r>
       <r>   -45.2548     0.0000    16.0000 </r>
       <r>   -45.0396     0.0000    16.0000 </r>
       <r>   -44.8245     0.0000    16.0000 </r>
       <r>   -44.6094     0.0000    16.0000 </r>
       <r>   -44.3942     0.0000    16.0000 </r>
       <r>   -44.1791     0.0000    16.0000 </r>
       <r>   -43.9639     0.0000    16.0000 </r>
       <r>   -43.7488     0.0000    16.0000 </r>
       <r>   -43.5336     0.0000    16.0000 </r>
       <r>   -43.3185     0.0000    16.0000 </r>
       <r>   -43.1033     0.0000    16.0000 </r>
       <r>   -42.8882     0.0000    16.0000 </r>
       <r>   -42.6730     0.0000    16.0000 </r>
       <r>   -42.4579     0.0000    16.0000 </r>
       <r>   -42.2428     0.0000    16.0000 </r>
       <r>   -42.0276     0.0000    16.0000 </r>
       <r>   -41.8125     0.0000    16.0000 </r>
       <r>   -41.5973     0.0000    16.0000 </r>
       <r>   -41.3822     0.0000    16.0000 </r>
       <r>   -41.1670     0.0000    16.0000 </r>
       <r>   -40.9519     0.0000    16.0000 </r>
       <r>   -40.7367     0.0000    16.0000 </r>
       <r>   -40.5216     0.0000    16.0000 </r>
       <r>   -40.3064     0.0000    16.0000 </r>
       <r>   -40.0913     0.0000    16.0000 </r>
       <r>   -39.8762     0.0000    16.0000 </r>
       <r>   -39.6610     0.0000    16.0000 </r>
       <r>   -39.4459     0.0000    16.0000 </r>
       <r>   -39.2307     0.0000    16.0000 </r>
       <r>   -39.0156     0.0000    16.0000 </r>
       <r>   -38.8004     0.0000    16.0000 </r>
       <r>   -38.5853     0.0000    16.0000 </r>
       <r>   -38.3701     0.0000    16.0000 </r>
       <r>   -38.1550     0.0000    16.0000 </r>
       <r>   -37.9398     0.0000    16.0000 </r>
       <r>   -37.7247     0.0000    16.0000 </r>
       <r>   -37.5096     0.0000    16.0000 </r>
       <r>   -37.2944     0.0000    16.0000 </r>
       <r>   -37.0793     0.0000    16.0000 </r>
       <r>   -36.8641     0.0000    16.0000 </r>
       <r>   -36.6490     0.0000    16.0000 </r>
       <r>   -36.4338     0.0000    16.0000 </r>
       <r>   -36.2187     0.0000    16.0000 </r>
       <r>   -36.0035     0.0000    16.0000 </r>
       <r>   -35.7884     0.0000    16.0000 </r>
       <r>   -35.5732     0.0000    16.0000 </r>
       <r>   -35.3581     0.0000    16.0000 </r>
       <r>   -35.1430     0.0000    16.0000 </r>
       <r>   -34.9278     0.0000    16.0000 </r>
       <r>   -34.7127     0.0000    16.0000 </r>
       <r>   -34.4975     0.0000    16.0000 </r>
       <r>   -34.2824     0.0000    16.0000 </r>
       <r>   -34.0672     0.0000    16.0000 </r>
       <r>   -33.8521     0.0000    16.0000 </r>
       <r>   -33.6369     0.0000    16.0000 </r>
       <r>   -33.4218     0.0000    16.0000 </r>
       <r>   -33.2066     0.0000    16.0000 </r>
       <r>   -32.9915     0.0000    16.0000 </r>
       <r>   -32.7764     0.0000    16.0000 </r>
       <r>   -32.5612     0.0000    16.0000 </r>
       <r>   -32.3461     0.0000    16.0000 </r>
       <r>   -32.1309     0.0000    16.0000 </r>
       <r>   -31.9158     0.0000    16.0000 </r>
       <r>   -31.7006     0.0000    16.0000 </r>
       <r>   -31.4855     0.0000    16.0000 </r>
       <r>   -31.2703     0.0000    16.0000 </r>
       <r>   -31.0552     0.0000    16.0000 </r>
       <r>   -30.8400     0.0000    16.0000 </r>
       <r>   -30.6249     0.0000    16.0000 </r>
       <r>   -30.4098     0.0000    16.0000 </r>
       <r>   -30.1946     0.0000    16.0000 </r>
       <r>   -29.9795     0.0000    16.0000 </r>
       <r>   -29.7643     0.0000    16.0000 </r>
       <r>   -29.5492     0.0000    16.0000 </r>
       <r>   -29.3340     0.0000    16.0000 </r>
       <r>   -29.1189     0.0000    16.0000 </r>
       <r>   -28.9037     0.0000    16.0000 </r>
       <r>   -28.6886     0.0000    16.0000 </r>
       <r>   -28.4734     0.0000    16.0000 </r>
       <r>   -28.2583     0.0000    16.0000 </r>
       <r>   -28.0431     0.0000    16.0000 </r>
       <r>   -27.8280     0.0000    16.0000 </r>
       <r>   -27.6129     0.0000    16.0000 </r>
       <r>   -27.3977     0.0000    16.0000 </r>
       <r>   -27.1826     0.0000    16.0000 </r>
       <r>   -26.9674     0.0000    16.0000 </r>
       <r>   -26.7523     0.0000    16.0000 </r>
       <r>   -26.5371    -0.0000    16.0000 </r>
       <r>   -26.3220    -0.0000    16.0000 </r>
       <r>   -26.1068    -0.0000    16.0000 </r>
       <r>   -25.8917    -0.0000    16.0000 </r>
       <r>   -25.6765    -0.0000    16.0000 </r>
       <r>   -25.4614    -0.0001    16.0000 </r>
       <r>   -25.2463    -0.0474    15.9898 </r>
       <r>   -25.0311    -2.2159    15.5130 </r>
       <r>   -24.8160     9.7484    17.6104 </r>
       <r>   -24.6008   101.4777    39.4428 </r>
       <r>   -24.3857    75.2029    55.6224 </r>
       <r>   -24.1705    38.2540    63.8526 </r>
       <r>   -23.9554     1.4191    64.1579 </r>
       <r>   -23.7402    -0.7229    64.0024 </r>
       <r>   -23.5251    -0.0110    64.0000 </r>
       <r>   -23.3099    -0.0000    64.0000 </r>
       <r>   -23.0948    -0.0000    64.0000 </r>
       <r>   -22.8797    -0.0000    64.0000 </r>
       <r>   -22.6645     0.0000    64.0000 </r>
       <r>   -22.4494     0.0000    64.0000 </r>
       <r>   -22.2342     0.0000    64.0000 </r>
       <r>   -22.0191     0.0000    64.0000 </r>
       <r>   -21.8039     0.0000    64.0000 </r>
       <r>   -21.5888     0.0000    64.0000 </r>
       <r>   -21.3736     0.0000    64.0000 </r>
       <r>   -21.1585     0.0000    64.0000 </r>
       <r>   -20.9433     0.0000    64.0000 </r>
       <r>   -20.7282     0.0000    64.0000 </r>
       <r>   -20.5131     0.0000    64.0000 </r>
       <r>   -20.2979     0.0000    64.0000 </r>
       <r>   -20.0828     0.0000    64.0000 </r>
       <r>   -19.8676     0.0000    64.0000 </r>
       <r>   -19.6525     0.0000    64.0000 </r>
       <r>   -19.4373     0.0000    64.0000 </r>
       <r>   -19.2222     0.0000    64.0000 </r>
       <r>   -19.0070     0.0000    64.0000 </r>
       <r>   -18.7919     0.0000    64.0000 </r>
       <r>   -18.5767     0.0000    64.0000 </r>
       <r>   -18.3616     0.0000    64.0000 </r>
       <r>   -18.1465     0.0000    64.0000 </r>
       <r>   -17.9313     0.0000    64.0000 </r>
       <r>   -17.7162     0.0000    64.0000 </r>
       <r>   -17.5010     0.0000    64.0000 </r>
       <r>   -17.2859     0.0000    64.0000 </r>
       <r>   -17.0707     0.0000    64.0000 </r>
       <r>   -16.8556     0.0000    64.0000 </r>
       <r>   -16.6404     0.0000    64.0000 </r>
       <r>   -16.4253     0.0000    64.0000 </r>
       <r>   -16.2101     0.0000    64.0000 </r>
       <r>   -15.9950     0.0000    64.0000 </r>
       <r>   -15.7799     0.0000    64.0000 </r>
       <r>   -15.5647     0.0000    64.0000 </r>
       <r>   -15.3496     0.0000    64.0000 </r>
       <r>   -15.1344     0.0000    64.0000 </r>
       <r>   -14.9193     0.0000    64.0000 </r>
       <r>   -14.7041     0.0000    64.0000 </r>
       <r>   -14.4890     0.0000    64.0000 </r>
       <r>   -14.2738     0.0000    64.0000 </r>
       <r>   -14.0587     0.0000    64.0000 </r>
       <r>   -13.8435     0.0000    64.0000 </r>
       <r>   -13.6284     0.0000    64.0000 </r>
       <r>   -13.4133     0.0000    64.0000 </r>
       <r>   -13.1981     0.0000    64.0000 </r>
       <r>   -12.9830     0.0000    64.0000 </r>
       <r>   -12.7678     0.0000    64.0000 </r>
       <r>   -12.5527     0.0000    64.0000 </r>
       <r>   -12.3375     0.0000    64.0000 </r>
       <r>   -12.1224     0.0000    64.0000 </r>
       <r>   -11.9072     0.0000    64.0000 </r>
       <r>   -11.6921     0.0000    64.0000 </r>
       <r>   -11.4769     0.0000    64.0000 </r>
       <r>   -11.2618     0.0000    64.0000 </r>
       <r>   -11.0467     0.0000    64.0000 </r>
       <r>   -10.8315     0.0000    64.0000 </r>
       <r>   -10.6164     0.0000    64.0000 </r>
       <r>   -10.4012     0.0000    64.0000 </r>
       <r>   -10.1861     0.0000    64.0000 </r>
       <r>    -9.9709     0.0000    64.0000 </r>
       <r>    -9.7558     0.0000    64.0000 </r>
       <r>    -9.5406     0.0000    64.0000 </r>
       <r>    -9.3255     0.0000    64.0000 </r>
       <r>    -9.1103     0.0000    64.0000 </r>
       <r>    -8.8952     0.0000    64.0000 </r>
       <r>    -8.6800     0.0000    64.0000 </r>
       <r>    -8.4649     0.0000    64.0000 </r>
       <r>    -8.2498     0.0000    64.0000 </r>
       <r>    -8.0346     0.0000    64.0000 </r>
       <r>    -7.8195     0.0000    64.0000 </r>
       <r>    -7.6043     0.0000    64.0000 </r>
       <r>    -7.3892     0.0000    64.0000 </r>
       <r>    -7.1740     0.0000    64.0000 </r>
       <r>    -6.9589     0.0000    64.0000 </r>
       <r>    -6.7437     0.0000    64.0000 </r>
       <r>    -6.5286     0.0000    64.0000 </r>
       <r>    -6.3134     0.0000    64.0000 </r>
       <r>    -6.0983     0.0000    64.0000 </r>
       <r>    -5.8832     0.0000    64.0000 </r>
       <r>    -5.6680     0.0000    64.0000 </r>
       <r>    -5.4529     0.0000    64.0000 </r>
       <r>    -5.2377     0.0000    64.0000 </r>
       <r>    -5.0226     0.0000    64.0000 </r>
       <r>    -4.8074     0.0000    64.0000 </r>
       <r>    -4.5923     0.0000    64.0000 </r>
       <r>    -4.3771     0.0000    64.0000 </r>
       <r>    -4.1620     0.0000    64.0000 </r>
       <r>    -3.9468     0.0000    64.0000 </r>
       <r>    -3.7317     0.0000    64.0000 </r>
       <r>    -3.5166     0.0000    64.0000 </r>
       <r>    -3.3014     0.0000    64.0000 </r>
       <r>    -3.0863     0.0000    64.0000 </r>
       <r>    -2.8711     0.0000    64.0000 </r>
       <r>    -2.6560     0.0000    64.0000 </r>
       <r>    -2.4408    -0.0000    64.0000 </r>
       <r>    -2.2257    -0.0000    64.0000 </r>
       <r>    -2.0105    -0.0000    64.0000 </r>
       <r>    -1.7954    -0.0000    64.0000 </r>
       <r>    -1.5802    -0.0000    64.0000 </r>
       <r>    -1.3651    -0.0000    64.0000 </r>
       <r>    -1.1500    -0.0007    63.9999 </r>
       <r>    -0.9348    -0.0134    63.9970 </r>
       <r>    -0.7197     0.0821    64.0146 </r>
       <r>    -0.5045     0.5945    64.1425 </r>
       <r>    -0.2894     1.0362    64.3655 </r>
       <r>    -0.0742     1.4132    64.6695 </r>
       <r>     0.1409     1.6003    65.0138 </r>
       <r>     0.3561     2.0392    65.4525 </r>
       <r>     0.5712     2.2244    65.9311 </r>
       <r>     0.7864     2.7553    66.5239 </r>
       <r>     1.0015     3.1363    67.1987 </r>
       <r>     1.2166     2.9282    67.8286 </r>
       <r>     1.4318     3.0687    68.4889 </r>
       <r>     1.6469     3.2943    69.1976 </r>
       <r>     1.8621     3.1229    69.8695 </r>
       <r>     2.0772     2.8904    70.4914 </r>
       <r>     2.2924     3.7421    71.2965 </r>
       <r>     2.5075     3.2224    71.9897 </r>
       <r>     2.7227     3.1849    72.6749 </r>
       <r>     2.9378     3.5019    73.4284 </r>
       <r>     3.1530     4.1353    74.3180 </r>
       <r>     3.3681     4.6064    75.3091 </r>
       <r>     3.5832     4.1288    76.1974 </r>
       <r>     3.7984     4.3552    77.1344 </r>
       <r>     4.0135     4.0548    78.0068 </r>
       <r>     4.2287     3.9752    78.8620 </r>
       <r>     4.4438     3.7430    79.6673 </r>
       <r>     4.6590     4.0968    80.5487 </r>
       <r>     4.8741     5.8434    81.8059 </r>
       <r>     5.0893     5.3410    82.9550 </r>
       <r>     5.3044     5.4790    84.1338 </r>
       <r>     5.5196     6.3547    85.5010 </r>
       <r>     5.7347     8.3641    87.3005 </r>
       <r>     5.9498     8.9709    89.2305 </r>
       <r>     6.1650    11.0618    91.6104 </r>
       <r>     6.3801    12.3901    94.2761 </r>
       <r>     6.5953    14.0824    97.3059 </r>
       <r>     6.8104    17.9690   101.1718 </r>
       <r>     7.0256    14.2139   104.2299 </r>
       <r>     7.2407     7.3754   105.8166 </r>
       <r>     7.4559     8.2810   107.5983 </r>
       <r>     7.6710    13.2999   110.4597 </r>
       <r>     7.8862    15.8821   113.8766 </r>
       <r>     8.1013    20.0128   118.1823 </r>
       <r>     8.3164    17.5134   121.9502 </r>
       <r>     8.5316    14.6395   125.0999 </r>
       <r>     8.7467    11.9236   127.6652 </r>
       <r>     8.9619    13.2003   130.5051 </r>
       <r>     9.1770    15.2258   133.7809 </r>
       <r>     9.3922    23.4158   138.8187 </r>
       <r>     9.6073    27.2514   144.6817 </r>
       <r>     9.8225    30.8069   151.3097 </r>
       <r>    10.0376    39.9549   159.9058 </r>
       <r>    10.2528    57.1997   172.2121 </r>
       <r>    10.4679    19.2190   176.3469 </r>
       <r>    10.6831    -1.4304   176.0392 </r>
       <r>    10.8982    -0.1810   176.0003 </r>
       <r>    11.1133    -0.0012   176.0000 </r>
       <r>    11.3285    -0.0000   176.0000 </r>
       <r>    11.5436    -0.0000   176.0000 </r>
       <r>    11.7588    -0.0000   176.0000 </r>
       <r>    11.9739     0.0000   176.0000 </r>
       <r>    12.1891     0.0000   176.0000 </r>
       <r>    12.4042     0.0000   176.0000 </r>
       <r>    12.6194     0.0000   176.0000 </r>
       <r>    12.8345     0.0000   176.0000 </r>
       <r>    13.0497     0.0000   176.0000 </r>
       <r>    13.2648     0.0000   176.0000 </r>
      </set>
     </set>
    </array>
   </total>
  </dos>
 </calculation>
 <structure name="finalpos" >
  <crystal>
   <varray name="basis" >
    <v>       5.65068177       0.00000000       0.00000000 </v>
    <v>       0.00000000       5.65068177       0.00000000 </v>
    <v>       0.00000000       0.00000000       8.12462919 </v>
   </varray>
   <i name="volume">    259.42107139 </i>
   <varray name="rec_basis" >
    <v>       0.17696980       0.00000000       0.00000000 </v>
    <v>       0.00000000       0.17696980       0.00000000 </v>
    <v>       0.00000000       0.00000000       0.12308254 </v>
   </varray>
  </crystal>
  <varray name="positions" >
   <v>       0.00000000       0.00000000       0.00000000 </v>
   <v>       0.00000000       0.00000000       0.50000000 </v>
   <v>       0.00000000       0.50000000       0.00000000 </v>
   <v>       0.00000000       0.50000000       0.50000000 </v>
   <v>       0.50000000       0.00000000       0.00000000 </v>
   <v>       0.50000000       0.00000000       0.50000000 </v>
   <v>       0.50000000       0.50000000       0.00000000 </v>
   <v>       0.50000000       0.50000000       0.50000000 </v>
   <v>       0.25000000       0.25000000       0.25000000 </v>
   <v>       0.25000000       0.25000000       0.75000000 </v>
   <v>       0.25000000       0.75000000       0.25000000 </v>
   <v>       0.25000000       0.75000000       0.75000000 </v>
   <v>       0.75000000       0.25000000       0.25000000 </v>
   <v>       0.75000000       0.25000000       0.75000000 </v>
   <v>       0.75000000       0.75000000       0.25000000 </v>
   <v>       0.75000000       0.75000000       0.75000000 </v>
   <v>       0.25000000       0.25000000       0.24815376 </v>
   <v>       0.25000000       0.25000000       0.75000000 </v>
   <v>       0.25000000       0.75000000       0.25000000 </v>
   <v>       0.25000000       0.75000000       0.75000000 </v>
   <v>       0.75000000       0.25000000       0.25000000 </v>
   <v>       0.75000000       0.25000000       0.75000000 </v>
   <v>       0.75000000       0.75000000       0.25000000 </v>
   <v>       0.75000000       0.75000000       0.75000000 </v>
  </varray>
 </structure>
</modeling>
