  24  24   0   0
  0.1080921E+02  0.5650682E-09  0.5650682E-09  0.8124629E-09  0.1500000E-16
  1.000000000000000E-004
  CAR 
 unknown system                          
     24.47822925    -51.68773892  301      8.42083806      1.00000000
    -51.688  0.0000E+00  0.0000E+00
    -51.434  0.0000E+00  0.0000E+00
    -51.180  0.0000E+00  0.0000E+00
    -50.926  0.0000E+00  0.0000E+00
    -50.672  0.0000E+00  0.0000E+00
    -50.418  0.0000E+00  0.0000E+00
    -50.164  0.0000E+00  0.0000E+00
    -49.911 -0.5061E-32 -0.1285E-32
    -49.657 -0.2041E-23 -0.5182E-24
    -49.403 -0.3277E-16 -0.8320E-17
    -49.149 -0.2072E-10 -0.5259E-11
    -48.895 -0.5206E-06 -0.1322E-06
    -48.641 -0.4632E-03 -0.1177E-03
    -48.387 -0.4869E-02 -0.1354E-02
    -48.133  0.1296E+00  0.3155E-01
    -47.879  0.7529E-01  0.5067E-01
    -47.626 -0.5549E-02  0.4926E-01
    -47.372 -0.1010E-03  0.4923E-01
    -47.118 -0.4402E-07  0.4923E-01
    -46.864 -0.7087E-12  0.4923E-01
    -46.610  0.0000E+00  0.4923E-01
    -46.356  0.0000E+00  0.4923E-01
    -46.102  0.0000E+00  0.4923E-01
    -45.848  0.0000E+00  0.4923E-01
    -45.594  0.0000E+00  0.4923E-01
    -45.341  0.0000E+00  0.4923E-01
    -45.087  0.0000E+00  0.4923E-01
    -44.833  0.0000E+00  0.4923E-01
    -44.579  0.0000E+00  0.4923E-01
    -44.325  0.0000E+00  0.4923E-01
    -44.071  0.0000E+00  0.4923E-01
    -43.817  0.0000E+00  0.4923E-01
    -43.563  0.0000E+00  0.4923E-01
    -43.309  0.0000E+00  0.4923E-01
    -43.056  0.0000E+00  0.4923E-01
    -42.802  0.0000E+00  0.4923E-01
    -42.548  0.0000E+00  0.4923E-01
    -42.294  0.0000E+00  0.4923E-01
    -42.040  0.0000E+00  0.4923E-01
    -41.786  0.0000E+00  0.4923E-01
    -41.532  0.0000E+00  0.4923E-01
    -41.278  0.0000E+00  0.4923E-01
    -41.025  0.0000E+00  0.4923E-01
    -40.771  0.0000E+00  0.4923E-01
    -40.517  0.0000E+00  0.4923E-01
    -40.263  0.0000E+00  0.4923E-01
    -40.009  0.0000E+00  0.4923E-01
    -39.755  0.0000E+00  0.4923E-01
    -39.501  0.0000E+00  0.4923E-01
    -39.247  0.0000E+00  0.4923E-01
    -38.993  0.0000E+00  0.4923E-01
    -38.740  0.0000E+00  0.4923E-01
    -38.486  0.0000E+00  0.4923E-01
    -38.232  0.0000E+00  0.4923E-01
    -37.978  0.0000E+00  0.4923E-01
    -37.724  0.0000E+00  0.4923E-01
    -37.470  0.0000E+00  0.4923E-01
    -37.216  0.0000E+00  0.4923E-01
    -36.962  0.0000E+00  0.4923E-01
    -36.708  0.0000E+00  0.4923E-01
    -36.455  0.0000E+00  0.4923E-01
    -36.201  0.0000E+00  0.4923E-01
    -35.947  0.0000E+00  0.4923E-01
    -35.693  0.0000E+00  0.4923E-01
    -35.439  0.0000E+00  0.4923E-01
    -35.185  0.0000E+00  0.4923E-01
    -34.931  0.0000E+00  0.4923E-01
    -34.677  0.0000E+00  0.4923E-01
    -34.423  0.0000E+00  0.4923E-01
    -34.170  0.0000E+00  0.4923E-01
    -33.916  0.0000E+00  0.4923E-01
    -33.662  0.0000E+00  0.4923E-01
    -33.408  0.0000E+00  0.4923E-01
    -33.154  0.0000E+00  0.4923E-01
    -32.900  0.0000E+00  0.4923E-01
    -32.646  0.0000E+00  0.4923E-01
    -32.392  0.0000E+00  0.4923E-01
    -32.138  0.0000E+00  0.4923E-01
    -31.885  0.0000E+00  0.4923E-01
    -31.631  0.0000E+00  0.4923E-01
    -31.377  0.0000E+00  0.4923E-01
    -31.123  0.0000E+00  0.4923E-01
    -30.869  0.0000E+00  0.4923E-01
    -30.615  0.0000E+00  0.4923E-01
    -30.361  0.0000E+00  0.4923E-01
    -30.107  0.0000E+00  0.4923E-01
    -29.853  0.0000E+00  0.4923E-01
    -29.600  0.0000E+00  0.4923E-01
    -29.346  0.0000E+00  0.4923E-01
    -29.092  0.0000E+00  0.4923E-01
    -28.838  0.0000E+00  0.4923E-01
    -28.584  0.0000E+00  0.4923E-01
    -28.330  0.0000E+00  0.4923E-01
    -28.076  0.0000E+00  0.4923E-01
    -27.822  0.0000E+00  0.4923E-01
    -27.569  0.0000E+00  0.4923E-01
    -27.315  0.0000E+00  0.4923E-01
    -27.061  0.0000E+00  0.4923E-01
    -26.807  0.0000E+00  0.4923E-01
    -26.553  0.0000E+00  0.4923E-01
    -26.299 -0.8696E-31  0.4923E-01
    -26.045 -0.2292E-22  0.4923E-01
    -25.791 -0.2404E-15  0.4923E-01
    -25.537 -0.1039E-09  0.4923E-01
    -25.284 -0.1805E-05  0.4923E-01
    -25.030 -0.1141E-02  0.4894E-01
    -24.776 -0.6209E-02  0.4736E-01
    -24.522  0.2457E+00  0.1097E+00
    -24.268  0.2374E+00  0.1700E+00
    -24.014  0.1084E+00  0.1975E+00
    -23.760 -0.1802E-02  0.1971E+00
    -23.506 -0.6378E-03  0.1969E+00
    -23.252 -0.1245E-05  0.1969E+00
    -22.999 -0.8401E-10  0.1969E+00
    -22.745 -0.2173E-15  0.1969E+00
    -22.491  0.0000E+00  0.1969E+00
    -22.237  0.0000E+00  0.1969E+00
    -21.983  0.0000E+00  0.1969E+00
    -21.729  0.0000E+00  0.1969E+00
    -21.475  0.0000E+00  0.1969E+00
    -21.221  0.0000E+00  0.1969E+00
    -20.967  0.0000E+00  0.1969E+00
    -20.714  0.0000E+00  0.1969E+00
    -20.460  0.0000E+00  0.1969E+00
    -20.206  0.0000E+00  0.1969E+00
    -19.952  0.0000E+00  0.1969E+00
    -19.698  0.0000E+00  0.1969E+00
    -19.444  0.0000E+00  0.1969E+00
    -19.190  0.0000E+00  0.1969E+00
    -18.936  0.0000E+00  0.1969E+00
    -18.682  0.0000E+00  0.1969E+00
    -18.429  0.0000E+00  0.1969E+00
    -18.175  0.0000E+00  0.1969E+00
    -17.921  0.0000E+00  0.1969E+00
    -17.667  0.0000E+00  0.1969E+00
    -17.413  0.0000E+00  0.1969E+00
    -17.159  0.0000E+00  0.1969E+00
    -16.905  0.0000E+00  0.1969E+00
    -16.651  0.0000E+00  0.1969E+00
    -16.398  0.0000E+00  0.1969E+00
    -16.144  0.0000E+00  0.1969E+00
    -15.890  0.0000E+00  0.1969E+00
    -15.636  0.0000E+00  0.1969E+00
    -15.382  0.0000E+00  0.1969E+00
    -15.128  0.0000E+00  0.1969E+00
    -14.874  0.0000E+00  0.1969E+00
    -14.620  0.0000E+00  0.1969E+00
    -14.366  0.0000E+00  0.1969E+00
    -14.113  0.0000E+00  0.1969E+00
    -13.859  0.0000E+00  0.1969E+00
    -13.605  0.0000E+00  0.1969E+00
    -13.351  0.0000E+00  0.1969E+00
    -13.097  0.0000E+00  0.1969E+00
    -12.843  0.0000E+00  0.1969E+00
    -12.589  0.0000E+00  0.1969E+00
    -12.335  0.0000E+00  0.1969E+00
    -12.081  0.0000E+00  0.1969E+00
    -11.828  0.0000E+00  0.1969E+00
    -11.574  0.0000E+00  0.1969E+00
    -11.320  0.0000E+00  0.1969E+00
    -11.066  0.0000E+00  0.1969E+00
    -10.812  0.0000E+00  0.1969E+00
    -10.558  0.0000E+00  0.1969E+00
    -10.304  0.0000E+00  0.1969E+00
    -10.050  0.0000E+00  0.1969E+00
     -9.796  0.0000E+00  0.1969E+00
     -9.543  0.0000E+00  0.1969E+00
     -9.289  0.0000E+00  0.1969E+00
     -9.035  0.0000E+00  0.1969E+00
     -8.781  0.0000E+00  0.1969E+00
     -8.527  0.0000E+00  0.1969E+00
     -8.273  0.0000E+00  0.1969E+00
     -8.019  0.0000E+00  0.1969E+00
     -7.765  0.0000E+00  0.1969E+00
     -7.511  0.0000E+00  0.1969E+00
     -7.258  0.0000E+00  0.1969E+00
     -7.004  0.0000E+00  0.1969E+00
     -6.750  0.0000E+00  0.1969E+00
     -6.496  0.0000E+00  0.1969E+00
     -6.242  0.0000E+00  0.1969E+00
     -5.988  0.0000E+00  0.1969E+00
     -5.734  0.0000E+00  0.1969E+00
     -5.480  0.0000E+00  0.1969E+00
     -5.226  0.0000E+00  0.1969E+00
     -4.973  0.0000E+00  0.1969E+00
     -4.719  0.0000E+00  0.1969E+00
     -4.465  0.0000E+00  0.1969E+00
     -4.211  0.0000E+00  0.1969E+00
     -3.957  0.0000E+00  0.1969E+00
     -3.703  0.0000E+00  0.1969E+00
     -3.449  0.0000E+00  0.1969E+00
     -3.195  0.0000E+00  0.1969E+00
     -2.942  0.0000E+00  0.1969E+00
     -2.688  0.0000E+00  0.1969E+00
     -2.434 -0.1870E-33  0.1969E+00
     -2.180 -0.4494E-25  0.1969E+00
     -1.926 -0.4249E-18  0.1969E+00
     -1.672 -0.1681E-12  0.1969E+00
     -1.418 -0.2879E-08  0.1969E+00
     -1.164 -0.2140E-05  0.1969E+00
     -0.910 -0.4237E-04  0.1969E+00
     -0.657  0.6459E-03  0.1971E+00
     -0.403  0.2617E-02  0.1977E+00
     -0.149  0.3929E-02  0.1987E+00
      0.105  0.4889E-02  0.2000E+00
      0.359  0.6312E-02  0.2016E+00
      0.613  0.7006E-02  0.2034E+00
      0.867  0.9346E-02  0.2057E+00
      1.121  0.9204E-02  0.2081E+00
      1.375  0.9172E-02  0.2104E+00
      1.628  0.1006E-01  0.2130E+00
      1.882  0.9424E-02  0.2153E+00
      2.136  0.9518E-02  0.2178E+00
      2.390  0.1105E-01  0.2206E+00
      2.644  0.9552E-02  0.2230E+00
      2.898  0.1037E-01  0.2256E+00
      3.152  0.1238E-01  0.2288E+00
      3.406  0.1367E-01  0.2322E+00
      3.660  0.1251E-01  0.2354E+00
      3.913  0.1309E-01  0.2387E+00
      4.167  0.1175E-01  0.2417E+00
      4.421  0.1162E-01  0.2447E+00
      4.675  0.1220E-01  0.2478E+00
      4.929  0.1731E-01  0.2522E+00
      5.183  0.1641E-01  0.2563E+00
      5.437  0.1707E-01  0.2607E+00
      5.691  0.2292E-01  0.2665E+00
      5.945  0.2582E-01  0.2730E+00
      6.198  0.3207E-01  0.2812E+00
      6.452  0.3699E-01  0.2906E+00
      6.706  0.4367E-01  0.3017E+00
      6.960  0.5443E-01  0.3155E+00
      7.214  0.2979E-01  0.3230E+00
      7.468  0.2041E-01  0.3282E+00
      7.722  0.3262E-01  0.3365E+00
      7.976  0.4457E-01  0.3478E+00
      8.229  0.5694E-01  0.3623E+00
      8.483  0.4701E-01  0.3742E+00
      8.737  0.3677E-01  0.3835E+00
      8.991  0.3071E-01  0.3913E+00
      9.245  0.3458E-01  0.4001E+00
      9.499  0.4226E-01  0.4108E+00
      9.753  0.5139E-01  0.4239E+00
     10.007  0.5795E-01  0.4386E+00
     10.261  0.7804E-01  0.4584E+00
     10.514  0.8276E-01  0.4794E+00
     10.768  0.6458E-01  0.4958E+00
     11.022  0.4039E-01  0.5061E+00
     11.276  0.2814E-01  0.5132E+00
     11.530  0.2579E-01  0.5198E+00
     11.784  0.2597E-01  0.5264E+00
     12.038  0.3101E-01  0.5342E+00
     12.292  0.4796E-01  0.5464E+00
     12.546  0.5214E-01  0.5597E+00
     12.799  0.2977E-01  0.5672E+00
     13.053  0.2137E-01  0.5726E+00
     13.307  0.2193E-01  0.5782E+00
     13.561  0.2282E-01  0.5840E+00
     13.815  0.2242E-01  0.5897E+00
     14.069  0.2964E-01  0.5972E+00
     14.323  0.3382E-01  0.6058E+00
     14.577  0.3729E-01  0.6153E+00
     14.831  0.3135E-01  0.6232E+00
     15.084  0.2867E-01  0.6305E+00
     15.338  0.3590E-01  0.6396E+00
     15.592  0.3224E-01  0.6478E+00
     15.846  0.2592E-01  0.6544E+00
     16.100  0.2920E-01  0.6618E+00
     16.354  0.2692E-01  0.6686E+00
     16.608  0.2931E-01  0.6761E+00
     16.862  0.3147E-01  0.6841E+00
     17.116  0.3274E-01  0.6924E+00
     17.369  0.2919E-01  0.6998E+00
     17.623  0.3334E-01  0.7083E+00
     17.877  0.2837E-01  0.7155E+00
     18.131  0.2733E-01  0.7224E+00
     18.385  0.2970E-01  0.7299E+00
     18.639  0.2493E-01  0.7363E+00
     18.893  0.2307E-01  0.7421E+00
     19.147  0.2549E-01  0.7486E+00
     19.400  0.2500E-01  0.7549E+00
     19.654  0.2842E-01  0.7622E+00
     19.908  0.3070E-01  0.7700E+00
     20.162  0.3015E-01  0.7776E+00
     20.416  0.2096E-01  0.7829E+00
     20.670  0.1366E-01  0.7864E+00
     20.924  0.4596E-02  0.7876E+00
     21.178  0.5418E-03  0.7877E+00
     21.432 -0.4277E-04  0.7877E+00
     21.685 -0.2739E-05  0.7877E+00
     21.939 -0.4687E-08  0.7877E+00
     22.193 -0.2701E-12  0.7877E+00
     22.447 -0.5759E-18  0.7877E+00
     22.701  0.0000E+00  0.7877E+00
     22.955  0.0000E+00  0.7877E+00
     23.209  0.0000E+00  0.7877E+00
     23.463  0.0000E+00  0.7877E+00
     23.717  0.0000E+00  0.7877E+00
     23.970  0.0000E+00  0.7877E+00
     24.224  0.0000E+00  0.7877E+00
     24.478  0.0000E+00  0.7877E+00
