   24   24  325    1
  0.1080921E+02  0.5650682E-09  0.5650682E-09  0.8124629E-09  0.1500000E-16
  1.000000000000000E-004
  CAR 
 unknown system                          
    121     60    128
 
  0.1276756E-14  0.1276756E-14  0.1276756E-14  0.2057613E-02
      1        -48.225649   1.000000
      2        -48.224593   1.000000
      3        -48.168146   1.000000
      4        -48.168146   1.000000
      5        -48.167178   1.000000
      6        -48.167178   1.000000
      7        -48.112759   1.000000
      8        -48.111784   1.000000
      9        -24.652290   1.000000
     10        -24.652282   1.000000
     11        -24.649438   1.000000
     12        -24.649425   1.000000
     13        -24.636772   1.000000
     14        -24.619272   1.000000
     15        -24.585171   1.000000
     16        -24.585171   1.000000
     17        -24.583588   1.000000
     18        -24.583588   1.000000
     19        -24.574581   1.000000
     20        -24.574581   1.000000
     21        -24.561984   1.000000
     22        -24.561984   1.000000
     23        -24.519699   1.000000
     24        -24.508955   1.000000
     25        -24.180847   1.000000
     26        -24.180847   1.000000
     27        -24.179857   1.000000
     28        -24.179857   1.000000
     29        -24.139268   1.000000
     30        -24.139244   1.000000
     31        -24.138250   1.000000
     32        -24.138221   1.000000
     33         -0.776766   1.000000
     34          0.664711   1.000000
     35          3.065468   1.000000
     36          3.319915   1.000000
     37          3.319940   1.000000
     38          3.647527   1.000000
     39          3.647559   1.000000
     40          3.750497   1.000000
     41          3.750497   1.000000
     42          5.119317   1.000000
     43          5.308485   1.000000
     44          5.308485   1.000000
     45          5.842512   1.000000
     46          6.025070   1.000000
     47          6.025070   1.000000
     48          6.510216   1.000000
     49          6.641997   1.000000
     50          6.642011   1.000000
     51          7.139353   1.000000
     52          7.139378   1.000000
     53          7.177208   1.000000
     54          7.177208   1.000000
     55          7.556467   1.000000
     56          7.738016   1.000008
     57          7.743419   1.000009
     58          7.743419   1.000009
     59          7.910840   1.000924
     60          7.919764   1.001130
     61          8.152745   1.033704
     62          8.152745   1.033704
     63          8.158141   1.034385
     64          8.158141   1.034385
     65          9.034976  -0.000063
     66          9.755102  -0.000000
     67          9.755102  -0.000000
     68          9.837340  -0.000000
     69         10.122556  -0.000000
     70         10.122556  -0.000000
     71         10.172692  -0.000000
     72         10.172692  -0.000000
     73         10.173124  -0.000000
     74         10.173124  -0.000000
     75         10.526458  -0.000000
     76         10.538002  -0.000000
     77         10.538002  -0.000000
     78         10.666890  -0.000000
     79         10.666896  -0.000000
     80         10.899347  -0.000000
     81         10.908446  -0.000000
     82         10.908448  -0.000000
     83         11.685532  -0.000000
     84         11.701119  -0.000000
     85         12.097422  -0.000000
     86         12.097426  -0.000000
     87         12.382760  -0.000000
     88         12.382760  -0.000000
     89         12.595155   0.000000
     90         12.597588   0.000000
     91         12.696894   0.000000
     92         12.696894   0.000000
     93         13.119497   0.000000
     94         13.216589   0.000000
     95         13.216589   0.000000
     96         13.299067   0.000000
     97         13.299067   0.000000
     98         13.453014   0.000000
     99         13.453131   0.000000
    100         13.973991   0.000000
    101         13.973991   0.000000
    102         14.131100   0.000000
    103         14.412062   0.000000
    104         14.565759   0.000000
    105         15.479913   0.000000
    106         16.222120   0.000000
    107         16.222146   0.000000
    108         16.485764   0.000000
    109         16.505150   0.000000
    110         16.505150   0.000000
    111         16.511830   0.000000
    112         17.004164   0.000000
    113         18.665734   0.000000
    114         18.665734   0.000000
    115         18.851412   0.000000
    116         18.851412   0.000000
    117         19.302782   0.000000
    118         19.303250   0.000000
    119         19.394031   0.000000
    120         19.394031   0.000000
    121         19.522007   0.000000
    122         19.522007   0.000000
    123         19.796899   0.000000
    124         19.797855   0.000000
    125         19.900993   0.000000
    126         19.900996   0.000000
    127         20.005541   0.000000
    128         20.291428   0.000000
 
  0.1111111E+00  0.1276756E-14  0.1276756E-14  0.8230453E-02
      1        -48.223917   1.000000
      2        -48.222863   1.000000
      3        -48.169894   1.000000
      4        -48.168927   1.000000
      5        -48.166496   1.000000
      6        -48.165521   1.000000
      7        -48.114453   1.000000
      8        -48.113474   1.000000
      9        -24.650278   1.000000
     10        -24.647455   1.000000
     11        -24.638443   1.000000
     12        -24.635648   1.000000
     13        -24.634912   1.000000
     14        -24.617555   1.000000
     15        -24.587211   1.000000
     16        -24.585597   1.000000
     17        -24.576481   1.000000
     18        -24.572941   1.000000
     19        -24.572078   1.000000
     20        -24.570488   1.000000
     21        -24.563722   1.000000
     22        -24.560400   1.000000
     23        -24.521361   1.000000
     24        -24.510588   1.000000
     25        -24.195456   1.000000
     26        -24.194413   1.000000
     27        -24.179595   1.000000
     28        -24.178601   1.000000
     29        -24.153047   1.000000
     30        -24.151988   1.000000
     31        -24.140512   1.000000
     32        -24.139482   1.000000
     33         -0.716272   1.000000
     34          0.709369   1.000000
     35          2.824542   1.000000
     36          3.108030   1.000000
     37          3.133123   1.000000
     38          3.370021   1.000000
     39          3.683046   1.000000
     40          3.810004   1.000000
     41          4.625148   1.000000
     42          5.062759   1.000000
     43          5.331169   1.000000
     44          5.572816   1.000000
     45          5.859146   1.000000
     46          5.875512   1.000000
     47          6.007085   1.000000
     48          6.529877   1.000000
     49          6.560330   1.000000
     50          6.673690   1.000000
     51          6.676463   1.000000
     52          7.090072   1.000000
     53          7.090363   1.000000
     54          7.269735   1.000000
     55          7.578838   1.000000
     56          7.685956   1.000001
     57          7.771040   1.000022
     58          7.785446   1.000034
     59          7.860988   1.000274
     60          8.093847   1.021458
     61          8.104650   1.023948
     62          8.208403   1.030434
     63          8.220164   1.025473
     64          8.548118   0.064320
     65          9.058481  -0.000031
     66          9.749878  -0.000000
     67          9.776893  -0.000000
     68          9.988061  -0.000000
     69         10.037901  -0.000000
     70         10.062759  -0.000000
     71         10.160594  -0.000000
     72         10.186646  -0.000000
     73         10.211384  -0.000000
     74         10.227934  -0.000000
     75         10.496765  -0.000000
     76         10.548624  -0.000000
     77         10.599754  -0.000000
     78         10.640463  -0.000000
     79         10.650935  -0.000000
     80         10.716336  -0.000000
     81         10.804492  -0.000000
     82         10.896688  -0.000000
     83         11.624026  -0.000000
     84         11.643963  -0.000000
     85         11.766573  -0.000000
     86         12.100296  -0.000000
     87         12.169552  -0.000000
     88         12.276693  -0.000000
     89         12.455570   0.000000
     90         12.518698   0.000000
     91         12.685117   0.000000
     92         13.057483   0.000000
     93         13.065063   0.000000
     94         13.267322   0.000000
     95         13.316893   0.000000
     96         13.453194   0.000000
     97         13.535604   0.000000
     98         13.622057   0.000000
     99         13.642072   0.000000
    100         13.972551   0.000000
    101         14.052282   0.000000
    102         14.226803   0.000000
    103         14.406237   0.000000
    104         14.595360   0.000000
    105         15.335895   0.000000
    106         15.358299   0.000000
    107         16.185124   0.000000
    108         16.446390   0.000000
    109         16.579715   0.000000
    110         16.683379   0.000000
    111         17.012720   0.000000
    112         17.410524   0.000000
    113         18.378341   0.000000
    114         18.509895   0.000000
    115         18.738417   0.000000
    116         18.869894   0.000000
    117         18.998418   0.000000
    118         19.011197   0.000000
    119         19.160187   0.000000
    120         19.185613   0.000000
    121         19.341827   0.000000
    122         19.530480   0.000000
    123         19.554632   0.000000
    124         19.566819   0.000000
    125         19.630252   0.000000
    126         19.827856   0.000000
    127         19.987464   0.000000
    128         20.120569   0.000000
 
  0.2222222E+00  0.1276756E-14  0.1276756E-14  0.8230453E-02
      1        -48.218956   1.000000
      2        -48.217909   1.000000
      3        -48.174913   1.000000
      4        -48.173951   1.000000
      5        -48.161709   1.000000
      6        -48.160737   1.000000
      7        -48.119296   1.000000
      8        -48.118312   1.000000
      9        -24.644480   1.000000
     10        -24.641782   1.000000
     11        -24.629539   1.000000
     12        -24.612606   1.000000
     13        -24.598466   1.000000
     14        -24.595867   1.000000
     15        -24.593084   1.000000
     16        -24.591347   1.000000
     17        -24.581910   1.000000
     18        -24.568717   1.000000
     19        -24.568197   1.000000
     20        -24.555814   1.000000
     21        -24.534200   1.000000
     22        -24.532667   1.000000
     23        -24.526163   1.000000
     24        -24.515201   1.000000
     25        -24.237376   1.000000
     26        -24.236207   1.000000
     27        -24.192638   1.000000
     28        -24.191541   1.000000
     29        -24.176003   1.000000
     30        -24.174998   1.000000
     31        -24.144135   1.000000
     32        -24.143112   1.000000
     33         -0.535795   1.000000
     34          0.842670   1.000000
     35          2.025031   1.000000
     36          2.664216   1.000000
     37          3.332933   1.000000
     38          3.519299   1.000000
     39          3.787543   1.000000
     40          3.986749   1.000000
     41          4.905392   1.000000
     42          5.396675   1.000000
     43          5.459821   1.000000
     44          5.561656   1.000000
     45          5.867362   1.000000
     46          5.952938   1.000000
     47          5.971965   1.000000
     48          6.170839   1.000000
     49          6.384924   1.000000
     50          6.702643   1.000000
     51          6.766362   1.000000
     52          6.778230   1.000000
     53          6.954905   1.000000
     54          7.543214   1.000000
     55          7.633497   1.000000
     56          7.724645   1.000005
     57          7.863243   1.000291
     58          7.914822   1.001011
     59          7.919336   1.001120
     60          7.968804   1.003159
     61          8.045189   1.011610
     62          8.357810   0.752579
     63          8.415416   0.522933
     64          9.128030  -0.000003
     65          9.129379  -0.000003
     66          9.654017  -0.000000
     67          9.658568  -0.000000
     68          9.724556  -0.000000
     69          9.840443  -0.000000
     70         10.227085  -0.000000
     71         10.272280  -0.000000
     72         10.288770  -0.000000
     73         10.323535  -0.000000
     74         10.384463  -0.000000
     75         10.402239  -0.000000
     76         10.570522  -0.000000
     77         10.579395  -0.000000
     78         10.605376  -0.000000
     79         10.617072  -0.000000
     80         10.618540  -0.000000
     81         10.775511  -0.000000
     82         10.863043  -0.000000
     83         10.977599  -0.000000
     84         11.454880  -0.000000
     85         11.484738  -0.000000
     86         12.004213  -0.000000
     87         12.045653  -0.000000
     88         12.103513  -0.000000
     89         12.351444  -0.000000
     90         12.383752  -0.000000
     91         12.646854   0.000000
     92         12.681771   0.000000
     93         13.393339   0.000000
     94         13.455551   0.000000
     95         13.690932   0.000000
     96         13.928099   0.000000
     97         13.966533   0.000000
     98         14.015665   0.000000
     99         14.059660   0.000000
    100         14.082826   0.000000
    101         14.144144   0.000000
    102         14.319885   0.000000
    103         14.466413   0.000000
    104         14.487931   0.000000
    105         14.722566   0.000000
    106         14.931769   0.000000
    107         16.071465   0.000000
    108         16.791713   0.000000
    109         17.015603   0.000000
    110         17.088316   0.000000
    111         17.151151   0.000000
    112         17.319465   0.000000
    113         17.743307   0.000000
    114         18.026307   0.000000
    115         18.142777   0.000000
    116         18.382869   0.000000
    117         18.620199   0.000000
    118         18.701004   0.000000
    119         18.806886   0.000000
    120         18.914343   0.000000
    121         18.925856   0.000000
    122         19.028538   0.000000
    123         19.221975   0.000000
    124         19.400226   0.000000
    125         19.410311   0.000000
    126         19.536010   0.000000
    127         19.705338   0.000000
    128         19.832368   0.000000
 
  0.3333333E+00  0.1276756E-14  0.1276756E-14  0.8230453E-02
      1        -48.211349   1.000000
      2        -48.210311   1.000000
      3        -48.182596   1.000000
      4        -48.181620   1.000000
      5        -48.154372   1.000000
      6        -48.153389   1.000000
      7        -48.126699   1.000000
      8        -48.125722   1.000000
      9        -24.635585   1.000000
     10        -24.633061   1.000000
     11        -24.621299   1.000000
     12        -24.605034   1.000000
     13        -24.602045   1.000000
     14        -24.600144   1.000000
     15        -24.590222   1.000000
     16        -24.576379   1.000000
     17        -24.560924   1.000000
     18        -24.548787   1.000000
     19        -24.536861   1.000000
     20        -24.534514   1.000000
     21        -24.533490   1.000000
     22        -24.522273   1.000000
     23        -24.475850   1.000000
     24        -24.474403   1.000000
     25        -24.301214   1.000000
     26        -24.299789   1.000000
     27        -24.252928   1.000000
     28        -24.251756   1.000000
     29        -24.170486   1.000000
     30        -24.169471   1.000000
     31        -24.149683   1.000000
     32        -24.148670   1.000000
     33         -0.238143   1.000000
     34          1.062540   1.000000
     35          1.310648   1.000000
     36          2.185563   1.000000
     37          3.656496   1.000000
     38          3.764518   1.000000
     39          3.954605   1.000000
     40          4.275664   1.000000
     41          4.679069   1.000000
     42          4.980178   1.000000
     43          5.218762   1.000000
     44          5.497290   1.000000
     45          5.735146   1.000000
     46          5.864243   1.000000
     47          6.124173   1.000000
     48          6.433114   1.000000
     49          6.760668   1.000000
     50          6.895765   1.000000
     51          6.912734   1.000000
     52          6.912960   1.000000
     53          6.942139   1.000000
     54          7.531932   1.000000
     55          7.674135   1.000001
     56          7.677022   1.000001
     57          7.769377   1.000021
     58          7.985644   1.004347
     59          7.993798   1.005042
     60          8.135028   1.030663
     61          8.211453   1.029337
     62          8.602023  -0.012410
     63          8.714450  -0.029050
     64          9.093671  -0.000011
     65          9.237218  -0.000000
     66          9.239699  -0.000000
     67          9.427515  -0.000000
     68          9.655340  -0.000000
     69          9.803738  -0.000000
     70          9.940303  -0.000000
     71         10.039277  -0.000000
     72         10.289944  -0.000000
     73         10.391909  -0.000000
     74         10.450071  -0.000000
     75         10.464786  -0.000000
     76         10.482749  -0.000000
     77         10.501506  -0.000000
     78         10.536698  -0.000000
     79         10.624749  -0.000000
     80         10.627048  -0.000000
     81         10.812115  -0.000000
     82         11.045009  -0.000000
     83         11.214715  -0.000000
     84         11.254704  -0.000000
     85         11.267361  -0.000000
     86         11.650143  -0.000000
     87         11.729766  -0.000000
     88         12.087649  -0.000000
     89         12.234253  -0.000000
     90         12.253464  -0.000000
     91         12.573768   0.000000
     92         12.732733   0.000000
     93         12.990886   0.000000
     94         13.614555   0.000000
     95         13.700240   0.000000
     96         13.950560   0.000000
     97         14.152878   0.000000
     98         14.337479   0.000000
     99         14.367812   0.000000
    100         14.421967   0.000000
    101         14.644405   0.000000
    102         14.729975   0.000000
    103         14.833115   0.000000
    104         14.850445   0.000000
    105         14.982762   0.000000
    106         15.025744   0.000000
    107         15.875210   0.000000
    108         16.116298   0.000000
    109         17.013178   0.000000
    110         17.114402   0.000000
    111         17.244287   0.000000
    112         17.275368   0.000000
    113         17.357414   0.000000
    114         17.461168   0.000000
    115         17.638414   0.000000
    116         17.779205   0.000000
    117         17.826292   0.000000
    118         18.230498   0.000000
    119         18.371632   0.000000
    120         18.417418   0.000000
    121         18.497036   0.000000
    122         19.020799   0.000000
    123         19.073961   0.000000
    124         19.113568   0.000000
    125         19.480123   0.000000
    126         19.563431   0.000000
    127         19.947806   0.000000
    128         19.984209   0.000000
 
  0.4444444E+00  0.1276756E-14  0.1276756E-14  0.8230453E-02
      1        -48.201984   1.000000
      2        -48.200969   1.000000
      3        -48.191986   1.000000
      4        -48.191000   1.000000
      5        -48.145365   1.000000
      6        -48.144400   1.000000
      7        -48.135759   1.000000
      8        -48.134788   1.000000
      9        -24.624662   1.000000
     10        -24.622361   1.000000
     11        -24.613016   1.000000
     12        -24.611191   1.000000
     13        -24.610933   1.000000
     14        -24.600389   1.000000
     15        -24.595711   1.000000
     16        -24.585740   1.000000
     17        -24.552002   1.000000
     18        -24.542467   1.000000
     19        -24.540142   1.000000
     20        -24.530938   1.000000
     21        -24.460665   1.000000
     22        -24.458661   1.000000
     23        -24.403751   1.000000
     24        -24.402402   1.000000
     25        -24.378838   1.000000
     26        -24.377134   1.000000
     27        -24.326322   1.000000
     28        -24.325079   1.000000
     29        -24.163707   1.000000
     30        -24.162692   1.000000
     31        -24.156473   1.000000
     32        -24.155463   1.000000
     33          0.172463   1.000000
     34          0.690761   1.000000
     35          1.365112   1.000000
     36          1.743627   1.000000
     37          4.090481   1.000000
     38          4.099279   1.000000
     39          4.172574   1.000000
     40          4.423002   1.000000
     41          4.511840   1.000000
     42          4.618073   1.000000
     43          4.669391   1.000000
     44          5.159199   1.000000
     45          5.620204   1.000000
     46          5.748517   1.000000
     47          6.319310   1.000000
     48          6.539293   1.000000
     49          7.076559   1.000000
     50          7.101356   1.000000
     51          7.138941   1.000000
     52          7.158548   1.000000
     53          7.315015   1.000000
     54          7.411655   1.000000
     55          7.565623   1.000000
     56          7.610921   1.000000
     57          7.659104   1.000001
     58          8.127999   1.029215
     59          8.219242   1.025936
     60          8.408194   0.553386
     61          8.441118   0.414674
     62          8.576396   0.015855
     63          8.817599  -0.008421
     64          8.933470  -0.000869
     65          9.065009  -0.000026
     66          9.284251  -0.000000
     67          9.340345  -0.000000
     68          9.361725  -0.000000
     69          9.382662  -0.000000
     70          9.533101  -0.000000
     71         10.067722  -0.000000
     72         10.212855  -0.000000
     73         10.368591  -0.000000
     74         10.397470  -0.000000
     75         10.412683  -0.000000
     76         10.454257  -0.000000
     77         10.680814  -0.000000
     78         10.686390  -0.000000
     79         10.731231  -0.000000
     80         10.750654  -0.000000
     81         10.929326  -0.000000
     82         10.944827  -0.000000
     83         10.991760  -0.000000
     84         11.279080  -0.000000
     85         11.389124  -0.000000
     86         11.703813  -0.000000
     87         11.764132  -0.000000
     88         11.791831  -0.000000
     89         12.006380  -0.000000
     90         12.131683  -0.000000
     91         12.319485  -0.000000
     92         12.458048   0.000000
     93         13.201690   0.000000
     94         13.763129   0.000000
     95         13.840104   0.000000
     96         13.914263   0.000000
     97         14.135232   0.000000
     98         14.299529   0.000000
     99         14.381720   0.000000
    100         15.011037   0.000000
    101         15.094535   0.000000
    102         15.233471   0.000000
    103         15.239919   0.000000
    104         15.522827   0.000000
    105         15.572916   0.000000
    106         15.593917   0.000000
    107         15.599411   0.000000
    108         15.972143   0.000000
    109         16.344277   0.000000
    110         16.365712   0.000000
    111         16.374170   0.000000
    112         16.459954   0.000000
    113         16.564015   0.000000
    114         17.067263   0.000000
    115         17.520143   0.000000
    116         17.567102   0.000000
    117         17.942217   0.000000
    118         17.987004   0.000000
    119         18.637602   0.000000
    120         18.650323   0.000000
    121         18.689383   0.000000
    122         18.900321   0.000000
    123         19.157049   0.000000
    124         19.281514   0.000000
    125         19.337347   0.000000
    126         19.401548   0.000000
    127         19.536565   0.000000
    128         19.579676   0.000000
 
  0.1111111E+00  0.1111111E+00  0.1276756E-14  0.8230453E-02
      1        -48.222199   1.000000
      2        -48.221146   1.000000
      3        -48.168234   1.000000
      4        -48.168234   1.000000
      5        -48.167258   1.000000
      6        -48.167258   1.000000
      7        -48.116144   1.000000
      8        -48.115154   1.000000
      9        -24.636465   1.000000
     10        -24.636457   1.000000
     11        -24.633709   1.000000
     12        -24.633696   1.000000
     13        -24.633059   1.000000
     14        -24.615837   1.000000
     15        -24.574905   1.000000
     16        -24.574821   1.000000
     17        -24.574821   1.000000
     18        -24.573268   1.000000
     19        -24.573256   1.000000
     20        -24.571689   1.000000
     21        -24.562135   1.000000
     22        -24.562135   1.000000
     23        -24.523028   1.000000
     24        -24.512198   1.000000
     25        -24.195047   1.000000
     26        -24.193971   1.000000
     27        -24.193316   1.000000
     28        -24.192314   1.000000
     29        -24.154343   1.000000
     30        -24.154320   1.000000
     31        -24.153291   1.000000
     32        -24.153263   1.000000
     33         -0.655948   1.000000
     34          0.754053   1.000000
     35          2.874215   1.000000
     36          2.874234   1.000000
     37          3.156544   1.000000
     38          3.156576   1.000000
     39          3.200273   1.000000
     40          4.669820   1.000000
     41          4.669834   1.000000
     42          4.963803   1.000000
     43          5.596061   1.000000
     44          5.596064   1.000000
     45          5.603219   1.000000
     46          5.904743   1.000000
     47          6.112326   1.000000
     48          6.553128   1.000000
     49          6.553146   1.000000
     50          6.609853   1.000000
     51          6.707628   1.000000
     52          6.707642   1.000000
     53          6.895992   1.000000
     54          7.602349   1.000000
     55          7.713682   1.000003
     56          7.713689   1.000003
     57          7.792365   1.000041
     58          7.805101   1.000060
     59          7.819112   1.000089
     60          8.070199   1.016293
     61          8.168510   1.035258
     62          8.168510   1.035258
     63          8.219909   1.025602
     64          8.799938  -0.011040
     65          9.081623  -0.000015
     66          9.763896  -0.000000
     67          9.763900  -0.000000
     68          9.982528  -0.000000
     69         10.034855  -0.000000
     70         10.034857  -0.000000
     71         10.125075  -0.000000
     72         10.251788  -0.000000
     73         10.259030  -0.000000
     74         10.259039  -0.000000
     75         10.454424  -0.000000
     76         10.465268  -0.000000
     77         10.621772  -0.000000
     78         10.621779  -0.000000
     79         10.701100  -0.000000
     80         10.701101  -0.000000
     81         10.726383  -0.000000
     82         10.758990  -0.000000
     83         11.559237  -0.000000
     84         11.585014  -0.000000
     85         11.606523  -0.000000
     86         11.898537  -0.000000
     87         12.174239  -0.000000
     88         12.174245  -0.000000
     89         12.443691   0.000000
     90         12.467754   0.000000
     91         12.467760   0.000000
     92         13.288264   0.000000
     93         13.288271   0.000000
     94         13.331787   0.000000
     95         13.382550   0.000000
     96         13.407996   0.000000
     97         13.761163   0.000000
     98         13.777733   0.000000
     99         13.777844   0.000000
    100         14.059259   0.000000
    101         14.059265   0.000000
    102         14.314623   0.000000
    103         14.405508   0.000000
    104         14.645438   0.000000
    105         15.076118   0.000000
    106         15.235819   0.000000
    107         16.128191   0.000000
    108         16.419289   0.000000
    109         16.419319   0.000000
    110         16.790175   0.000000
    111         16.965734   0.000000
    112         18.034318   0.000000
    113         18.041786   0.000000
    114         18.378735   0.000000
    115         18.378982   0.000000
    116         18.686000   0.000000
    117         18.720572   0.000000
    118         18.743487   0.000000
    119         18.743734   0.000000
    120         18.961148   0.000000
    121         19.371990   0.000000
    122         19.551471   0.000000
    123         19.624778   0.000000
    124         19.638450   0.000000
    125         19.638720   0.000000
    126         19.654348   0.000000
    127         20.362536   0.000000
    128         20.362787   0.000000
 
  0.2222222E+00  0.1111111E+00  0.1276756E-14  0.1646091E-01
      1        -48.217233   1.000000
      2        -48.216195   1.000000
      3        -48.173253   1.000000
      4        -48.172274   1.000000
      5        -48.163453   1.000000
      6        -48.162478   1.000000
      7        -48.120980   1.000000
      8        -48.120005   1.000000
      9        -24.630731   1.000000
     10        -24.628095   1.000000
     11        -24.627702   1.000000
     12        -24.610899   1.000000
     13        -24.596549   1.000000
     14        -24.593970   1.000000
     15        -24.580229   1.000000
     16        -24.579922   1.000000
     17        -24.578208   1.000000
     18        -24.570063   1.000000
     19        -24.567133   1.000000
     20        -24.557536   1.000000
     21        -24.536094   1.000000
     22        -24.534539   1.000000
     23        -24.527854   1.000000
     24        -24.516815   1.000000
     25        -24.236082   1.000000