       N       E                     dE             d eps       ncg     rms          rms(c)
DAV:   1     0.972218702279E+03    0.97222E+03   -0.57054E+04 15360   0.100E+03
DAV:   2     0.510692811564E+02   -0.92115E+03   -0.88297E+03 15552   0.278E+02
DAV:   3    -0.187126768808E+02   -0.69782E+02   -0.68285E+02 30272   0.657E+01
DAV:   4    -0.209457908018E+02   -0.22331E+01   -0.22321E+01 16128   0.106E+01
DAV:   5    -0.210023465196E+02   -0.56556E-01   -0.56554E-01 24320   0.166E+00    0.284E+01
DAV:   6     0.646043104021E+01    0.27463E+02   -0.32344E+01 18624   0.255E+01    0.102E+01
DAV:   7     0.131238613522E+02    0.66634E+01   -0.34770E+00 19136   0.809E+00    0.648E+00
DAV:   8     0.180370750368E+02    0.49132E+01   -0.14932E+00 21248   0.408E+00    0.210E+00
DAV:   9     0.180444165596E+02    0.73415E-02   -0.21105E-01 20672   0.224E+00    0.751E-01
DAV:  10     0.180864520422E+02    0.42035E-01   -0.22505E-02 20480   0.524E-01    0.120E-01
DAV:  11     0.180864122540E+02   -0.39788E-04   -0.35645E-03 20928   0.186E-01    0.119E-01
DAV:  12     0.180865310749E+02    0.11882E-03   -0.33465E-04 20800   0.688E-02    0.304E-02
DAV:  13     0.180865440339E+02    0.12959E-04   -0.21933E-05 22720   0.164E-02    0.102E-02
DAV:  14     0.180865434072E+02   -0.62676E-06   -0.24812E-06 20928   0.573E-03
   1 F= 0.18086543E+02 E0= 0.18082786E+02  d E =0.112725E-01
 Found     6 degrees of freedom:
 Adding 6 more for cell shape distortion
       N       E                     dE             d eps       ncg     rms          rms(c)
DAV:   1     0.177305708748E+02   -0.35597E+00   -0.10465E+01 33408   0.149E+01    0.611E+00
DAV:   2     0.181501015596E+02    0.41953E+00   -0.17676E+00 34368   0.617E+00    0.198E+00
DAV:   3     0.182465794267E+02    0.96478E-01   -0.25780E-01 33280   0.180E+00    0.780E-01
DAV:   4     0.182507948932E+02    0.42155E-02   -0.63615E-02 36288   0.731E-01    0.417E-01
DAV:   5     0.182468427619E+02   -0.39521E-02   -0.62507E-03 32960   0.205E-01    0.258E-01
DAV:   6     0.182439069664E+02   -0.29358E-02   -0.61420E-03 43520   0.119E-01    0.145E-01
DAV:   7     0.182436452880E+02   -0.26168E-03   -0.54932E-04 29568   0.641E-02    0.100E-02
DAV:   8     0.182436389506E+02   -0.63374E-05   -0.61637E-05 36480   0.145E-02    0.132E-02
DAV:   9     0.182436427090E+02    0.37584E-05   -0.48336E-06 34624   0.774E-03    0.258E-03
DAV:  10     0.182436419353E+02   -0.77374E-06   -0.52590E-07 31040   0.175E-03
   2 F= 0.18243642E+02 E0= 0.18240147E+02  d E =0.104847E-01
       N       E                     dE             d eps       ncg     rms          rms(c)
DAV:   1     0.160407645634E+02   -0.22029E+01   -0.36504E+01 35392   0.275E+01    0.116E+01
DAV:   2     0.176812234510E+02    0.16405E+01   -0.56490E+00 32384   0.109E+01    0.381E+00
DAV:   3     0.179983243370E+02    0.31710E+00   -0.84256E-01 33408   0.316E+00    0.171E+00
DAV:   4     0.180247849074E+02    0.26461E-01   -0.29162E-01 37312   0.161E+00    0.886E-01
DAV:   5     0.180072500024E+02   -0.17535E-01   -0.34733E-02 32000   0.592E-01    0.336E-01
DAV:   6     0.180000052251E+02   -0.72448E-02   -0.23782E-02 40128   0.280E-01    0.283E-01
DAV:   7     0.180000001137E+02   -0.51114E-05   -0.15261E-03 30656   0.146E-01    0.132E-02
DAV:   8     0.179999871735E+02   -0.12940E-04   -0.38288E-05 38336   0.194E-02    0.114E-02
DAV:   9     0.179999883975E+02    0.12240E-05   -0.63184E-06 34304   0.796E-03    0.843E-03
DAV:  10     0.179999864069E+02   -0.19906E-05   -0.16119E-06 33344   0.405E-03    0.130E-03
DAV:  11     0.179999866054E+02    0.19849E-06   -0.40798E-08 21376   0.609E-04
   3 F= 0.17999987E+02 E0= 0.17995996E+02  d E =0.119704E-01
       N       E                     dE             d eps       ncg     rms          rms(c)
DAV:   1     0.166351820373E+02   -0.13648E+01   -0.32705E+01 37056   0.262E+01    0.115E+01
DAV:   2     0.179096732840E+02    0.12745E+01   -0.68240E+00 33856   0.121E+01    0.352E+00
DAV:   3     0.182834310877E+02    0.37376E+00   -0.10278E+00 33344   0.369E+00    0.112E+00
DAV:   4     0.182767843053E+02   -0.66468E-02   -0.19703E-01 37696   0.120E+00    0.711E-01
DAV:   5     0.182492562487E+02   -0.27528E-01   -0.38028E-02 37568   0.392E-01    0.270E-01
DAV:   6     0.182444744543E+02   -0.47818E-02   -0.17408E-02 41216   0.185E-01    0.219E-01
DAV:   7     0.182437226146E+02   -0.75184E-03   -0.36984E-03 26816   0.176E-01    0.224E-01
DAV:   8     0.182436366133E+02   -0.86001E-04   -0.69202E-04 29312   0.857E-02    0.247E-02
DAV:   9     0.182436391037E+02    0.24904E-05   -0.10072E-05 43328   0.797E-03    0.176E-02
DAV:  10     0.182436413511E+02    0.22474E-05   -0.52961E-06 36672   0.543E-03    0.298E-04
DAV:  11     0.182436415306E+02    0.17944E-06   -0.21978E-07 25408   0.112E-03
   4 F= 0.18243642E+02 E0= 0.18240147E+02  d E =0.104847E-01
       N       E                     dE             d eps       ncg     rms          rms(c)
DAV:   1     0.160483386869E+02   -0.21953E+01   -0.36534E+01 35584   0.276E+01    0.116E+01
DAV:   2     0.176804633551E+02    0.16321E+01   -0.57231E+00 33408   0.110E+01    0.383E+00
DAV:   3     0.179985287745E+02    0.31807E+00   -0.86646E-01 33344   0.317E+00    0.170E+00
DAV:   4     0.180247555182E+02    0.26227E-01   -0.28762E-01 37440   0.160E+00    0.883E-01
DAV:   5     0.180064468685E+02   -0.18309E-01   -0.35479E-02 32320   0.598E-01    0.314E-01
DAV:   6     0.179999657827E+02   -0.64811E-02   -0.23520E-02 40064   0.284E-01    0.275E-01
DAV:   7     0.179999984767E+02    0.32694E-04   -0.15038E-03 29696   0.143E-01    0.123E-02
DAV:   8     0.179999873694E+02   -0.11107E-04   -0.35353E-05 37824   0.184E-02    0.110E-02
DAV:   9     0.179999886872E+02    0.13178E-05   -0.62431E-06 33728   0.768E-03    0.858E-03
DAV:  10     0.179999864389E+02   -0.22484E-05   -0.19256E-06 33792   0.437E-03    0.136E-03
DAV:  11     0.179999866214E+02    0.18249E-06   -0.52496E-08 20352   0.688E-04
   5 F= 0.17999987E+02 E0= 0.17995996E+02  d E =0.119704E-01
       N       E                     dE             d eps       ncg     rms          rms(c)
DAV:   1     0.164678339360E+02   -0.15322E+01   -0.29548E+01 26368   0.248E+01    0.122E+01
DAV:   2     0.178434039679E+02    0.13756E+01   -0.80439E+00 20864   0.126E+01    0.390E+00
DAV:   3     0.183203551629E+02    0.47695E+00   -0.11119E+00 20032   0.421E+00    0.123E+00
DAV:   4     0.182979306309E+02   -0.22425E-01   -0.18788E-01 21120   0.113E+00    0.741E-01
DAV:   5     0.182484392990E+02   -0.49491E-01   -0.59457E-02 22912   0.487E-01    0.349E-01
DAV:   6     0.182394360426E+02   -0.90033E-02   -0.98584E-03 22464   0.203E-01    0.184E-01
DAV:   7     0.182353172932E+02   -0.41187E-02   -0.16173E-03 18624   0.115E-01    0.855E-02
DAV:   8     0.182354836514E+02    0.16636E-03   -0.14456E-04 20992   0.312E-02    0.244E-02
DAV:   9     0.182352911108E+02   -0.19254E-03   -0.93971E-06 22272   0.817E-03    0.156E-02
DAV:  10     0.182352866810E+02   -0.44297E-05   -0.33178E-06 19648   0.571E-03    0.220E-03
DAV:  11     0.182352804383E+02   -0.62427E-05   -0.20570E-07 13184   0.104E-03    0.369E-04
DAV:  12     0.182352755150E+02   -0.49233E-05   -0.52381E-08 11072   0.558E-04    0.120E-04
DAV:  13     0.182352751929E+02   -0.32210E-06   -0.17116E-08 10368   0.282E-04
   6 F= 0.18235275E+02 E0= 0.18231238E+02  d E =0.121116E-01
       N       E                     dE             d eps       ncg     rms          rms(c)
DAV:   1     0.159518842331E+02   -0.22834E+01   -0.38667E+01 22976   0.293E+01    0.117E+01
DAV:   2     0.176229024920E+02    0.16710E+01   -0.70344E+00 19328   0.121E+01    0.422E+00
DAV:   3     0.179881859226E+02    0.36528E+00   -0.93042E-01 19968   0.377E+00    0.187E+00
DAV:   4     0.180216678790E+02    0.33482E-01   -0.27965E-01 23232   0.142E+00    0.845E-01
DAV:   5     0.180005029271E+02   -0.21165E-01   -0.50232E-02 18624   0.748E-01    0.377E-01
DAV:   6     0.180013397466E+02    0.83682E-03   -0.15170E-02 23296   0.338E-01    0.142E-01
DAV:   7     0.180011555252E+02   -0.18422E-03   -0.18441E-03 17408   0.131E-01    0.521E-02
DAV:   8     0.180011598706E+02    0.43454E-05   -0.73230E-05 20736   0.244E-02    0.430E-03
DAV:   9     0.180011556331E+02   -0.42375E-05   -0.45168E-06 22848   0.579E-03    0.554E-03
DAV:  10     0.180011564950E+02    0.86187E-06   -0.14742E-06 19712   0.302E-03
   7 F= 0.18001156E+02 E0= 0.17997753E+02  d E =0.102115E-01
       N       E                     dE             d eps       ncg     rms          rms(c)
DAV:   1     0.174800588968E+02   -0.52110E+00   -0.12746E+01 58880   0.171E+01    0.660E+00
DAV:   2     0.179527314471E+02    0.47267E+00   -0.22770E+00 55616   0.693E+00    0.244E+00
DAV:   3     0.180888803056E+02    0.13615E+00   -0.29152E-01 55104   0.219E+00    0.108E+00
DAV:   4     0.181011461143E+02    0.12266E-01   -0.72811E-02 64832   0.772E-01    0.455E-01
DAV:   5     0.180958848239E+02   -0.52613E-02   -0.12327E-02 52928   0.295E-01    0.803E-02
DAV:   6     0.180956058551E+02   -0.27897E-03   -0.25857E-03 65600   0.850E-02    0.697E-02
DAV:   7     0.180956092847E+02    0.34296E-05   -0.45226E-04 46016   0.662E-02    0.759E-02
DAV:   8     0.180955710613E+02   -0.38223E-04   -0.76806E-05 51264   0.310E-02    0.735E-03
DAV:   9     0.180955705742E+02   -0.48708E-06   -0.19515E-06 61696   0.450E-03
   8 F= 0.18095571E+02 E0= 0.18091994E+02  d E =0.107286E-01
       N       E                     dE             d eps       ncg     rms          rms(c)
DAV:   1     0.178477186951E+02   -0.24785E+00   -0.56488E+00 53824   0.904E+00    0.378E+00
DAV:   2     0.180263342326E+02    0.17862E+00   -0.21351E-01 47232   0.169E+00    0.197E+00
DAV:   3     0.180953990376E+02    0.69065E-01   -0.48357E-02 63168   0.128E+00    0.135E-01
DAV:   4     0.180952906547E+02   -0.10838E-03   -0.81707E-03 44160   0.296E-01    0.674E-02
DAV:   5     0.180955490567E+02    0.25840E-03   -0.26675E-04 73088   0.897E-02    0.328E-02
DAV:   6     0.180955683482E+02    0.19292E-04   -0.59149E-05 55040   0.316E-02    0.795E-03
DAV:   7     0.180955699047E+02    0.15565E-05   -0.58395E-06 51072   0.719E-03    0.330E-03
DAV:   8     0.180955704984E+02    0.59379E-06   -0.23588E-07 45504   0.223E-03
   9 F= 0.18095570E+02 E0= 0.18091994E+02  d E =0.107289E-01
       N       E                     dE             d eps       ncg     rms          rms(c)
DAV:   1     0.179725946285E+02   -0.12298E+00   -0.54615E+00 45696   0.109E+01    0.253E+00
DAV:   2     0.180597808888E+02    0.87186E-01   -0.25005E-01 38976   0.176E+00    0.138E+00
DAV:   3     0.181058650747E+02    0.46084E-01   -0.35749E-02 59520   0.104E+00    0.226E-01
DAV:   4     0.181066449865E+02    0.77991E-03   -0.68885E-03 42176   0.330E-01    0.101E-01
DAV:   5     0.181069271871E+02    0.28220E-03   -0.46370E-04 60608   0.111E-01    0.235E-02
DAV:   6     0.181069354077E+02    0.82206E-05   -0.63190E-05 45952   0.318E-02    0.837E-03
DAV:   7     0.181069370172E+02    0.16095E-05   -0.41152E-06 53184   0.593E-03    0.134E-03
DAV:   8     0.181069372535E+02    0.23623E-06   -0.13117E-07 35712   0.161E-03
  10 F= 0.18106937E+02 E0= 0.18103198E+02  d E =0.112171E-01
       N       E                     dE             d eps       ncg     rms          rms(c)
DAV:   1     0.177784062367E+02   -0.32853E+00   -0.81294E+00 46528   0.124E+01    0.410E+00
DAV:   2     0.180220617772E+02    0.24366E+00   -0.44658E-01 39424   0.231E+00    0.201E+00
DAV:   3     0.181065278133E+02    0.84466E-01   -0.81811E-02 57216   0.133E+00    0.208E-01
DAV:   4     0.181065459448E+02    0.18131E-04   -0.11264E-02 41152   0.366E-01    0.120E-01
DAV:   5     0.181069234407E+02    0.37750E-03   -0.46037E-04 62528   0.118E-01    0.493E-02
DAV:   6     0.181069322525E+02    0.88117E-05   -0.97537E-05 49344   0.308E-02    0.113E-02
DAV:   7     0.181069367183E+02    0.44658E-05   -0.45431E-06 50752   0.693E-03    0.339E-03
DAV:   8     0.181069373279E+02    0.60959E-06   -0.32760E-07 38400   0.275E-03
  11 F= 0.18106937E+02 E0= 0.18103198E+02  d E =0.112171E-01
       N       E                     dE             d eps       ncg     rms          rms(c)
DAV:   1     0.179450302292E+02   -0.16191E+00   -0.43261E+00 46976   0.832E+00    0.256E+00
DAV:   2     0.180502202370E+02    0.10519E+00   -0.22898E-01 41024   0.162E+00    0.138E+00
DAV:   3     0.181053055543E+02    0.55085E-01   -0.42742E-02 56000   0.109E+00    0.239E-01
DAV:   4     0.181065401130E+02    0.12346E-02   -0.77252E-03 43200   0.342E-01    0.109E-01
DAV:   5     0.181068863393E+02    0.34623E-03   -0.65517E-04 60992   0.128E-01    0.241E-02
DAV:   6     0.181068820432E+02   -0.42961E-05   -0.99893E-05 46656   0.378E-02    0.940E-03
DAV:   7     0.181068899725E+02    0.79293E-05   -0.64792E-06 56640   0.717E-03    0.157E-03
DAV:   8     0.181068918975E+02    0.19250E-05   -0.19401E-07 34240   0.165E-03    0.582E-04
DAV:   9     0.181068923963E+02    0.49881E-06   -0.48167E-08 28352   0.652E-04
  12 F= 0.18106892E+02 E0= 0.18103148E+02  d E =0.112344E-01
       N       E                     dE             d eps       ncg     rms          rms(c)
DAV:   1     0.177760617940E+02   -0.33083E+00   -0.78976E+00 46208   0.120E+01    0.410E+00
DAV:   2     0.180221832498E+02    0.24612E+00   -0.42961E-01 37504   0.228E+00    0.201E+00
DAV:   3     0.181064905292E+02    0.84307E-01   -0.81388E-02 55744   0.134E+00    0.209E-01
DAV:   4     0.181065011126E+02    0.10583E-04   -0.11332E-02 40448   0.365E-01    0.121E-01
DAV:   5     0.181068806766E+02    0.37956E-03   -0.46912E-04 63232   0.119E-01    0.487E-02
DAV:   6     0.181068870839E+02    0.64073E-05   -0.99235E-05 49152   0.304E-02    0.115E-02
DAV:   7     0.181068919345E+02    0.48505E-05   -0.41797E-06 50880   0.679E-03    0.329E-03
DAV:   8     0.181068925236E+02    0.58913E-06   -0.31242E-07 36032   0.270E-03
  13 F= 0.18106893E+02 E0= 0.18103148E+02  d E =0.112346E-01
       N       E                     dE             d eps       ncg     rms          rms(c)
DAV:   1     0.180227736359E+02   -0.84118E-01   -0.34678E+00 33088   0.103E+01    0.154E+00
DAV:   2     0.180537435276E+02    0.30970E-01   -0.23681E-01 25984   0.151E+00    0.951E-01
DAV:   3     0.180876449582E+02    0.33901E-01   -0.29058E-02 38592   0.885E-01    0.165E-01
DAV:   4     0.180869189346E+02   -0.72602E-03   -0.11209E-02 33792   0.479E-01    0.226E-01
DAV:   5     0.180875414474E+02    0.62251E-03   -0.28681E-03 42944   0.267E-01    0.368E-02
DAV:   6     0.180875338564E+02   -0.75910E-05   -0.21329E-04 39104   0.796E-02    0.343E-02
DAV:   7     0.180875378034E+02    0.39470E-05   -0.98148E-05 37760   0.508E-02    0.204E-02
DAV:   8     0.180875397052E+02    0.19018E-05   -0.34792E-05 43136   0.333E-02    0.110E-02
DAV:   9     0.180875391127E+02   -0.59246E-06   -0.81083E-06 36480   0.156E-02
  14 F= 0.18087539E+02 E0= 0.18083783E+02  d E =0.112697E-01
       N       E                     dE             d eps       ncg     rms          rms(c)
DAV:   1     0.180904046036E+02    0.28649E-02   -0.22063E+00 25600   0.106E+01    0.262E-01
DAV:   2     0.180874663611E+02   -0.29382E-02   -0.36548E-02 25856   0.568E-01    0.159E-01
DAV:   3     0.180867353346E+02   -0.73103E-03   -0.46225E-03 40256   0.354E-01    0.259E-01
DAV:   4     0.180875315193E+02    0.79618E-03   -0.30861E-03 37440   0.263E-01    0.471E-02
DAV:   5     0.180875127433E+02   -0.18776E-04   -0.26125E-04 43584   0.100E-01    0.494E-02
DAV:   6     0.180875336211E+02    0.20878E-04   -0.13079E-04 36928   0.646E-02    0.201E-02
DAV:   7     0.180875374052E+02    0.37841E-05   -0.38329E-05 36288   0.319E-02    0.101E-02
DAV:   8     0.180875384332E+02    0.10280E-05   -0.60036E-06 32512   0.135E-02    0.443E-03
DAV:   9     0.180875384605E+02    0.27352E-07   -0.25854E-06 26496   0.816E-03
  15 F= 0.18087538E+02 E0= 0.18083782E+02  d E =0.112703E-01
       N       E                     dE             d eps       ncg     rms          rms(c)
DAV:   1     0.180889581849E+02    0.14198E-02   -0.13378E+00 15360   0.875E+00    0.160E-01
DAV:   2     0.180872111244E+02   -0.17471E-02   -0.20409E-02 15744   0.429E-01    0.986E-02
DAV:   3     0.180870211953E+02   -0.18993E-03   -0.17989E-03 27200   0.184E-01    0.142E-01
DAV:   4     0.180873054899E+02    0.28429E-03   -0.12085E-03 20864   0.137E-01    0.291E-02
DAV:   5     0.180872988567E+02   -0.66332E-05   -0.19145E-04 26368   0.642E-02    0.410E-02
DAV:   6     0.180873262433E+02    0.27387E-04   -0.11219E-04 22272   0.488E-02    0.775E-03
DAV:   7     0.180873278252E+02    0.15819E-05   -0.92312E-06 22464   0.192E-02    0.769E-03
DAV:   8     0.180873300821E+02    0.22569E-05   -0.32732E-06 20288   0.118E-02    0.328E-03
DAV:   9     0.180873306598E+02    0.57768E-06   -0.14522E-06 16192   0.663E-03
  16 F= 0.18087331E+02 E0= 0.18083573E+02  d E =0.112725E-01
       N       E                     dE             d eps       ncg     rms          rms(c)
DAV:   1     0.180915909175E+02    0.42608E-02   -0.26208E+00 15360   0.127E+01    0.211E-01
DAV:   2     0.180872602924E+02   -0.43306E-02   -0.50568E-02 15616   0.639E-01    0.124E-01
DAV:   3     0.180868782681E+02   -0.38202E-03   -0.30648E-03 27008   0.255E-01    0.188E-01
DAV:   4     0.180873221947E+02    0.44393E-03   -0.19967E-03 22784   0.195E-01    0.473E-02
DAV:   5     0.180872911886E+02   -0.31006E-04   -0.29400E-04 25856   0.894E-02    0.556E-02
DAV:   6     0.180873296133E+02    0.38425E-04   -0.18558E-04 20928   0.690E-02    0.154E-02
DAV:   7     0.180873308785E+02    0.12652E-05   -0.28555E-05 22528   0.302E-02    0.112E-02
DAV:   8     0.180873320642E+02    0.11857E-05   -0.66602E-06 21568   0.155E-02    0.464E-03
DAV:   9     0.180873321270E+02    0.62795E-07   -0.25606E-06 15552   0.883E-03
  17 F= 0.18087332E+02 E0= 0.18083575E+02  d E =0.112722E-01
       N       E                     dE             d eps       ncg     rms          rms(c)
DAV:   1     0.386996157480E+03    0.36891E+03   -0.66661E-01 25728   0.630E+00    0.135E-01
DAV:   2     0.386993256809E+03   -0.29007E-02   -0.27457E-02 27648   0.639E-01    0.299E-01
DAV:   3     0.386994475945E+03    0.12191E-02   -0.57490E-03 42048   0.345E-01    0.610E-02
DAV:   4     0.386994525026E+03    0.49081E-04   -0.16298E-04 31936   0.455E-02    0.230E-02
DAV:   5     0.386994535730E+03    0.10704E-04   -0.20386E-05 38272   0.146E-02    0.509E-03
DAV:   6     0.386994537226E+03    0.14962E-05   -0.30210E-06 37504   0.615E-03    0.183E-03
DAV:   7     0.386994537553E+03    0.32664E-06   -0.40617E-07 30656   0.218E-03
  18 F= 0.38699454E+03 E0= 0.38699078E+03  d E =0.112757E-01
       N       E                     dE             d eps       ncg     rms          rms(c)
DAV:   1     0.386993525198E+03   -0.10120E-02   -0.73003E-02 25664   0.450E-01    0.184E-01
DAV:   2     0.386989670352E+03   -0.38548E-02   -0.29480E-02 40960   0.857E-01    0.574E-01
DAV:   3     0.386994501475E+03    0.48311E-02   -0.18403E-02 36800   0.532E-01    0.483E-02
DAV:   4     0.386994540266E+03    0.38791E-04   -0.25857E-04 32640   0.420E-02    0.161E-02
DAV:   5     0.386994538040E+03   -0.22256E-05   -0.16435E-05 37952   0.156E-02    0.643E-03
DAV:   6     0.386994537822E+03   -0.21761E-06   -0.17148E-06 36032   0.522E-03
  19 F= 0.38699454E+03 E0= 0.38699078E+03  d E =0.112757E-01
       N       E                     dE             d eps       ncg     rms          rms(c)
DAV:   1     0.386994228051E+03   -0.30999E-03   -0.46491E-02 15360   0.364E-01    0.116E-01
DAV:   2     0.386992179137E+03   -0.20489E-02   -0.16379E-02 23680   0.314E-01    0.384E-01
DAV:   3     0.386994586647E+03    0.24075E-02   -0.10297E-02 20288   0.191E-01    0.376E-02
DAV:   4     0.386994680997E+03    0.94349E-04   -0.15180E-04 21248   0.332E-02    0.121E-02
DAV:   5     0.386994711198E+03    0.30201E-04   -0.26752E-05 22336   0.188E-02    0.479E-03
DAV:   6     0.386994723745E+03    0.12547E-04   -0.12281E-05 22592   0.134E-02    0.166E-03
DAV:   7     0.386994727379E+03    0.36344E-05   -0.46923E-06 22208   0.867E-03    0.840E-04
DAV:   8     0.386994728204E+03    0.82493E-06   -0.10758E-06 14720   0.413E-03
  20 F= 0.38699473E+03 E0= 0.38699097E+03  d E =0.112739E-01
       N       E                     dE             d eps       ncg     rms          rms(c)
DAV:   1     0.386993659558E+03   -0.10678E-02   -0.97596E-02 15488   0.513E-01    0.218E-01
DAV:   2     0.386985060261E+03   -0.85993E-02   -0.64830E-02 22976   0.541E-01    0.767E-01
DAV:   3     0.386994660350E+03    0.96001E-02   -0.39827E-02 20672   0.358E-01    0.594E-02
DAV:   4     0.386994729536E+03    0.69185E-04   -0.36624E-04 20672   0.416E-02    0.189E-02
DAV:   5     0.386994728969E+03   -0.56652E-06   -0.18354E-05 21824   0.172E-02    0.933E-03
DAV:   6     0.386994728698E+03   -0.27085E-06   -0.20188E-06 21888   0.436E-03
  21 F= 0.38699473E+03 E0= 0.38699097E+03  d E =0.112741E-01
       N       E                     dE             d eps       ncg     rms          rms(c)
DAV:   1     0.386993509296E+03   -0.12197E-02   -0.24874E-02 25600   0.264E-01    0.522E-02
DAV:   2     0.386993591922E+03    0.82626E-04   -0.28260E-04 37888   0.422E-02    0.323E-02
DAV:   3     0.386993712431E+03    0.12051E-03   -0.17128E-04 35328   0.491E-02    0.262E-02
DAV:   4     0.386993732685E+03    0.20253E-04   -0.47336E-05 38656   0.372E-02    0.348E-03
DAV:   5     0.386993753613E+03    0.20929E-04   -0.12875E-05 35456   0.103E-02    0.210E-03
DAV:   6     0.386993770260E+03    0.16647E-04   -0.14495E-05 37376   0.960E-03    0.910E-04
DAV:   7     0.386993777980E+03    0.77200E-05   -0.83920E-06 29824   0.718E-03    0.522E-04
DAV:   8     0.386993780999E+03    0.30196E-05   -0.45159E-06 29184   0.522E-03    0.298E-04
DAV:   9     0.386993781819E+03    0.81994E-06   -0.18602E-06 26304   0.378E-03
  22 F= 0.38699378E+03 E0= 0.38699002E+03  d E =0.112725E-01
       N       E                     dE             d eps       ncg     rms          rms(c)
DAV:   1     0.386993753807E+03   -0.27192E-04   -0.33288E-03 25600   0.976E-02    0.478E-02
DAV:   2     0.386993773695E+03    0.19888E-04   -0.15248E-05 25600   0.122E-02    0.291E-02
DAV:   3     0.386993773606E+03   -0.88781E-07   -0.45554E-05 38336   0.364E-02    0.237E-02
DAV:   4     0.386993781735E+03    0.81288E-05   -0.33579E-05 34176   0.321E-02    0.317E-03
DAV:   5     0.386993781885E+03    0.15043E-06   -0.39116E-07 28480   0.284E-03
  23 F= 0.38699378E+03 E0= 0.38699002E+03  d E =0.112725E-01
       N       E                     dE             d eps       ncg     rms          rms(c)
DAV:   1     0.386993745076E+03   -0.36659E-04   -0.19180E-03 15360   0.771E-02    0.339E-02
DAV:   2     0.386993754149E+03    0.90736E-05   -0.75372E-06 15360   0.703E-03    0.207E-02
DAV:   3     0.386993757832E+03    0.36831E-05   -0.11502E-05 23040   0.131E-02    0.838E-03
DAV:   4     0.386993758960E+03    0.11271E-05   -0.58343E-06 16064   0.848E-03    0.170E-03
DAV:   5     0.386993759040E+03    0.80447E-07   -0.18597E-07 16128   0.150E-03
  24 F= 0.38699376E+03 E0= 0.38699000E+03  d E =0.112726E-01
       N       E                     dE             d eps       ncg     rms          rms(c)
DAV:   1     0.386993730087E+03   -0.28872E-04   -0.36454E-03 15360   0.107E-01    0.493E-02
DAV:   2     0.386993750796E+03    0.20709E-04   -0.14082E-05 15552   0.886E-03    0.299E-02
DAV:   3     0.386993758864E+03    0.80682E-05   -0.12788E-05 23040   0.849E-03    0.403E-03
DAV:   4     0.386993758226E+03   -0.63780E-06   -0.70151E-06 19648   0.104E-02
  25 F= 0.38699376E+03 E0= 0.38699000E+03  d E =0.112726E-01
