<?xml version="1.0" encoding="ISO-8859-1"?>
<modeling>
 <generator>
  <i name="program" type="string">vasp </i>
  <i name="version" type="string">6.5.0  </i>
  <i name="subversion" type="string">16Dec24 (build Apr 17 2025 17:55:45) complex                          parallel </i>
  <i name="platform" type="string">LinuxIFC </i>
  <i name="date" type="string">2025 06 04 </i>
  <i name="time" type="string">16:48:19 </i>
 </generator>
 <incar>
  <i type="int" name="ISTART">     0</i>
  <i type="string" name="PREC">N</i>
  <i type="string" name="ALGO">N</i>
  <i type="int" name="ICHARG">     2</i>
  <i type="int" name="NELM">   500</i>
  <i type="int" name="IBRION">     6</i>
  <i type="int" name="NFREE">     2</i>
  <i name="EDIFF">      0.00000100</i>
  <i name="EDIFFG">     -0.00100000</i>
  <i type="int" name="NSW">     1</i>
  <i type="int" name="ISIF">     3</i>
  <i name="SYMPREC">      0.00000100</i>
  <i name="ENCUT">    500.00000000</i>
  <i name="POTIM">      0.01500000</i>
  <v name="VCA">      1.00000000      0.99000000      0.01000000</v>
  <i type="logical" name="LREAL"> F  </i>
  <i type="int" name="ISMEAR">     1</i>
  <i name="SIGMA">      0.20000000</i>
 </incar>
 <primitive_cell>
  <structure name="primitive_cell" >
   <crystal>
    <varray name="basis" >
     <v>       2.82534089       0.00000000       0.00000000 </v>
     <v>       0.00000000       2.82534089       0.00000000 </v>
     <v>       0.00000000       0.00000000       4.06231459 </v>
    </varray>
    <i name="volume">     32.42763392 </i>
    <varray name="rec_basis" >
     <v>       0.35393959       0.00000000       0.00000000 </v>
     <v>       0.00000000       0.35393959       0.00000000 </v>
     <v>       0.00000000       0.00000000       0.24616508 </v>
    </varray>
   </crystal>
   <varray name="positions" >
    <v>       0.00000000       0.00000000       0.00000000 </v>
    <v>       0.50000000       0.50000000       0.50000000 </v>
    <v>       0.50000000       0.50000000       0.50000000 </v>
   </varray>
  </structure>
  <varray name="primitive_index" >
   <v type="int" >        1 </v>
   <v type="int" >        9 </v>
   <v type="int" >       17 </v>
  </varray>
 </primitive_cell>
 <kpoints>
  <generation param="Gamma">
   <v type="int" name="divisions">       9        9        6 </v>
   <v name="usershift">      0.00000000       0.00000000       0.00000000 </v>
   <v name="genvec1">      0.11111111       0.00000000       0.00000000 </v>
   <v name="genvec2">      0.00000000       0.11111111       0.00000000 </v>
   <v name="genvec3">      0.00000000       0.00000000       0.16666667 </v>
   <v name="shift">      0.00000000       0.00000000       0.00000000 </v>
  </generation>
  <varray name="kpointlist" >
   <v>       0.00000000       0.00000000       0.00000000 </v>
   <v>       0.11111111       0.00000000       0.00000000 </v>
   <v>       0.22222222       0.00000000       0.00000000 </v>
   <v>       0.33333333       0.00000000       0.00000000 </v>
   <v>       0.44444444       0.00000000       0.00000000 </v>
   <v>       0.11111111       0.11111111       0.00000000 </v>
   <v>       0.22222222       0.11111111       0.00000000 </v>
   <v>       0.33333333       0.11111111       0.00000000 </v>
   <v>       0.44444444       0.11111111       0.00000000 </v>
   <v>       0.22222222       0.22222222       0.00000000 </v>
   <v>       0.33333333       0.22222222       0.00000000 </v>
   <v>       0.44444444       0.22222222       0.00000000 </v>
   <v>       0.33333333       0.33333333       0.00000000 </v>
   <v>       0.44444444       0.33333333       0.00000000 </v>
   <v>       0.44444444       0.44444444       0.00000000 </v>
   <v>       0.00000000       0.00000000       0.16666667 </v>
   <v>       0.11111111       0.00000000       0.16666667 </v>
   <v>       0.22222222       0.00000000       0.16666667 </v>
   <v>       0.33333333       0.00000000       0.16666667 </v>
   <v>       0.44444444       0.00000000       0.16666667 </v>
   <v>       0.11111111       0.11111111       0.16666667 </v>
   <v>       0.22222222       0.11111111       0.16666667 </v>
   <v>       0.33333333       0.11111111       0.16666667 </v>
   <v>       0.44444444       0.11111111       0.16666667 </v>
   <v>       0.22222222       0.22222222       0.16666667 </v>
   <v>       0.33333333       0.22222222       0.16666667 </v>
   <v>       0.44444444       0.22222222       0.16666667 </v>
   <v>       0.33333333       0.33333333       0.16666667 </v>
   <v>       0.44444444       0.33333333       0.16666667 </v>
   <v>       0.44444444       0.44444444       0.16666667 </v>
   <v>       0.00000000       0.00000000       0.33333333 </v>
   <v>       0.11111111       0.00000000       0.33333333 </v>
   <v>       0.22222222       0.00000000       0.33333333 </v>
   <v>       0.33333333       0.00000000       0.33333333 </v>
   <v>       0.44444444       0.00000000       0.33333333 </v>
   <v>       0.11111111       0.11111111       0.33333333 </v>
   <v>       0.22222222       0.11111111       0.33333333 </v>
   <v>       0.33333333       0.11111111       0.33333333 </v>
   <v>       0.44444444       0.11111111       0.33333333 </v>
   <v>       0.22222222       0.22222222       0.33333333 </v>
   <v>       0.33333333       0.22222222       0.33333333 </v>
   <v>       0.44444444       0.22222222       0.33333333 </v>
   <v>       0.33333333       0.33333333       0.33333333 </v>
   <v>       0.44444444       0.33333333       0.33333333 </v>
   <v>       0.44444444       0.44444444       0.33333333 </v>
   <v>       0.00000000       0.00000000       0.50000000 </v>
   <v>       0.11111111       0.00000000       0.50000000 </v>
   <v>       0.22222222       0.00000000       0.50000000 </v>
   <v>       0.33333333       0.00000000       0.50000000 </v>
   <v>       0.44444444       0.00000000       0.50000000 </v>
   <v>       0.11111111       0.11111111       0.50000000 </v>
   <v>       0.22222222       0.11111111       0.50000000 </v>
   <v>       0.33333333       0.11111111       0.50000000 </v>
   <v>       0.44444444       0.11111111       0.50000000 </v>
   <v>       0.22222222       0.22222222       0.50000000 </v>
   <v>       0.33333333       0.22222222       0.50000000 </v>
   <v>       0.44444444       0.22222222       0.50000000 </v>
   <v>       0.33333333       0.33333333       0.50000000 </v>
   <v>       0.44444444       0.33333333       0.50000000 </v>
   <v>       0.44444444       0.44444444       0.50000000 </v>
  </varray>
  <varray name="weights" >
   <v>       0.00205761 </v>
   <v>       0.00823045 </v>
   <v>       0.00823045 </v>
   <v>       0.00823045 </v>
   <v>       0.00823045 </v>
   <v>       0.00823045 </v>
   <v>       0.01646091 </v>
   <v>       0.01646091 </v>
   <v>       0.01646091 </v>
   <v>       0.00823045 </v>
   <v>       0.01646091 </v>
   <v>       0.01646091 </v>
   <v>       0.00823045 </v>
   <v>       0.01646091 </v>
   <v>       0.00823045 </v>
   <v>       0.00411523 </v>
   <v>       0.01646091 </v>
   <v>       0.01646091 </v>
   <v>       0.01646091 </v>
   <v>       0.01646091 </v>
   <v>       0.01646091 </v>
   <v>       0.03292181 </v>
   <v>       0.03292181 </v>
   <v>       0.03292181 </v>
   <v>       0.01646091 </v>
   <v>       0.03292181 </v>
   <v>       0.03292181 </v>
   <v>       0.01646091 </v>
   <v>       0.03292181 </v>
   <v>       0.01646091 </v>
   <v>       0.00411523 </v>
   <v>       0.01646091 </v>
   <v>       0.01646091 </v>
   <v>       0.01646091 </v>
   <v>       0.01646091 </v>
   <v>       0.01646091 </v>
   <v>       0.03292181 </v>
   <v>       0.03292181 </v>
   <v>       0.03292181 </v>
   <v>       0.01646091 </v>
   <v>       0.03292181 </v>
   <v>       0.03292181 </v>
   <v>       0.01646091 </v>
   <v>       0.03292181 </v>
   <v>       0.01646091 </v>
   <v>       0.00205761 </v>
   <v>       0.00823045 </v>
   <v>       0.00823045 </v>
   <v>       0.00823045 </v>
   <v>       0.00823045 </v>
   <v>       0.00823045 </v>
   <v>       0.01646091 </v>
   <v>       0.01646091 </v>
   <v>       0.01646091 </v>
   <v>       0.00823045 </v>
   <v>       0.01646091 </v>
   <v>       0.01646091 </v>
   <v>       0.00823045 </v>
   <v>       0.01646091 </v>
   <v>       0.00823045 </v>
  </varray>
 </kpoints>
 <parameters>
  <separator name="general" >
   <i type="string" name="SYSTEM">unknown system</i>
   <i type="logical" name="LCOMPAT"> F  </i>
  </separator>
  <separator name="electronic" >
   <i type="string" name="PREC">n</i>
   <i name="ENMAX">    500.00000000</i>
   <i name="ENAUG">    490.69000000</i>
   <i name="EDIFF">      0.00000100</i>
   <i type="int" name="IALGO">    38</i>
   <i type="int" name="IWAVPR">    11</i>
   <i type="int" name="NBANDS">   128</i>
   <i type="int" name="NBANDSLOW">    -1</i>
   <i type="int" name="NBANDSHIGH">    -1</i>
   <i name="NELECT">    120.80000000</i>
   <i type="int" name="TURBO">     0</i>
   <i type="int" name="IRESTART">     0</i>
   <i type="int" name="NREBOOT">     0</i>
   <i type="int" name="NMIN">     0</i>
   <i name="EREF">      0.00000000</i>
   <separator name="electronic smearing" >
    <i type="int" name="ISMEAR">     1</i>
    <i name="SIGMA">      0.20000000</i>
    <i name="KSPACING">      0.50000000</i>
    <i type="logical" name="KGAMMA"> T  </i>
    <i type="logical" name="KBLOWUP"> T  </i>
   </separator>
   <separator name="electronic projectors" >
    <i type="logical" name="LREAL"> F  </i>
    <v name="ROPT">      0.00000000      0.00000000      0.00000000</v>
    <i type="int" name="LMAXPAW">  -100</i>
    <i type="int" name="LMAXMIX">     2</i>
    <i type="logical" name="NLSPLINE"> F  </i>
   </separator>
   <separator name="electronic startup" >
    <i type="int" name="ISTART">     0</i>
    <i type="int" name="ICHARG">     2</i>
    <i type="int" name="INIWAV">     1</i>
   </separator>
   <separator name="electronic spin" >
    <i type="int" name="ISPIN">     1</i>
    <i type="logical" name="LNONCOLLINEAR"> F  </i>
    <v name="MAGMOM">      1.00000000      1.00000000      1.00000000      1.00000000      1.00000000      1.00000000      1.00000000      1.00000000      1.00000000      1.00000000      1.00000000      1.00000000      1.00000000      1.00000000      1.00000000      1.00000000      1.00000000      1.00000000      1.00000000      1.00000000
      1.00000000      1.00000000      1.00000000      1.00000000</v>
    <i name="NUPDOWN">     -1.00000000</i>
    <i type="logical" name="LSORBIT"> F  </i>
    <v name="SAXIS">      0.00000000      0.00000000      1.00000000</v>
    <i type="logical" name="LSPIRAL"> F  </i>
    <v name="QSPIRAL">      0.00000000      0.00000000      0.00000000</v>
    <i type="logical" name="LZEROZ"> F  </i>
   </separator>
   <separator name="electronic exchange-correlation" >
    <i type="logical" name="LASPH"> F  </i>
   </separator>
   <separator name="electronic convergence" >
    <i type="int" name="NELM">   500</i>
    <i type="int" name="NELMDL">    -5</i>
    <i type="int" name="NELMIN">     2</i>
    <i name="ENINI">    500.00000000</i>
    <separator name="electronic convergence detail" >
     <i type="logical" name="LDIAG"> T  </i>
     <i type="logical" name="LSUBROT"> F  </i>
     <i name="WEIMIN">      0.00100000</i>
     <i name="EBREAK">      0.00000000</i>
     <i name="DEPER">      0.30000000</i>
     <i type="int" name="NRMM">     4</i>
     <i name="TIME">      0.40000000</i>
    </separator>
   </separator>
   <separator name="electronic mixer" >
    <i name="AMIX">      0.40000000</i>
    <i name="BMIX">      1.00000000</i>
    <i name="AMIN">      0.10000000</i>
    <i name="AMIX_MAG">      1.60000000</i>
    <i name="BMIX_MAG">      1.00000000</i>
    <separator name="electronic mixer details" >
     <i type="int" name="IMIX">     4</i>
     <i type="logical" name="MIXFIRST"> F  </i>
     <i type="int" name="MAXMIX">   -45</i>
     <i name="WC">    100.00000000</i>
     <i type="int" name="INIMIX">     1</i>
     <i type="int" name="MIXPRE">     1</i>
     <i type="int" name="MREMOVE">     5</i>
    </separator>
   </separator>
   <separator name="electronic dipolcorrection" >
    <i type="logical" name="LDIPOL"> F  </i>
    <i type="logical" name="LMONO"> F  </i>
    <i type="int" name="IDIPOL">     0</i>
    <i name="EPSILON">      1.00000000</i>
    <v name="DIPOL">   -100.00000000   -100.00000000   -100.00000000</v>
    <i name="EFIELD">      0.00000000</i>
    <i type="logical" name="LVACPOTAV"> F  </i>
   </separator>
  </separator>
  <separator name="grids" >
   <i type="int" name="NGX">    32</i>
   <i type="int" name="NGY">    32</i>
   <i type="int" name="NGZ">    48</i>
   <i type="int" name="NGXF">    64</i>
   <i type="int" name="NGYF">    64</i>
   <i type="int" name="NGZF">    96</i>
   <i type="logical" name="ADDGRID"> F  </i>
  </separator>
  <separator name="ionic" >
   <i type="int" name="NSW">   325</i>
   <i type="int" name="IBRION">     6</i>
   <i type="int" name="MDALGO">     0</i>
   <i type="int" name="ISIF">     3</i>
   <i name="PSTRESS">      0.00000000</i>
   <i name="EDIFFG">     -0.00100000</i>
   <i type="int" name="NFREE">     2</i>
   <i name="POTIM">      0.01500000</i>
   <i name="SMASS">     -3.00000000</i>
   <i name="SCALEE">      1.00000000</i>
  </separator>
  <separator name="ionic md" >
   <i name="TEBEG">      0.00010000</i>
   <i name="TEEND">      0.00010000</i>
   <i type="int" name="NBLOCK">     1</i>
   <i type="int" name="KBLOCK">   325</i>
   <i type="int" name="NPACO">   256</i>
   <i name="APACO">     10.00000000</i>
  </separator>
  <separator name="symmetry" >
   <i type="int" name="ISYM">     2</i>
   <i name="SYMPREC">      0.00000100</i>
  </separator>
  <separator name="dos" >
   <i type="int" name="LORBIT">     0</i>
   <v name="RWIGS">     -1.00000000     -1.00000000     -1.00000000</v>
   <i type="int" name="NEDOS">   301</i>
   <i name="EMIN">     10.00000000</i>
   <i name="EMAX">    -10.00000000</i>
   <i name="EFERMI">      0.00000000</i>
  </separator>
  <separator name="writing" >
   <i type="int" name="NWRITE">     2</i>
   <i type="logical" name="LWAVE"> T  </i>
   <i type="logical" name="LDOWNSAMPLE"> F  </i>
   <i type="logical" name="LCHARG"> T  </i>
   <i type="logical" name="LPARD"> F  </i>
   <i type="logical" name="LVTOT"> F  </i>
   <i type="logical" name="LVHAR"> F  </i>
   <i type="logical" name="LELF"> F  </i>
   <i type="logical" name="LOPTICS"> F  </i>
   <v name="STM">      0.00000000      0.00000000      0.00000000      0.00000000      0.00000000      0.00000000      0.00000000</v>
  </separator>
  <separator name="performance" >
   <i type="int" name="NPAR">    64</i>
   <i type="int" name="NSIM">     4</i>
   <i type="int" name="NBLK">    -1</i>
   <i type="logical" name="LPLANE"> T  </i>
   <i type="logical" name="LSCALAPACK"> T  </i>
   <i type="logical" name="LSCAAWARE"> T  </i>
   <i type="logical" name="LSCALU"> F  </i>
   <i type="logical" name="LASYNC"> F  </i>
   <i type="logical" name="LORBITALREAL"> F  </i>
  </separator>
  <separator name="miscellaneous" >
   <i type="int" name="IDIOT">     3</i>
   <i type="int" name="PHON_NSTRUCT">    -1</i>
   <i type="logical" name="LMUSIC"> F  </i>
   <v name="POMASS">     47.88000000     26.98100000     69.72300000</v>
   <v name="DARWINR">      0.00000000      0.00000000      0.00000000</v>
   <v name="DARWINV">      1.00000000      1.00000000      1.00000000</v>
   <i type="logical" name="LCORR"> T  </i>
  </separator>
  <i type="logical" name="GGA_COMPAT"> T  </i>
  <i type="logical" name="LBERRY"> F  </i>
  <i type="int" name="ICORELEVEL">     0</i>
  <i type="logical" name="LDAU"> F  </i>
  <i type="int" name="I_CONSTRAINED_M">     0</i>
  <separator name="electronic exchange-correlation" >
   <i type="string" name="GGA    ">PE</i>
   <i type="string" name="XC_C">1</i>
   <i type="int" name="VOSKOWN">     0</i>
   <i type="logical" name="LHFCALC"> F  </i>
   <i type="string" name="PRECFOCK"></i>
   <i type="logical" name="LSYMGRAD"> F  </i>
   <i type="logical" name="LHFONE"> F  </i>
   <i type="logical" name="LRHFCALC"> F  </i>
   <i type="logical" name="LTHOMAS"> F  </i>
   <i type="logical" name="LMODELHF"> F  </i>
   <i type="logical" name="LFOCKACE"> F  </i>
   <i name="ENCUT4O">     -1.00000000</i>
   <i type="int" name="EXXOEP">     0</i>
   <i type="int" name="FOURORBIT">     0</i>
   <i name="AEXX">      0.00000000</i>
   <i name="HFALPHA">      0.00000000</i>
   <i name="MCALPHA">      0.00000000</i>
   <i name="ALDAX">      1.00000000</i>
   <i name="AGGAX">      1.00000000</i>
   <i name="AMGGAX">      1.00000000</i>
   <i name="ALDAC">      1.00000000</i>
   <i name="AGGAC">      1.00000000</i>
   <i name="AMGGAC">      1.00000000</i>
   <i type="int" name="NKREDX">     1</i>
   <i type="int" name="NKREDY">     1</i>
   <i type="int" name="NKREDZ">     1</i>
   <i type="logical" name="SHIFTRED"> F  </i>
   <i type="logical" name="ODDONLY"> F  </i>
   <i type="logical" name="EVENONLY"> F  </i>
   <i type="int" name="LMAXFOCK">     0</i>
   <i type="int" name="NMAXFOCKAE">     0</i>
   <i type="logical" name="LFOCKAEDFT"> F  </i>
   <i name="HFSCREEN">      0.00000000</i>
   <i name="HFSCREENC">      0.00000000</i>
   <i type="int" name="NBANDSGWLOW">     0</i>
  </separator>
  <separator name="vdW DFT" >
   <i type="logical" name="LUSE_VDW"> F  </i>
   <i type="int" name="IVDW_NL">    -1</i>
   <i type="logical" name="LSPIN_VDW"> F  </i>
   <i name="ZAB_VDW">     -0.84910000</i>
   <i name="GAMMA_VDW">      1.39626340</i>
   <i name="ALPHA_VDW">      0.00000000</i>
   <i name="PARAM1">      0.12340000</i>
   <i name="PARAM2">      1.00000000</i>
   <i name="BPARAM">      6.30000000</i>
   <i name="CPARAM">      0.00930000</i>
  </separator>
  <separator name="model GW" >
   <i type="int" name="MODEL_GW">     0</i>
   <i name="MODEL_EPS0">      6.48552678</i>
   <i name="MODEL_ALPHA">      1.00000000</i>
  </separator>
  <separator name="linear response parameters" >
   <i type="logical" name="LEPSILON"> F  </i>
   <i type="logical" name="LRPA"> F  </i>
   <i type="logical" name="LNABLA"> F  </i>
   <i type="logical" name="LVEL"> F  </i>
   <i name="CSHIFT">      0.10000000</i>
   <i name="OMEGAMAX">     -1.00000000</i>
   <i name="DEG_THRESHOLD">      0.00200000</i>
   <i name="RTIME">     -0.10000000</i>
   <i name="WPLASMAI">      0.00000000</i>
   <v name="DFIELD">      0.00000000      0.00000000      0.00000000</v>
   <v name="WPLASMA">      0.00000000      0.00000000      0.00000000      0.00000000      0.00000000      0.00000000      0.00000000      0.00000000      0.00000000</v>
  </separator>
  <separator name="orbital magnetization" >
   <i type="logical" name="NUCIND"> F  </i>
   <v name="MAGPOS">      0.00000000      0.00000000      0.00000000</v>
   <i type="logical" name="LNICSALL"> T  </i>
   <i type="logical" name="ORBITALMAG"> F  </i>
   <i type="logical" name="LMAGBLOCH"> F  </i>
   <i type="logical" name="LCHIMAG"> F  </i>
   <i type="logical" name="LGAUGE"> T  </i>
   <i type="int" name="MAGATOM">     0</i>
   <v name="MAGDIPOL">      0.00000000      0.00000000      0.00000000</v>
   <v name="AVECCONST">      0.00000000      0.00000000      0.00000000</v>
  </separator>
  <separator name="response functions" >
   <i type="logical" name="LALL_IN_ONE"> F  </i>
   <i type="int" name="IALL_IN_ONE">    -1</i>
   <i type="int" name="NBANDS_WAVE">    -1</i>
   <i type="logical" name="LFINITE_TEMPERATURE"> F  </i>
   <i type="logical" name="LADDER"> F  </i>
   <i type="logical" name="LRPAFORCE"> F  </i>
   <i type="logical" name="LFXC"> F  </i>
   <i type="logical" name="LHARTREE"> T  </i>
   <i type="int" name="IBSE">     2</i>
   <v type="int" name="KPOINT">    -1     0     0     0</v>
   <i type="logical" name="LTCTC"> F  </i>
   <i type="logical" name="LTCTE"> F  </i>
   <i type="logical" name="LTETE"> F  </i>
   <i type="logical" name="LTRIPLET"> F  </i>
   <i type="logical" name="LFXCEPS"> F  </i>
   <i type="logical" name="LFXHEG"> F  </i>
   <i type="int" name="NATURALO">     2</i>
   <i type="logical" name="LHOLEGF"> F  </i>
   <i type="logical" name="L2ORDER"> F  </i>
   <i type="logical" name="LDMP1"> F  </i>
   <i type="logical" name="LMP2LT"> F  </i>
   <i type="logical" name="LSMP2LT"> F  </i>
   <i type="logical" name="LGWLF"> F  </i>
   <i name="ENCUTGW">     -1.60000002</i>
   <i name="ENCUTGWSOFT">     -1.60000002</i>
   <i name="ENCUTLF">     -1.00000000</i>
   <i type="logical" name="ESF_SPLINES"> F  </i>
   <i name="ESF_CONV">      0.01000000</i>
   <i type="int" name="ESF_NINTER">    15</i>
   <i type="int" name="LMAXMP2">    -1</i>
   <i name="SCISSOR">      0.00000000</i>
   <i type="int" name="NOMEGA">     0</i>
   <i type="int" name="NOMEGAR">     0</i>
   <i type="int" name="NBANDSGW">    -1</i>
   <i type="int" name="NBANDSO">    -1</i>
   <i type="int" name="NBANDSV">    -1</i>
   <i type="int" name="NELMGW">     1</i>
   <i type="int" name="NELMHF">     1</i>
   <i type="int" name="DIM">     3</i>
   <i type="int" name="IESPILON">     4</i>
   <i type="int" name="ANTIRES">     0</i>
   <i name="OMEGAMAX">    -30.00000000</i>
   <i name="OMEGAMIN">    -30.00000000</i>
   <i name="OMEGATL">   -200.00000000</i>
   <i type="int" name="OMEGAGRID">     0</i>
   <i name="CSHIFT">     -0.10000000</i>
   <i type="logical" name="LSELFENERGY"> F  </i>
   <i type="logical" name="LSPECTRAL"> F  </i>
   <i type="logical" name="LSPECTRALGW"> F  </i>
   <i type="logical" name="LSINGLES"> F  </i>
   <i type="logical" name="LFERMIGW"> F  </i>
   <i type="logical" name="ODDONLYGW"> F  </i>
   <i type="logical" name="EVENONLYGW"> F  </i>
   <i type="int" name="NKREDLFX">     1</i>
   <i type="int" name="NKREDLFY">     1</i>
   <i type="int" name="NKREDLFZ">     1</i>
   <i type="int" name="MAXMEM">  2800</i>
   <i type="int" name="TELESCOPE">     0</i>
   <i type="int" name="NTAUPAR">    -1</i>
   <i type="int" name="NOMEGAPAR">    -1</i>
   <i name="DAMP_NEWTON">      0.80000001</i>
   <i name="LAMBDA">      1.00000000</i>
  </separator>
  <separator name="External order field" >
   <i name="OFIELD_KAPPA">      0.00000000</i>
   <v name="OFIELD_K">      0.00000000      0.00000000      0.00000000</v>
   <i name="OFIELD_Q6_NEAR">      0.00000000</i>
   <i name="OFIELD_Q6_FAR">      0.00000000</i>
   <i name="OFIELD_A">      0.00000000</i>
  </separator>
  <separator name="optional k-points parameters" >
   <i type="int" name="KPOINTS_OPT_MODE">     1</i>
   <i type="logical" name="LKPOINTS_OPT"> F  </i>
  </separator>
 </parameters>
 <atominfo>
  <atoms>      24 </atoms>
  <types>       3 </types>
  <array name="atoms" >
   <dimension dim="1">ion</dimension>
   <field type="string">element</field>
   <field type="int">atomtype</field>
   <set>
    <rc><c>Ti</c><c>   1</c></rc>
    <rc><c>Ti</c><c>   1</c></rc>
    <rc><c>Ti</c><c>   1</c></rc>
    <rc><c>Ti</c><c>   1</c></rc>
    <rc><c>Ti</c><c>   1</c></rc>
    <rc><c>Ti</c><c>   1</c></rc>
    <rc><c>Ti</c><c>   1</c></rc>
    <rc><c>Ti</c><c>   1</c></rc>
    <rc><c>Al</c><c>   2</c></rc>
    <rc><c>Al</c><c>   2</c></rc>
    <rc><c>Al</c><c>   2</c></rc>
    <rc><c>Al</c><c>   2</c></rc>
    <rc><c>Al</c><c>   2</c></rc>
    <rc><c>Al</c><c>   2</c></rc>
    <rc><c>Al</c><c>   2</c></rc>
    <rc><c>Al</c><c>   2</c></rc>
    <rc><c>Ga</c><c>   3</c></rc>
    <rc><c>Ga</c><c>   3</c></rc>
    <rc><c>Ga</c><c>   3</c></rc>
    <rc><c>Ga</c><c>   3</c></rc>
    <rc><c>Ga</c><c>   3</c></rc>
    <rc><c>Ga</c><c>   3</c></rc>
    <rc><c>Ga</c><c>   3</c></rc>
    <rc><c>Ga</c><c>   3</c></rc>
   </set>
  </array>
  <array name="atomtypes" >
   <dimension dim="1">type</dimension>
   <field type="int">atomspertype</field>
   <field type="string">element</field>
   <field>mass</field>
   <field>valence</field>
   <field type="string">pseudopotential</field>
   <set>
    <rc><c>   8</c><c>Ti</c><c>     47.88000000</c><c>     12.00000000</c><c>  PAW_PBE Ti_sv 26Sep2005               </c></rc>
    <rc><c>   8</c><c>Al</c><c>     26.98100000</c><c>      3.00000000</c><c>  PAW_PBE Al 04Jan2001                  </c></rc>
    <rc><c>   8</c><c>Ga</c><c>     69.72300000</c><c>     13.00000000</c><c>  PAW_PBE Ga_d 06Jul2010                </c></rc>
   </set>
  </array>
 </atominfo>
 <structure name="initialpos" >
  <crystal>
   <varray name="basis" >
    <v>       5.65068177       0.00000000       0.00000000 </v>
    <v>       0.00000000       5.65068177       0.00000000 </v>
    <v>       0.00000000       0.00000000       8.12462919 </v>
   </varray>
   <i name="volume">    259.42107139 </i>
   <varray name="rec_basis" >
    <v>       0.17696980       0.00000000       0.00000000 </v>
    <v>       0.00000000       0.17696980       0.00000000 </v>
    <v>       0.00000000       0.00000000       0.12308254 </v>
   </varray>
  </crystal>
  <varray name="positions" >
   <v>       0.00000000       0.00000000       0.00000000 </v>
   <v>       0.00000000       0.00000000       0.50000000 </v>
   <v>       0.00000000       0.50000000       0.00000000 </v>
   <v>       0.00000000       0.50000000       0.50000000 </v>
   <v>       0.50000000       0.00000000       0.00000000 </v>
   <v>       0.50000000       0.00000000       0.50000000 </v>
   <v>       0.50000000       0.50000000       0.00000000 </v>
   <v>       0.50000000       0.50000000       0.50000000 </v>
   <v>       0.25000000       0.25000000       0.25000000 </v>
   <v>       0.25000000       0.25000000       0.75000000 </v>
   <v>       0.25000000       0.75000000       0.25000000 </v>
   <v>       0.25000000       0.75000000       0.75000000 </v>
   <v>       0.75000000       0.25000000       0.25000000 </v>
   <v>       0.75000000       0.25000000       0.75000000 </v>
   <v>       0.75000000       0.75000000       0.25000000 </v>
   <v>       0.75000000       0.75000000       0.75000000 </v>
   <v>       0.25000000       0.25000000       0.25000000 </v>
   <v>       0.25000000       0.25000000       0.75000000 </v>
   <v>       0.25000000       0.75000000       0.25000000 </v>
   <v>       0.25000000       0.75000000       0.75000000 </v>
   <v>       0.75000000       0.25000000       0.25000000 </v>
   <v>       0.75000000       0.25000000       0.75000000 </v>
   <v>       0.75000000       0.75000000       0.25000000 </v>
   <v>       0.75000000       0.75000000       0.75000000 </v>
  </varray>
 </structure>
 <calculation>
  <scstep>
   <time name="dav">    7.72    7.73</time>
   <time name="total">    7.74    7.74</time>
   <energy>
    <i name="alphaZ">    308.37794552 </i>
    <i name="ewald">  -8773.41164677 </i>
    <i name="hartreedc">  -4120.81336838 </i>
    <i name="XCdc">    289.35938544 </i>
    <i name="pawpsdc">  10769.07922837 </i>
    <i name="pawaedc"> -10386.00443512 </i>
    <i name="eentropy">     -0.00299136 </i>
    <i name="bandstr">   -414.97240479 </i>
    <i name="atom">  13300.60698936 </i>
    <i name="e_fr_energy">    972.21870228 </i>
    <i name="e_wo_entrp">    972.22169364 </i>
    <i name="e_0_energy">    972.21969940 </i>
   </energy>
  </scstep>
  <scstep>
   <time name="dav">    7.94    7.94</time>
   <time name="total">    7.94    7.94</time>
   <energy>
    <i name="e_fr_energy">     51.06928116 </i>
    <i name="e_wo_entrp">     51.08091743 </i>
    <i name="e_0_energy">     51.07315992 </i>
   </energy>
  </scstep>
  <scstep>
   <time name="dav">   22.62   22.62</time>
   <time name="total">   22.62   22.62</time>
   <energy>
    <i name="e_fr_energy">    -18.71267688 </i>
    <i name="e_wo_entrp">    -18.69501643 </i>
    <i name="e_0_energy">    -18.70679006 </i>
   </energy>
  </scstep>
  <scstep>
   <time name="dav">    8.54    8.54</time>
   <time name="total">    8.54    8.54</time>
   <energy>
    <i name="e_fr_energy">    -20.94579080 </i>
    <i name="e_wo_entrp">    -20.93054482 </i>
    <i name="e_0_energy">    -20.94070881 </i>
   </energy>
  </scstep>
  <scstep>
   <time name="dav">   16.78   16.78</time>
   <time name="total">   16.85   16.85</time>
   <energy>
    <i name="e_fr_energy">    -21.00234652 </i>
    <i name="e_wo_entrp">    -20.98718174 </i>
    <i name="e_0_energy">    -20.99729159 </i>
   </energy>
  </scstep>
  <scstep>
   <time name="dav">   10.94   10.94</time>
   <time name="total">   11.01   11.01</time>
   <energy>
    <i name="e_fr_energy">      6.46043104 </i>
    <i name="e_wo_entrp">      6.46097928 </i>
    <i name="e_0_energy">      6.46061379 </i>
   </energy>
  </scstep>
  <scstep>
   <time name="dav">   10.78   10.78</time>
   <time name="total">   10.86   10.86</time>
   <energy>
    <i name="e_fr_energy">     13.12386135 </i>
    <i name="e_wo_entrp">     13.11347974 </i>
    <i name="e_0_energy">     13.12040081 </i>
   </energy>
  </scstep>
  <scstep>
   <time name="dav">   12.33   12.33</time>
   <time name="total">   12.41   12.41</time>
   <energy>
    <i name="e_fr_energy">     18.03707504 </i>
    <i name="e_wo_entrp">     18.02550283 </i>
    <i name="e_0_energy">     18.03321763 </i>
   </energy>
  </scstep>
  <scstep>
   <time name="dav">   12.63   12.63</time>
   <time name="total">   12.71   12.71</time>
   <energy>
    <i name="e_fr_energy">     18.04441656 </i>
    <i name="e_wo_entrp">     18.03365600 </i>
    <i name="e_0_energy">     18.04082971 </i>
   </energy>
  </scstep>
  <scstep>
   <time name="dav">   12.23   12.24</time>
   <time name="total">   12.31   12.31</time>
   <energy>
    <i name="e_fr_energy">     18.08645204 </i>
    <i name="e_wo_entrp">     18.07514822 </i>
    <i name="e_0_energy">     18.08268410 </i>
   </energy>
  </scstep>
  <scstep>
   <time name="dav">   13.09   13.09</time>
   <time name="total">   13.17   13.17</time>
   <energy>
    <i name="e_fr_energy">     18.08641225 </i>
    <i name="e_wo_entrp">     18.07513365 </i>
    <i name="e_0_energy">     18.08265272 </i>
   </energy>
  </scstep>
  <scstep>
   <time name="dav">   13.04   13.05</time>
   <time name="total">   13.12   13.12</time>
   <energy>
    <i name="e_fr_energy">     18.08653107 </i>
    <i name="e_wo_entrp">     18.07526869 </i>
    <i name="e_0_energy">     18.08277695 </i>
   </energy>
  </scstep>
  <scstep>
   <time name="dav">   14.53   14.54</time>
   <time name="total">   14.61   14.62</time>
   <energy>
    <i name="e_fr_energy">     18.08654403 </i>
    <i name="e_wo_entrp">     18.07527079 </i>
    <i name="e_0_energy">     18.08278628 </i>
   </energy>
  </scstep>
  <scstep>
   <time name="dav">   13.41   13.41</time>
   <time name="total">   13.42   13.42</time>
   <energy>
    <i name="alphaZ">    308.37794552 </i>
    <i name="ewald">  -8773.41164677 </i>
    <i name="hartreedc">  -3909.27698589 </i>
    <i name="XCdc">    282.77447928 </i>
    <i name="pawpsdc">  12634.46431531 </i>
    <i name="pawaedc"> -12197.90732153 </i>
    <i name="eentropy">      0.01127251 </i>
    <i name="bandstr">  -1627.55250439 </i>
    <i name="atom">  13300.60698936 </i>
    <i name="e_fr_energy">     18.08654341 </i>
    <i name="e_wo_entrp">     18.07527090 </i>
    <i name="e_0_energy">     18.08278590 </i>
   </energy>
  </scstep>
  <structure>
   <crystal>
    <varray name="basis" >
     <v>       5.65068177       0.00000000       0.00000000 </v>
     <v>       0.00000000       5.65068177       0.00000000 </v>
     <v>       0.00000000       0.00000000       8.12462919 </v>
    </varray>
    <i name="volume">    259.42107139 </i>
    <varray name="rec_basis" >
     <v>       0.17696980       0.00000000       0.00000000 </v>
     <v>       0.00000000       0.17696980       0.00000000 </v>
     <v>       0.00000000       0.00000000       0.12308254 </v>
    </varray>
   </crystal>
   <varray name="positions" >
    <v>       0.00000000       0.00000000       0.00000000 </v>
    <v>       0.00000000       0.00000000       0.50000000 </v>
    <v>       0.00000000       0.50000000       0.00000000 </v>
    <v>       0.00000000       0.50000000       0.50000000 </v>
    <v>       0.50000000       0.00000000       0.00000000 </v>
    <v>       0.50000000       0.00000000       0.50000000 </v>
    <v>       0.50000000       0.50000000       0.00000000 </v>
    <v>       0.50000000       0.50000000       0.50000000 </v>
    <v>       0.25000000       0.25000000       0.25000000 </v>
    <v>       0.25000000       0.25000000       0.75000000 </v>
    <v>       0.25000000       0.75000000       0.25000000 </v>
    <v>       0.25000000       0.75000000       0.75000000 </v>
    <v>       0.75000000       0.25000000       0.25000000 </v>
    <v>       0.75000000       0.25000000       0.75000000 </v>
    <v>       0.75000000       0.75000000       0.25000000 </v>
    <v>       0.75000000       0.75000000       0.75000000 </v>
    <v>       0.25000000       0.25000000       0.25000000 </v>
    <v>       0.25000000       0.25000000       0.75000000 </v>
    <v>       0.25000000       0.75000000       0.25000000 </v>
    <v>       0.25000000       0.75000000       0.75000000 </v>
    <v>       0.75000000       0.25000000       0.25000000 </v>
    <v>       0.75000000       0.25000000       0.75000000 </v>
    <v>       0.75000000       0.75000000       0.25000000 </v>
    <v>       0.75000000       0.75000000       0.75000000 </v>
   </varray>
  </structure>
  <varray name="forces" >
   <v>       0.00000000       0.00000000      -0.00000000 </v>
   <v>      -0.00000000       0.00000000       0.00000000 </v>
   <v>      -0.00000000       0.00000000       0.00000000 </v>
   <v>      -0.00000000       0.00000000       0.00000000 </v>
   <v>      -0.00000000      -0.00000000      -0.00000000 </v>
   <v>       0.00000000       0.00000000      -0.00000000 </v>
   <v>      -0.00000000       0.00000000       0.00000000 </v>
   <v>      -0.00000000       0.00000000      -0.00000000 </v>
   <v>       0.00000000       0.00000000      -0.00000000 </v>
   <v>       0.00000000      -0.00000000      -0.00000000 </v>
   <v>       0.00000000      -0.00000000       0.00000000 </v>
   <v>      -0.00000000      -0.00000000      -0.00000000 </v>
   <v>       0.00000000      -0.00000000       0.00000000 </v>
   <v>      -0.00000000       0.00000000       0.00000000 </v>
   <v>      -0.00000000      -0.00000000      -0.00000000 </v>
   <v>       0.00000000      -0.00000000      -0.00000000 </v>
   <v>      -0.00000000      -0.00000000      -0.00000000 </v>
   <v>      -0.00000000      -0.00000000      -0.00000000 </v>
   <v>       0.00000000      -0.00000000      -0.00000000 </v>
   <v>      -0.00000000      -0.00000000      -0.00000000 </v>
   <v>      -0.00000000      -0.00000000      -0.00000000 </v>
   <v>      -0.00000000      -0.00000000      -0.00000000 </v>
   <v>       0.00000000      -0.00000000      -0.00000000 </v>
   <v>      -0.00000000      -0.00000000      -0.00000000 </v>
  </varray>
  <varray name="stress" >
   <v>     -13.89942101       0.00000000       0.00000000 </v>
   <v>       0.00000000     -13.89942101       0.00000000 </v>
   <v>       0.00000000      -0.00000000     -11.60071245 </v>
  </varray>
  <energy>
   <i name="e_fr_energy">     18.08654341 </i>
   <i name="e_wo_entrp">     18.07527090 </i>
   <i name="e_0_energy">     18.08278590 </i>
  </energy>
  <kpoints>
   <generation param="Gamma">
    <v type="int" name="divisions">       9        9        6 </v>
    <v name="usershift">      0.00000000       0.00000000       0.00000000 </v>
    <v name="genvec1">      0.11111111       0.00000000       0.00000000 </v>
    <v name="genvec2">      0.00000000       0.11111111       0.00000000 </v>
    <v name="genvec3">      0.00000000       0.00000000       0.16666667 </v>
    <v name="shift">      0.00000000       0.00000000       0.00000000 </v>
   </generation>
   <varray name="kpointlist" >
    <v>       0.00000000       0.00000000       0.00000000 </v>
    <v>       0.11111111       0.00000000       0.00000000 </v>
    <v>       0.22222222       0.00000000       0.00000000 </v>
    <v>       0.33333333       0.00000000       0.00000000 </v>
    <v>       0.44444444       0.00000000       0.00000000 </v>
    <v>       0.00000000       0.11111111       0.00000000 </v>
    <v>       0.11111111       0.11111111       0.00000000 </v>
    <v>       0.22222222       0.11111111       0.00000000 </v>
    <v>       0.33333333       0.11111111       0.00000000 </v>
    <v>       0.44444444       0.11111111       0.00000000 </v>
    <v>       0.00000000       0.22222222       0.00000000 </v>
    <v>       0.11111111       0.22222222       0.00000000 </v>
    <v>       0.22222222       0.22222222       0.00000000 </v>
    <v>       0.33333333       0.22222222       0.00000000 </v>
    <v>       0.44444444       0.22222222       0.00000000 </v>
    <v>       0.00000000       0.33333333       0.00000000 </v>
    <v>       0.11111111       0.33333333       0.00000000 </v>
    <v>       0.22222222       0.33333333       0.00000000 </v>
    <v>       0.33333333       0.33333333       0.00000000 </v>
    <v>       0.44444444       0.33333333       0.00000000 </v>
    <v>       0.00000000       0.44444444       0.00000000 </v>
    <v>       0.11111111       0.44444444       0.00000000 </v>
    <v>       0.22222222       0.44444444       0.00000000 </v>
    <v>       0.33333333       0.44444444       0.00000000 </v>
    <v>       0.44444444       0.44444444       0.00000000 </v>
    <v>       0.00000000       0.00000000       0.16666667 </v>
    <v>       0.11111111       0.00000000       0.16666667 </v>
    <v>       0.22222222       0.00000000       0.16666667 </v>
    <v>       0.33333333       0.00000000       0.16666667 </v>
    <v>       0.44444444       0.00000000       0.16666667 </v>
    <v>       0.00000000       0.11111111       0.16666667 </v>
    <v>       0.11111111       0.11111111       0.16666667 </v>
    <v>       0.22222222       0.11111111       0.16666667 </v>
    <v>       0.33333333       0.11111111       0.16666667 </v>
    <v>       0.44444444       0.11111111       0.16666667 </v>
    <v>       0.00000000       0.22222222       0.16666667 </v>
    <v>       0.11111111       0.22222222       0.16666667 </v>
    <v>       0.22222222       0.22222222       0.16666667 </v>
    <v>       0.33333333       0.22222222       0.16666667 </v>
    <v>       0.44444444       0.22222222       0.16666667 </v>
    <v>       0.00000000       0.33333333       0.16666667 </v>
    <v>       0.11111111       0.33333333       0.16666667 </v>
    <v>       0.22222222       0.33333333       0.16666667 </v>
    <v>       0.33333333       0.33333333       0.16666667 </v>
    <v>       0.44444444       0.33333333       0.16666667 </v>
    <v>       0.00000000       0.44444444       0.16666667 </v>
    <v>       0.11111111       0.44444444       0.16666667 </v>
    <v>       0.22222222       0.44444444       0.16666667 </v>
    <v>       0.33333333       0.44444444       0.16666667 </v>
    <v>       0.44444444       0.44444444       0.16666667 </v>
    <v>       0.00000000       0.00000000       0.33333333 </v>
    <v>       0.11111111       0.00000000       0.33333333 </v>
    <v>       0.22222222       0.00000000       0.33333333 </v>
    <v>       0.33333333       0.00000000       0.33333333 </v>
    <v>       0.44444444       0.00000000       0.33333333 </v>
    <v>       0.00000000       0.11111111       0.33333333 </v>
    <v>       0.11111111       0.11111111       0.33333333 </v>
    <v>       0.22222222       0.11111111       0.33333333 </v>
    <v>       0.33333333       0.11111111       0.33333333 </v>
    <v>       0.44444444       0.11111111       0.33333333 </v>
    <v>       0.00000000       0.22222222       0.33333333 </v>
    <v>       0.11111111       0.22222222       0.33333333 </v>
    <v>       0.22222222       0.22222222       0.33333333 </v>
    <v>       0.33333333       0.22222222       0.33333333 </v>
    <v>       0.44444444       0.22222222       0.33333333 </v>
    <v>       0.00000000       0.33333333       0.33333333 </v>
    <v>       0.11111111       0.33333333       0.33333333 </v>
    <v>       0.22222222       0.33333333       0.33333333 </v>
    <v>       0.33333333       0.33333333       0.33333333 </v>
    <v>       0.44444444       0.33333333       0.33333333 </v>
    <v>       0.00000000       0.44444444       0.33333333 </v>
    <v>       0.11111111       0.44444444       0.33333333 </v>
    <v>       0.22222222       0.44444444       0.33333333 </v>
    <v>       0.33333333       0.44444444       0.33333333 </v>
    <v>       0.44444444       0.44444444       0.33333333 </v>
    <v>       0.00000000       0.00000000       0.50000000 </v>
    <v>       0.11111111       0.00000000       0.50000000 </v>
    <v>       0.22222222       0.00000000       0.50000000 </v>
    <v>       0.33333333       0.00000000       0.50000000 </v>
    <v>       0.44444444       0.00000000       0.50000000 </v>
    <v>       0.00000000       0.11111111       0.50000000 </v>
    <v>       0.11111111       0.11111111       0.50000000 </v>
    <v>       0.22222222       0.11111111       0.50000000 </v>
    <v>       0.33333333       0.11111111       0.50000000 </v>
    <v>       0.44444444       0.11111111       0.50000000 </v>
    <v>       0.00000000       0.22222222       0.50000000 </v>
    <v>       0.11111111       0.22222222       0.50000000 </v>
    <v>       0.22222222       0.22222222       0.50000000 </v>
    <v>       0.33333333       0.22222222       0.50000000 </v>
    <v>       0.44444444       0.22222222       0.50000000 </v>
    <v>       0.00000000       0.33333333       0.50000000 </v>
    <v>       0.11111111       0.33333333       0.50000000 </v>
    <v>       0.22222222       0.33333333       0.50000000 </v>
    <v>       0.33333333       0.33333333       0.50000000 </v>
    <v>       0.44444444       0.33333333       0.50000000 </v>
    <v>       0.00000000       0.44444444       0.50000000 </v>
    <v>       0.11111111       0.44444444       0.50000000 </v>
    <v>       0.22222222       0.44444444       0.50000000 </v>
    <v>       0.33333333       0.44444444       0.50000000 </v>
    <v>       0.44444444       0.44444444       0.50000000 </v>
   </varray>
   <varray name="weights" >
    <v>       0.00205761 </v>
    <v>       0.00411523 </v>
    <v>       0.00411523 </v>
    <v>       0.00411523 </v>
    <v>       0.00411523 </v>
    <v>       0.00411523 </v>
    <v>       0.00823045 </v>
    <v>       0.00823045 </v>
    <v>       0.00823045 </v>
    <v>       0.00823045 </v>
    <v>       0.00411523 </v>
    <v>       0.00823045 </v>
    <v>       0.00823045 </v>
    <v>       0.00823045 </v>
    <v>       0.00823045 </v>
    <v>       0.00411523 </v>
    <v>       0.00823045 </v>
    <v>       0.00823045 </v>
    <v>       0.00823045 </v>
    <v>       0.00823045 </v>
    <v>       0.00411523 </v>
    <v>       0.00823045 </v>
    <v>       0.00823045 </v>
    <v>       0.00823045 </v>
    <v>       0.00823045 </v>
    <v>       0.00411523 </v>
    <v>       0.00823045 </v>
    <v>       0.00823045 </v>
    <v>       0.00823045 </v>
    <v>       0.00823045 </v>
    <v>       0.00823045 </v>
    <v>       0.01646091 </v>
    <v>       0.01646091 </v>
    <v>       0.01646091 </v>
    <v>       0.01646091 </v>
    <v>       0.00823045 </v>
    <v>       0.01646091 </v>
    <v>       0.01646091 </v>
    <v>       0.01646091 </v>
    <v>       0.01646091 </v>
    <v>       0.00823045 </v>
    <v>       0.01646091 </v>
    <v>       0.01646091 </v>
    <v>       0.01646091 </v>
    <v>       0.01646091 </v>
    <v>       0.00823045 </v>
    <v>       0.01646091 </v>
    <v>       0.01646091 </v>
    <v>       0.01646091 </v>
    <v>       0.01646091 </v>
    <v>       0.00411523 </v>
    <v>       0.00823045 </v>
    <v>       0.00823045 </v>
    <v>       0.00823045 </v>
    <v>       0.00823045 </v>
    <v>       0.00823045 </v>
    <v>       0.01646091 </v>
    <v>       0.01646091 </v>
    <v>       0.01646091 </v>
    <v>       0.01646091 </v>
    <v>       0.00823045 </v>
    <v>       0.01646091 </v>
    <v>       0.01646091 </v>
    <v>       0.01646091 </v>
    <v>       0.01646091 </v>
    <v>       0.00823045 </v>
    <v>       0.01646091 </v>
    <v>       0.01646091 </v>
    <v>       0.01646091 </v>
    <v>       0.01646091 </v>
    <v>       0.00823045 </v>
    <v>       0.01646091 </v>
    <v>       0.01646091 </v>
    <v>       0.01646091 </v>
    <v>       0.01646091 </v>
    <v>       0.00205761 </v>
    <v>       0.00411523 </v>
    <v>       0.00411523 </v>
    <v>       0.00411523 </v>
    <v>       0.00411523 </v>
    <v>       0.00411523 </v>
    <v>       0.00823045 </v>
    <v>       0.00823045 </v>
    <v>       0.00823045 </v>
    <v>       0.00823045 </v>
    <v>       0.00411523 </v>
    <v>       0.00823045 </v>
    <v>       0.00823045 </v>
    <v>       0.00823045 </v>
    <v>       0.00823045 </v>
    <v>       0.00411523 </v>
    <v>       0.00823045 </v>
    <v>       0.00823045 </v>
    <v>       0.00823045 </v>
    <v>       0.00823045 </v>
    <v>       0.00411523 </v>
    <v>       0.00823045 </v>
    <v>       0.00823045 </v>
    <v>       0.00823045 </v>
    <v>       0.00823045 </v>
   </varray>
  </kpoints>
  <time name="totalsc">  186.21  186.22</time>
 </calculation>
 <calculation>
  <scstep>
   <time name="dav">   19.70   19.70</time>
   <time name="total">   19.82   19.82</time>
   <energy>
    <i name="alphaZ">    303.82063599 </i>
    <i name="ewald">  -8737.90899692 </i>
    <i name="hartreedc">  -3882.65738365 </i>
    <i name="XCdc">    280.25888966 </i>
    <i name="pawpsdc">  12634.71597506 </i>
    <i name="pawaedc"> -12198.15191614 </i>
    <i name="eentropy">      0.00201713 </i>
    <i name="bandstr">  -1682.95563961 </i>
    <i name="atom">  13300.60698936 </i>
    <i name="e_fr_energy">     17.73057087 </i>
    <i name="e_wo_entrp">     17.72855375 </i>
    <i name="e_0_energy">     17.72989850 </i>
   </energy>
  </scstep>
  <scstep>
   <time name="dav">   21.13   21.13</time>
   <time name="total">   21.26   21.26</time>
   <energy>
    <i name="e_fr_energy">     18.15010156 </i>
    <i name="e_wo_entrp">     18.14481655 </i>
    <i name="e_0_energy">     18.14833989 </i>
   </energy>
  </scstep>
  <scstep>
   <time name="dav">   19.69   19.69</time>
   <time name="total">   19.82   19.82</time>
   <energy>
    <i name="e_fr_energy">     18.24657943 </i>
    <i name="e_wo_entrp">     18.23686738 </i>
    <i name="e_0_energy">     18.24334208 </i>
   </energy>
  </scstep>
  <scstep>
   <time name="dav">   23.49   23.49</time>
   <time name="total">   23.62   23.62</time>
   <energy>
    <i name="e_fr_energy">     18.25079489 </i>
    <i name="e_wo_entrp">     18.24046084 </i>
    <i name="e_0_energy">     18.24735021 </i>
   </energy>
  </scstep>
  <scstep>
   <time name="dav">   20.00   20.00</time>
   <time name="total">   20.13   20.13</time>
   <energy>
    <i name="e_fr_energy">     18.24684276 </i>
    <i name="e_wo_entrp">     18.23653791 </i>
    <i name="e_0_energy">     18.24340781 </i>
   </energy>
  </scstep>
  <scstep>
   <time name="dav">   29.56   29.56</time>
   <time name="total">   29.68   29.68</time>
   <energy>
    <i name="e_fr_energy">     18.24390697 </i>
    <i name="e_wo_entrp">     18.23343950 </i>
    <i name="e_0_energy">     18.24041781 </i>
   </energy>
  </scstep>
  <scstep>
   <time name="dav">   17.09   17.09</time>
   <time name="total">   17.21   17.22</time>
   <energy>
    <i name="e_fr_energy">     18.24364529 </i>
    <i name="e_wo_entrp">     18.23316344 </i>
    <i name="e_0_energy">     18.24015134 </i>
   </energy>
  </scstep>
  <scstep>
   <time name="dav">   23.87   23.87</time>
   <time name="total">   24.00   24.00</time>
   <energy>
    <i name="e_fr_energy">     18.24363895 </i>
    <i name="e_wo_entrp">     18.23315668 </i>
    <i name="e_0_energy">     18.24014486 </i>
   </energy>
  </scstep>
  <scstep>
   <time name="dav">   21.94   21.94</time>
   <time name="total">   22.07   22.07</time>
   <energy>
    <i name="e_fr_energy">     18.24364271 </i>
    <i name="e_wo_entrp">     18.23315732 </i>
    <i name="e_0_energy">     18.24014758 </i>
   </energy>
  </scstep>
  <scstep>
   <time name="dav">   19.45   19.45</time>
   <time name="total">   19.46   19.46</time>
   <energy>
    <i name="alphaZ">    303.82063599 </i>
    <i name="ewald">  -8737.90899692 </i>
    <i name="hartreedc">  -3918.10357355 </i>
    <i name="XCdc">    282.01334107 </i>
    <i name="pawpsdc">  12509.10456650 </i>
    <i name="pawaedc"> -12074.18946858 </i>
    <i name="eentropy">      0.01048470 </i>
    <i name="bandstr">  -1647.11033665 </i>
    <i name="atom">  13300.60698936 </i>
    <i name="e_fr_energy">     18.24364194 </i>
    <i name="e_wo_entrp">     18.23315723 </i>
    <i name="e_0_energy">     18.24014703 </i>
   </energy>
  </scstep>
  <structure>
   <crystal>
    <varray name="basis" >
     <v>       5.73544200       0.00000000       0.00000000 </v>
     <v>       0.00000000       5.65068177       0.00000000 </v>
     <v>       0.00000000       0.00000000       8.12462919 </v>
    </varray>
    <i name="volume">    263.31238747 </i>
    <varray name="rec_basis" >
     <v>       0.17435448       0.00000000       0.00000000 </v>
     <v>       0.00000000       0.17696980       0.00000000 </v>
     <v>       0.00000000       0.00000000       0.12308254 </v>
    </varray>
   </crystal>
   <varray name="positions" >
    <v>       0.00000000       0.00000000       0.00000000 </v>
    <v>       0.00000000       0.00000000       0.50000000 </v>
    <v>       0.00000000       0.50000000       0.00000000 </v>
    <v>       0.00000000       0.50000000       0.50000000 </v>
    <v>       0.50000000       0.00000000       0.00000000 </v>
    <v>       0.50000000       0.00000000       0.50000000 </v>
    <v>       0.50000000       0.50000000       0.00000000 </v>
    <v>       0.50000000       0.50000000       0.50000000 </v>
    <v>       0.25000000       0.25000000       0.25000000 </v>
    <v>       0.25000000       0.25000000       0.75000000 </v>
    <v>       0.25000000       0.75000000       0.25000000 </v>
    <v>       0.25000000       0.75000000       0.75000000 </v>
    <v>       0.75000000       0.25000000       0.25000000 </v>
    <v>       0.75000000       0.25000000       0.75000000 </v>
    <v>       0.75000000       0.75000000       0.25000000 </v>
    <v>       0.75000000       0.75000000       0.75000000 </v>
    <v>       0.25000000       0.25000000       0.25000000 </v>
    <v>       0.25000000       0.25000000       0.75000000 </v>
    <v>       0.25000000       0.75000000       0.25000000 </v>
    <v>       0.25000000       0.75000000       0.75000000 </v>
    <v>       0.75000000       0.25000000       0.25000000 </v>
    <v>       0.75000000       0.25000000       0.75000000 </v>
    <v>       0.75000000       0.75000000       0.25000000 </v>
    <v>       0.75000000       0.75000000       0.75000000 </v>
   </varray>
  </structure>
  <varray name="forces" >
   <v>      -0.00000000       0.00000000       0.00000000 </v>
   <v>       0.00000000       0.00000000      -0.00000000 </v>
   <v>      -0.00000000      -0.00000000       0.00000000 </v>
   <v>       0.00000000      -0.00000000       0.00000000 </v>
   <v>       0.00000000       0.00000000       0.00000000 </v>
   <v>       0.00000000      -0.00000000      -0.00000000 </v>
   <v>      -0.00000000       0.00000000      -0.00000000 </v>
   <v>      -0.00000000      -0.00000000      -0.00000000 </v>
   <v>       0.00000000       0.00000000      -0.00000000 </v>
   <v>      -0.00000000      -0.00000000       0.00000000 </v>
   <v>       0.00000000      -0.00000000      -0.00000000 </v>
   <v>       0.00000000      -0.00000000       0.00000000 </v>
   <v>       0.00000000       0.00000000       0.00000000 </v>
   <v>       0.00000000       0.00000000       0.00000000 </v>
   <v>       0.00000000      -0.00000000      -0.00000000 </v>
   <v>       0.00000000      -0.00000000       0.00000000 </v>
   <v>       0.00000000       0.00000000       0.00000000 </v>
   <v>       0.00000000      -0.00000000       0.00000000 </v>
   <v>       0.00000000      -0.00000000       0.00000000 </v>
   <v>       0.00000000      -0.00000000       0.00000000 </v>
   <v>       0.00000000      -0.00000000       0.00000000 </v>
   <v>       0.00000000      -0.00000000       0.00000000 </v>
   <v>       0.00000000      -0.00000000       0.00000000 </v>
   <v>       0.00000000      -0.00000000       0.00000000 </v>
  </varray>
  <varray name="stress" >
   <v>     -41.99283752       0.00000000       0.00000000 </v>
   <v>       0.00000000     -23.06451133       0.00000000 </v>
   <v>       0.00000000       0.00000000     -23.13591463 </v>
  </varray>
  <energy>
   <i name="e_fr_energy">     18.24364194 </i>
   <i name="e_wo_entrp">     18.23315723 </i>
   <i name="e_0_energy">     18.24014703 </i>
  </energy>
  <kpoints>
   <generation param="Gamma">
    <v type="int" name="divisions">       9        9        6 </v>
    <v name="usershift">      0.00000000       0.00000000       0.00000000 </v>
    <v name="genvec1">      0.11111111       0.00000000       0.00000000 </v>
    <v name="genvec2">      0.00000000       0.11111111       0.00000000 </v>
    <v name="genvec3">      0.00000000       0.00000000       0.16666667 </v>
    <v name="shift">      0.00000000       0.00000000       0.00000000 </v>
   </generation>
   <varray name="kpointlist" >
    <v>       0.00000000       0.00000000       0.00000000 </v>
    <v>       0.11111111       0.00000000       0.00000000 </v>
    <v>       0.22222222       0.00000000       0.00000000 </v>
    <v>       0.33333333       0.00000000       0.00000000 </v>
    <v>       0.44444444       0.00000000       0.00000000 </v>
    <v>       0.00000000       0.11111111       0.00000000 </v>
    <v>       0.11111111       0.11111111       0.00000000 </v>
    <v>       0.22222222       0.11111111       0.00000000 </v>
    <v>       0.33333333       0.11111111       0.00000000 </v>
    <v>       0.44444444       0.11111111       0.00000000 </v>
    <v>       0.00000000       0.22222222       0.00000000 </v>
    <v>       0.11111111       0.22222222       0.00000000 </v>
    <v>       0.22222222       0.22222222       0.00000000 </v>
    <v>       0.33333333       0.22222222       0.00000000 </v>
    <v>       0.44444444       0.22222222       0.00000000 </v>
    <v>       0.00000000       0.33333333       0.00000000 </v>
    <v>       0.11111111       0.33333333       0.00000000 </v>
    <v>       0.22222222       0.33333333       0.00000000 </v>
    <v>       0.33333333       0.33333333       0.00000000 </v>
    <v>       0.44444444       0.33333333       0.00000000 </v>
    <v>       0.00000000       0.44444444       0.00000000 </v>
    <v>       0.11111111       0.44444444       0.00000000 </v>
    <v>       0.22222222       0.44444444       0.00000000 </v>
    <v>       0.33333333       0.44444444       0.00000000 </v>
    <v>       0.44444444       0.44444444       0.00000000 </v>
    <v>       0.00000000       0.00000000       0.16666667 </v>
    <v>       0.11111111       0.00000000       0.16666667 </v>
    <v>       0.22222222       0.00000000       0.16666667 </v>
    <v>       0.33333333       0.00000000       0.16666667 </v>
    <v>       0.44444444       0.00000000       0.16666667 </v>
    <v>       0.00000000       0.11111111       0.16666667 </v>
    <v>       0.11111111       0.11111111       0.16666667 </v>
    <v>       0.22222222       0.11111111       0.16666667 </v>
    <v>       0.33333333       0.11111111       0.16666667 </v>
    <v>       0.44444444       0.11111111       0.16666667 </v>
    <v>       0.00000000       0.22222222       0.16666667 </v>
    <v>       0.11111111       0.22222222       0.16666667 </v>
    <v>       0.22222222       0.22222222       0.16666667 </v>
    <v>       0.33333333       0.22222222       0.16666667 </v>
    <v>       0.44444444       0.22222222       0.16666667 </v>
    <v>       0.00000000       0.33333333       0.16666667 </v>
    <v>       0.11111111       0.33333333       0.16666667 </v>
    <v>       0.22222222       0.33333333       0.16666667 </v>
    <v>       0.33333333       0.33333333       0.16666667 </v>
    <v>       0.44444444       0.33333333       0.16666667 </v>
    <v>       0.00000000       0.44444444       0.16666667 </v>
    <v>       0.11111111       0.44444444       0.16666667 </v>
    <v>       0.22222222       0.44444444       0.16666667 </v>
    <v>       0.33333333       0.44444444       0.16666667 </v>
    <v>       0.44444444       0.44444444       0.16666667 </v>
    <v>       0.00000000       0.00000000       0.33333333 </v>
    <v>       0.11111111       0.00000000       0.33333333 </v>
    <v>       0.22222222       0.00000000       0.33333333 </v>
    <v>       0.33333333       0.00000000       0.33333333 </v>
    <v>       0.44444444       0.00000000       0.33333333 </v>
    <v>       0.00000000       0.11111111       0.33333333 </v>
    <v>       0.11111111       0.11111111       0.33333333 </v>
    <v>       0.22222222       0.11111111       0.33333333 </v>
    <v>       0.33333333       0.11111111       0.33333333 </v>
    <v>       0.44444444       0.11111111       0.33333333 </v>
    <v>       0.00000000       0.22222222       0.33333333 </v>
    <v>       0.11111111       0.22222222       0.33333333 </v>
    <v>       0.22222222       0.22222222       0.33333333 </v>
    <v>       0.33333333       0.22222222       0.33333333 </v>
    <v>       0.44444444       0.22222222       0.33333333 </v>
    <v>       0.00000000       0.33333333       0.33333333 </v>
    <v>       0.11111111       0.33333333       0.33333333 </v>
    <v>       0.22222222       0.33333333       0.33333333 </v>
    <v>       0.33333333       0.33333333       0.33333333 </v>
    <v>       0.44444444       0.33333333       0.33333333 </v>
    <v>       0.00000000       0.44444444       0.33333333 </v>
    <v>       0.11111111       0.44444444       0.33333333 </v>
    <v>       0.22222222       0.44444444       0.33333333 </v>
    <v>       0.33333333       0.44444444       0.33333333 </v>
    <v>       0.44444444       0.44444444       0.33333333 </v>
    <v>       0.00000000       0.00000000       0.50000000 </v>
    <v>       0.11111111       0.00000000       0.50000000 </v>
    <v>       0.22222222       0.00000000       0.50000000 </v>
    <v>       0.33333333       0.00000000       0.50000000 </v>
    <v>       0.44444444       0.00000000       0.50000000 </v>
    <v>       0.00000000       0.11111111       0.50000000 </v>
    <v>       0.11111111       0.11111111       0.50000000 </v>
    <v>       0.22222222       0.11111111       0.50000000 </v>
    <v>       0.33333333       0.11111111       0.50000000 </v>
    <v>       0.44444444       0.11111111       0.50000000 </v>
    <v>       0.00000000       0.22222222       0.50000000 </v>
    <v>       0.11111111       0.22222222       0.50000000 </v>
    <v>       0.22222222       0.22222222       0.50000000 </v>
    <v>       0.33333333       0.22222222       0.50000000 </v>
    <v>       0.44444444       0.22222222       0.50000000 </v>
    <v>       0.00000000       0.33333333       0.50000000 </v>
    <v>       0.11111111       0.33333333       0.50000000 </v>
    <v>       0.22222222       0.33333333       0.50000000 </v>
    <v>       0.33333333       0.33333333       0.50000000 </v>
    <v>       0.44444444       0.33333333       0.50000000 </v>
    <v>       0.00000000       0.44444444       0.50000000 </v>
    <v>       0.11111111       0.44444444       0.50000000 </v>
    <v>       0.22222222       0.44444444       0.50000000 </v>
    <v>       0.33333333       0.44444444       0.50000000 </v>
    <v>       0.44444444       0.44444444       0.50000000 </v>
   </varray>
   <varray name="weights" >
    <v>       0.00205761 </v>
    <v>       0.00411523 </v>
    <v>       0.00411523 </v>
    <v>       0.00411523 </v>
    <v>       0.00411523 </v>
    <v>       0.00411523 </v>
    <v>       0.00823045 </v>
    <v>       0.00823045 </v>
    <v>       0.00823045 </v>
    <v>       0.00823045 </v>
    <v>       0.00411523 </v>
    <v>       0.00823045 </v>
    <v>       0.00823045 </v>
    <v>       0.00823045 </v>
    <v>       0.00823045 </v>
    <v>       0.00411523 </v>
    <v>       0.00823045 </v>
    <v>       0.00823045 </v>
    <v>       0.00823045 </v>
    <v>       0.00823045 </v>
    <v>       0.00411523 </v>
    <v>       0.00823045 </v>
    <v>       0.00823045 </v>
    <v>       0.00823045 </v>
    <v>       0.00823045 </v>
    <v>       0.00411523 </v>
    <v>       0.00823045 </v>
    <v>       0.00823045 </v>
    <v>       0.00823045 </v>
    <v>       0.00823045 </v>
    <v>       0.00823045 </v>
    <v>       0.01646091 </v>
    <v>       0.01646091 </v>
    <v>       0.01646091 </v>
    <v>       0.01646091 </v>
    <v>       0.00823045 </v>
    <v>       0.01646091 </v>
    <v>       0.01646091 </v>
    <v>       0.01646091 </v>
    <v>       0.01646091 </v>
    <v>       0.00823045 </v>
    <v>       0.01646091 </v>
    <v>       0.01646091 </v>
    <v>       0.01646091 </v>
    <v>       0.01646091 </v>
    <v>       0.00823045 </v>
    <v>       0.01646091 </v>
    <v>       0.01646091 </v>
    <v>       0.01646091 </v>
    <v>       0.01646091 </v>
    <v>       0.00411523 </v>
    <v>       0.00823045 </v>
    <v>       0.00823045 </v>
    <v>       0.00823045 </v>
    <v>       0.00823045 </v>
    <v>       0.00823045 </v>
    <v>       0.01646091 </v>
    <v>       0.01646091 </v>
    <v>       0.01646091 </v>
    <v>       0.01646091 </v>
    <v>       0.00823045 </v>
    <v>       0.01646091 </v>
    <v>       0.01646091 </v>
    <v>       0.01646091 </v>
    <v>       0.01646091 </v>
    <v>       0.00823045 </v>
    <v>       0.01646091 </v>
    <v>       0.01646091 </v>
    <v>       0.01646091 </v>
    <v>       0.01646091 </v>
    <v>       0.00823045 </v>
    <v>       0.01646091 </v>
    <v>       0.01646091 </v>
    <v>       0.01646091 </v>
    <v>       0.01646091 </v>
    <v>       0.00205761 </v>
    <v>       0.00411523 </v>
    <v>       0.00411523 </v>
    <v>       0.00411523 </v>
    <v>       0.00411523 </v>
    <v>       0.00411523 </v>
    <v>       0.00823045 </v>
    <v>       0.00823045 </v>
    <v>       0.00823045 </v>
    <v>       0.00823045 </v>
    <v>       0.00411523 </v>
    <v>       0.00823045 </v>
    <v>       0.00823045 </v>
    <v>       0.00823045 </v>
    <v>       0.00823045 </v>
    <v>       0.00411523 </v>
    <v>       0.00823045 </v>
    <v>       0.00823045 </v>
    <v>       0.00823045 </v>
    <v>       0.00823045 </v>
    <v>       0.00411523 </v>
    <v>       0.00823045 </v>
    <v>       0.00823045 </v>
    <v>       0.00823045 </v>
    <v>       0.00823045 </v>
   </varray>
  </kpoints>
  <time name="totalsc">  230.15  230.16</time>
 </calculation>
 <calculation>
  <scstep>
   <time name="dav">   21.32   21.32</time>
   <time name="total">   21.43   21.43</time>
   <energy>
    <i name="alphaZ">    313.07405637 </i>
    <i name="ewald">  -8808.65171798 </i>
    <i name="hartreedc">  -3971.66896574 </i>
    <i name="XCdc">    287.10611634 </i>
    <i name="pawpsdc">  12509.15819718 </i>
    <i name="pawaedc"> -12074.23385366 </i>
    <i name="eentropy">     -0.00532935 </i>
    <i name="bandstr">  -1539.34472795 </i>
    <i name="atom">  13300.60698936 </i>
    <i name="e_fr_energy">     16.04076456 </i>
    <i name="e_wo_entrp">     16.04609392 </i>
    <i name="e_0_energy">     16.04254101 </i>
   </energy>
  </scstep>
  <scstep>
   <time name="dav">   19.15   19.15</time>
   <time name="total">   19.27   19.28</time>
   <energy>
    <i name="e_fr_energy">     17.68122345 </i>
    <i name="e_wo_entrp">     17.67829143 </i>
    <i name="e_0_energy">     17.68024611 </i>
   </energy>
  </scstep>
  <scstep>
   <time name="dav">   20.07   20.07</time>
   <time name="total">   20.19   20.19</time>
   <energy>
    <i name="e_fr_energy">     17.99832434 </i>
    <i name="e_wo_entrp">     17.98881452 </i>
    <i name="e_0_energy">     17.99515440 </i>
   </energy>
  </scstep>
  <scstep>
   <time name="dav">   24.46   24.46</time>
   <time name="total">   24.58   24.58</time>
   <energy>
    <i name="e_fr_energy">     18.02478491 </i>
    <i name="e_wo_entrp">     18.01282462 </i>
    <i name="e_0_energy">     18.02079815 </i>
   </energy>
  </scstep>
  <scstep>
   <time name="dav">   19.02   19.02</time>
   <time name="total">   19.14   19.14</time>
   <energy>
    <i name="e_fr_energy">     18.00725000 </i>
    <i name="e_wo_entrp">     17.99548383 </i>
    <i name="e_0_energy">     18.00332795 </i>
   </energy>
  </scstep>
  <scstep>
   <time name="dav">   26.01   26.01</time>
   <time name="total">   26.13   26.13</time>
   <energy>
    <i name="e_fr_energy">     18.00000523 </i>
    <i name="e_wo_entrp">     17.98794633 </i>
    <i name="e_0_energy">     17.99598559 </i>
   </energy>
  </scstep>
  <scstep>
   <time name="dav">   17.97   17.97</time>
   <time name="total">   18.09   18.09</time>
   <energy>
    <i name="e_fr_energy">     18.00000011 </i>
    <i name="e_wo_entrp">     17.98802963 </i>
    <i name="e_0_energy">     17.99600995 </i>
   </energy>
  </scstep>
  <scstep>
   <time name="dav">   25.40   25.40</time>
   <time name="total">   25.53   25.53</time>
   <energy>
    <i name="e_fr_energy">     17.99998717 </i>
    <i name="e_wo_entrp">     17.98801803 </i>
    <i name="e_0_energy">     17.99599746 </i>
   </energy>
  </scstep>
  <scstep>
   <time name="dav">   21.34   21.34</time>
   <time name="total">   21.46   21.46</time>
   <energy>
    <i name="e_fr_energy">     17.99998840 </i>
    <i name="e_wo_entrp">     17.98801733 </i>
    <i name="e_0_energy">     17.99599804 </i>
   </energy>
  </scstep>
  <scstep>
   <time name="dav">   20.98   20.98</time>
   <time name="total">   21.10   21.10</time>
   <energy>
    <i name="e_fr_energy">     17.99998641 </i>
    <i name="e_wo_entrp">     17.98801595 </i>
    <i name="e_0_energy">     17.99599626 </i>
   </energy>
  </scstep>
  <scstep>
   <time name="dav">   13.28   13.28</time>
   <time name="total">   13.29   13.29</time>
   <energy>
    <i name="alphaZ">    313.07405637 </i>
    <i name="ewald">  -8808.65171798 </i>
    <i name="hartreedc">  -3901.48053100 </i>
    <i name="XCdc">    283.57243460 </i>
    <i name="pawpsdc">  12770.00928412 </i>
    <i name="pawaedc"> -12331.66873819 </i>
    <i name="eentropy">      0.01197041 </i>
    <i name="bandstr">  -1607.47376108 </i>
    <i name="atom">  13300.60698936 </i>
    <i name="e_fr_energy">     17.99998661 </i>
    <i name="e_wo_entrp">     17.98801620 </i>
    <i name="e_0_energy">     17.99599647 </i>
   </energy>
  </scstep>
  <structure>
   <crystal>
    <varray name="basis" >
     <v>       5.56592155       0.00000000       0.00000000 </v>
     <v>       0.00000000       5.65068177       0.00000000 </v>
     <v>       0.00000000       0.00000000       8.12462919 </v>
    </varray>
    <i name="volume">    255.52975532 </i>
    <varray name="rec_basis" >
     <v>       0.17966477       0.00000000       0.00000000 </v>
     <v>       0.00000000       0.17696980       0.00000000 </v>
     <v>       0.00000000       0.00000000       0.12308254 </v>
    </varray>
   </crystal>
   <varray name="positions" >
    <v>       0.00000000       0.00000000       0.00000000 </v>
    <v>       0.00000000       0.00000000       0.50000000 </v>
    <v>       0.00000000       0.50000000       0.00000000 </v>
    <v>       0.00000000       0.50000000       0.50000000 </v>
    <v>       0.50000000       0.00000000       0.00000000 </v>
    <v>       0.50000000       0.00000000       0.50000000 </v>
    <v>       0.50000000       0.50000000       0.00000000 </v>
    <v>       0.50000000       0.50000000       0.50000000 </v>
    <v>       0.25000000       0.25000000       0.25000000 </v>
    <v>       0.25000000       0.25000000       0.75000000 </v>
    <v>       0.25000000       0.75000000       0.25000000 </v>
    <v>       0.25000000       0.75000000       0.75000000 </v>
    <v>       0.75000000       0.25000000       0.25000000 </v>
    <v>       0.75000000       0.25000000       0.75000000 </v>
    <v>       0.75000000       0.75000000       0.25000000 </v>
    <v>       0.75000000       0.75000000       0.75000000 </v>
    <v>       0.25000000       0.25000000       0.25000000 </v>
    <v>       0.25000000       0.25000000       0.75000000 </v>
    <v>       0.25000000       0.75000000       0.25000000 </v>
    <v>       0.25000000       0.75000000       0.75000000 </v>
    <v>       0.75000000       0.25000000       0.25000000 </v>
    <v>       0.75000000       0.25000000       0.75000000 </v>
    <v>       0.75000000       0.75000000       0.25000000 </v>
    <v>       0.75000000       0.75000000       0.75000000 </v>
   </varray>
  </structure>
  <varray name="forces" >
   <v>       0.00000000       0.00000000       0.00000000 </v>
   <v>      -0.00000000       0.00000000       0.00000000 </v>
   <v>      -0.00000000       0.00000000      -0.00000000 </v>
   <v>      -0.00000000       0.00000000       0.00000000 </v>
   <v>       0.00000000       0.00000000      -0.00000000 </v>
   <v>      -0.00000000       0.00000000      -0.00000000 </v>
   <v>       0.00000000       0.00000000      -0.00000000 </v>
   <v>       0.00000000       0.00000000      -0.00000000 </v>
   <v>      -0.00000000      -0.00000000      -0.00000000 </v>
   <v>      -0.00000000      -0.00000000      -0.00000000 </v>
   <v>       0.00000000      -0.00000000       0.00000000 </v>
   <v>      -0.00000000      -0.00000000       0.00000000 </v>
   <v>       0.00000000      -0.00000000       0.00000000 </v>
   <v>      -0.00000000       0.00000000      -0.00000000 </v>
   <v>      -0.00000000       0.00000000      -0.00000000 </v>
   <v>      -0.00000000       0.00000000      -0.00000000 </v>
   <v>      -0.00000000      -0.00000000      -0.00000000 </v>
   <v>      -0.00000000      -0.00000000      -0.00000000 </v>
   <v>      -0.00000000      -0.00000000      -0.00000000 </v>
   <v>      -0.00000000      -0.00000000      -0.00000000 </v>
   <v>      -0.00000000      -0.00000000      -0.00000000 </v>
   <v>      -0.00000000       0.00000000      -0.00000000 </v>
   <v>      -0.00000000      -0.00000000      -0.00000000 </v>
   <v>      -0.00000000      -0.00000000      -0.00000000 </v>
  </varray>
  <varray name="stress" >
   <v>      17.52519948       0.00000000       0.00000000 </v>
   <v>       0.00000000      -4.15350525       0.00000000 </v>
   <v>       0.00000000       0.00000000       0.65612893 </v>
  </varray>
  <energy>
   <i name="e_fr_energy">     17.99998661 </i>
   <i name="e_wo_entrp">     17.98801620 </i>
   <i name="e_0_energy">     17.99599647 </i>
  </energy>
  <kpoints>
   <generation param="Gamma">
    <v type="int" name="divisions">       9        9        6 </v>
    <v name="usershift">      0.00000000       0.00000000       0.00000000 </v>
    <v name="genvec1">      0.11111111       0.00000000       0.00000000 </v>
    <v name="genvec2">      0.00000000       0.11111111       0.00000000 </v>
    <v name="genvec3">      0.00000000       0.00000000       0.16666667 </v>
    <v name="shift">      0.00000000       0.00000000       0.00000000 </v>
   </generation>
   <varray name="kpointlist" >
    <v>       0.00000000       0.00000000       0.00000000 </v>
    <v>       0.11111111       0.00000000       0.00000000 </v>
    <v>       0.22222222       0.00000000       0.00000000 </v>
    <v>       0.33333333       0.00000000       0.00000000 </v>
    <v>       0.44444444       0.00000000       0.00000000 </v>
    <v>       0.00000000       0.11111111       0.00000000 </v>
    <v>       0.11111111       0.11111111       0.00000000 </v>
    <v>       0.22222222       0.11111111       0.00000000 </v>
    <v>       0.33333333       0.11111111       0.00000000 </v>
    <v>       0.44444444       0.11111111       0.00000000 </v>
    <v>       0.00000000       0.22222222       0.00000000 </v>
    <v>       0.11111111       0.22222222       0.00000000 </v>
    <v>       0.22222222       0.22222222       0.00000000 </v>
    <v>       0.33333333       0.22222222       0.00000000 </v>
    <v>       0.44444444       0.22222222       0.00000000 </v>
    <v>       0.00000000       0.33333333       0.00000000 </v>
    <v>       0.11111111       0.33333333       0.00000000 </v>
    <v>       0.22222222       0.33333333       0.00000000 </v>
    <v>       0.33333333       0.33333333       0.00000000 </v>
    <v>       0.44444444       0.33333333       0.00000000 </v>
    <v>       0.00000000       0.44444444       0.00000000 </v>
    <v>       0.11111111       0.44444444       0.00000000 </v>
    <v>       0.22222222       0.44444444       0.00000000 </v>
    <v>       0.33333333       0.44444444       0.00000000 </v>
    <v>       0.44444444       0.44444444       0.00000000 </v>
    <v>       0.00000000       0.00000000       0.16666667 </v>
    <v>       0.11111111       0.00000000       0.16666667 </v>
    <v>       0.22222222       0.00000000       0.16666667 </v>
    <v>       0.33333333       0.00000000       0.16666667 </v>
    <v>       0.44444444       0.00000000       0.16666667 </v>
    <v>       0.00000000       0.11111111       0.16666667 </v>
    <v>       0.11111111       0.11111111       0.16666667 </v>
    <v>       0.22222222       0.11111111       0.16666667 </v>
    <v>       0.33333333       0.11111111       0.16666667 </v>
    <v>       0.44444444       0.11111111       0.16666667 </v>
    <v>       0.00000000       0.22222222       0.16666667 </v>
    <v>       0.11111111       0.22222222       0.16666667 </v>
    <v>       0.22222222       0.22222222       0.16666667 </v>
    <v>       0.33333333       0.22222222       0.16666667 </v>
    <v>       0.44444444       0.22222222       0.16666667 </v>
    <v>       0.00000000       0.33333333       0.16666667 </v>
    <v>       0.11111111       0.33333333       0.16666667 </v>
    <v>       0.22222222       0.33333333       0.16666667 </v>
    <v>       0.33333333       0.33333333       0.16666667 </v>
    <v>       0.44444444       0.33333333       0.16666667 </v>
    <v>       0.00000000       0.44444444       0.16666667 </v>
    <v>       0.11111111       0.44444444       0.16666667 </v>
    <v>       0.22222222       0.44444444       0.16666667 </v>
    <v>       0.33333333       0.44444444       0.16666667 </v>
    <v>       0.44444444       0.44444444       0.16666667 </v>
    <v>       0.00000000       0.00000000       0.33333333 </v>
    <v>       0.11111111       0.00000000       0.33333333 </v>
    <v>       0.22222222       0.00000000       0.33333333 </v>
    <v>       0.33333333       0.00000000       0.33333333 </v>
    <v>       0.44444444       0.00000000       0.33333333 </v>
    <v>       0.00000000       0.11111111       0.33333333 </v>
    <v>       0.11111111       0.11111111       0.33333333 </v>
    <v>       0.22222222       0.11111111       0.33333333 </v>
    <v>       0.33333333       0.11111111       0.33333333 </v>
    <v>       0.44444444       0.11111111       0.33333333 </v>
    <v>       0.00000000       0.22222222       0.33333333 </v>
    <v>       0.11111111       0.22222222       0.33333333 </v>
    <v>       0.22222222       0.22222222       0.33333333 </v>
    <v>       0.33333333       0.22222222       0.33333333 </v>
    <v>       0.44444444       0.22222222       0.33333333 </v>
    <v>       0.00000000       0.33333333       0.33333333 </v>
    <v>       0.11111111       0.33333333       0.33333333 </v>
    <v>       0.22222222       0.33333333       0.33333333 </v>
    <v>       0.33333333       0.33333333       0.33333333 </v>
    <v>       0.44444444       0.33333333       0.33333333 </v>
    <v>       0.00000000       0.44444444       0.33333333 </v>
    <v>       0.11111111       0.44444444       0.33333333 </v>
    <v>       0.22222222       0.44444444       0.33333333 </v>
    <v>       0.33333333       0.44444444       0.33333333 </v>
    <v>       0.44444444       0.44444444       0.33333333 </v>
    <v>       0.00000000       0.00000000       0.50000000 </v>
    <v>       0.11111111       0.00000000       0.50000000 </v>
    <v>       0.22222222       0.00000000       0.50000000 </v>
    <v>       0.33333333       0.00000000       0.50000000 </v>
    <v>       0.44444444       0.00000000       0.50000000 </v>
    <v>       0.00000000       0.11111111       0.50000000 </v>
    <v>       0.11111111       0.11111111       0.50000000 </v>
    <v>       0.22222222       0.11111111       0.50000000 </v>
    <v>       0.33333333       0.11111111       0.50000000 </v>
    <v>       0.44444444       0.11111111       0.50000000 </v>
    <v>       0.00000000       0.22222222       0.50000000 </v>
    <v>       0.11111111       0.22222222       0.50000000 </v>
    <v>       0.22222222       0.22222222       0.50000000 </v>
    <v>       0.33333333       0.22222222       0.50000000 </v>
    <v>       0.44444444       0.22222222       0.50000000 </v>
    <v>       0.00000000       0.33333333       0.50000000 </v>
    <v>       0.11111111       0.33333333       0.50000000 </v>
    <v>       0.22222222       0.33333333       0.50000000 </v>
    <v>       0.33333333       0.33333333       0.50000000 </v>
    <v>       0.44444444       0.33333333       0.50000000 </v>
    <v>       0.00000000       0.44444444       0.50000000 </v>
    <v>       0.11111111       0.44444444       0.50000000 </v>
    <v>       0.22222222       0.44444444       0.50000000 </v>
    <v>       0.33333333       0.44444444       0.50000000 </v>
    <v>       0.44444444       0.44444444       0.50000000 </v>
   </varray>
   <varray name="weights" >
    <v>       0.00205761 </v>
    <v>       0.00411523 </v>
    <v>       0.00411523 </v>
    <v>       0.00411523 </v>
    <v>       0.00411523 </v>
    <v>       0.00411523 </v>
    <v>       0.00823045 </v>
    <v>       0.00823045 </v>
    <v>       0.00823045 </v>
    <v>       0.00823045 </v>
    <v>       0.00411523 </v>
    <v>       0.00823045 </v>
    <v>       0.00823045 </v>
    <v>       0.00823045 </v>
    <v>       0.00823045 </v>
    <v>       0.00411523 </v>
    <v>       0.00823045 </v>
    <v>       0.00823045 </v>
    <v>       0.00823045 </v>
    <v>       0.00823045 </v>
    <v>       0.00411523 </v>
    <v>       0.00823045 </v>
    <v>       0.00823045 </v>
    <v>       0.00823045 </v>
    <v>       0.00823045 </v>
    <v>       0.00411523 </v>
    <v>       0.00823045 </v>
    <v>       0.00823045 </v>
    <v>       0.00823045 </v>
    <v>       0.00823045 </v>
    <v>       0.00823045 </v>
    <v>       0.01646091 </v>
    <v>       0.01646091 </v>
    <v>       0.01646091 </v>
    <v>       0.01646091 </v>
    <v>       0.00823045 </v>
    <v>       0.01646091 </v>
    <v>       0.01646091 </v>
    <v>       0.01646091 </v>
    <v>       0.01646091 </v>
    <v>       0.00823045 </v>
    <v>       0.01646091 </v>
    <v>       0.01646091 </v>
    <v>       0.01646091 </v>
    <v>       0.01646091 </v>
    <v>       0.00823045 </v>
    <v>       0.01646091 </v>
    <v>       0.01646091 </v>
    <v>       0.01646091 </v>
    <v>       0.01646091 </v>
    <v>       0.00411523 </v>
    <v>       0.00823045 </v>
    <v>       0.00823045 </v>
    <v>       0.00823045 </v>
    <v>       0.00823045 </v>
    <v>       0.00823045 </v>
    <v>       0.01646091 </v>
    <v>       0.01646091 </v>
    <v>       0.01646091 </v>
    <v>       0.01646091 </v>
    <v>       0.00823045 </v>
    <v>       0.01646091 </v>
    <v>       0.01646091 </v>
[...]
       <r>    8.4024    0.5778 </r>
       <r>    8.4026    0.5767 </r>
       <r>    8.5123    0.1544 </r>
       <r>    8.5125    0.1537 </r>
       <r>    8.5125    0.1537 </r>
       <r>    8.5127    0.1531 </r>
       <r>    9.0556   -0.0000 </r>
       <r>    9.0557   -0.0000 </r>
       <r>    9.0875   -0.0000 </r>
       <r>    9.0876   -0.0000 </r>
       <r>    9.0877   -0.0000 </r>
       <r>    9.0878   -0.0000 </r>
       <r>    9.2619   -0.0000 </r>
       <r>    9.2621   -0.0000 </r>
       <r>   10.0277   -0.0000 </r>
       <r>   10.0283   -0.0000 </r>
       <r>   10.0882   -0.0000 </r>
       <r>   10.0883   -0.0000 </r>
       <r>   10.0888   -0.0000 </r>
       <r>   10.0889   -0.0000 </r>
       <r>   10.1872   -0.0000 </r>
       <r>   10.1877   -0.0000 </r>
       <r>   11.4802   -0.0000 </r>
       <r>   11.4803   -0.0000 </r>
       <r>   11.6956   -0.0000 </r>
       <r>   11.6956   -0.0000 </r>
       <r>   11.6957   -0.0000 </r>
       <r>   11.6957   -0.0000 </r>
       <r>   11.9679   -0.0000 </r>
       <r>   11.9679   -0.0000 </r>
       <r>   12.5927    0.0000 </r>
       <r>   12.5930    0.0000 </r>
       <r>   12.6488    0.0000 </r>
       <r>   12.6491    0.0000 </r>
       <r>   12.6491    0.0000 </r>
       <r>   12.6494    0.0000 </r>
       <r>   13.0149    0.0000 </r>
       <r>   13.0153    0.0000 </r>
       <r>   13.5948    0.0000 </r>
       <r>   13.5951    0.0000 </r>
       <r>   14.1998    0.0000 </r>
       <r>   14.1999    0.0000 </r>
       <r>   14.2000    0.0000 </r>
       <r>   14.2001    0.0000 </r>
       <r>   14.3197    0.0000 </r>
       <r>   14.3197    0.0000 </r>
       <r>   16.9813    0.0000 </r>
       <r>   16.9826    0.0000 </r>
       <r>   17.0449    0.0000 </r>
       <r>   17.0459    0.0000 </r>
       <r>   17.1529    0.0000 </r>
       <r>   17.1537    0.0000 </r>
       <r>   17.1537    0.0000 </r>
       <r>   17.1551    0.0000 </r>
       <r>   17.5745    0.0000 </r>
       <r>   17.5746    0.0000 </r>
       <r>   17.5750    0.0000 </r>
       <r>   17.5750    0.0000 </r>
       <r>   17.9487    0.0000 </r>
       <r>   17.9492    0.0000 </r>
       <r>   18.0335    0.0000 </r>
       <r>   18.0342    0.0000 </r>
       <r>   18.5745    0.0000 </r>
       <r>   18.5749    0.0000 </r>
       <r>   18.6051    0.0000 </r>
       <r>   18.6056    0.0000 </r>
       <r>   18.9790    0.0000 </r>
       <r>   18.9790    0.0000 </r>
       <r>   18.9796    0.0000 </r>
       <r>   18.9796    0.0000 </r>
      </set>
     </set>
    </set>
   </array>
  </eigenvalues>
  <separator name="orbital magnetization" >
   <v name="MAGDIPOLOUT">      0.00000000      0.00000000      0.00000000</v>
  </separator>
  <dos>
   <i name="efermi">      8.42083806 </i>
   <total>
    <array>
     <dimension dim="1">gridpoints</dimension>
     <dimension dim="2">spin</dimension>
     <field>energy</field>
     <field>total</field>
     <field>integrated</field>
     <set>
      <set comment="spin 1">
       <r>   -51.6877     0.0000     0.0000 </r>
       <r>   -51.4339     0.0000     0.0000 </r>
       <r>   -51.1800     0.0000     0.0000 </r>
       <r>   -50.9261     0.0000     0.0000 </r>
       <r>   -50.6722     0.0000     0.0000 </r>
       <r>   -50.4183     0.0000     0.0000 </r>
       <r>   -50.1644     0.0000     0.0000 </r>
       <r>   -49.9105    -0.0000    -0.0000 </r>
       <r>   -49.6566    -0.0000    -0.0000 </r>
       <r>   -49.4028    -0.0000    -0.0000 </r>
       <r>   -49.1489    -0.0000    -0.0000 </r>
       <r>   -48.8950    -0.0002    -0.0000 </r>
       <r>   -48.6411    -0.1505    -0.0383 </r>
       <r>   -48.3872    -1.5823    -0.4400 </r>
       <r>   -48.1333    42.1195    10.2536 </r>
       <r>   -47.8794    24.4702    16.4662 </r>
       <r>   -47.6256    -1.8036    16.0083 </r>
       <r>   -47.3717    -0.0328    16.0000 </r>
       <r>   -47.1178    -0.0000    16.0000 </r>
       <r>   -46.8639    -0.0000    16.0000 </r>
       <r>   -46.6100     0.0000    16.0000 </r>
       <r>   -46.3561     0.0000    16.0000 </r>
       <r>   -46.1022     0.0000    16.0000 </r>
       <r>   -45.8483     0.0000    16.0000 </r>
       <r>   -45.5945     0.0000    16.0000 </r>
       <r>   -45.3406     0.0000    16.0000 </r>
       <r>   -45.0867     0.0000    16.0000 </r>
       <r>   -44.8328     0.0000    16.0000 </r>
       <r>   -44.5789     0.0000    16.0000 </r>
       <r>   -44.3250     0.0000    16.0000 </r>
       <r>   -44.0711     0.0000    16.0000 </r>
       <r>   -43.8173     0.0000    16.0000 </r>
       <r>   -43.5634     0.0000    16.0000 </r>
       <r>   -43.3095     0.0000    16.0000 </r>
       <r>   -43.0556     0.0000    16.0000 </r>
       <r>   -42.8017     0.0000    16.0000 </r>
       <r>   -42.5478     0.0000    16.0000 </r>
       <r>   -42.2939     0.0000    16.0000 </r>
       <r>   -42.0400     0.0000    16.0000 </r>
       <r>   -41.7862     0.0000    16.0000 </r>
       <r>   -41.5323     0.0000    16.0000 </r>
       <r>   -41.2784     0.0000    16.0000 </r>
       <r>   -41.0245     0.0000    16.0000 </r>
       <r>   -40.7706     0.0000    16.0000 </r>
       <r>   -40.5167     0.0000    16.0000 </r>
       <r>   -40.2628     0.0000    16.0000 </r>
       <r>   -40.0090     0.0000    16.0000 </r>
       <r>   -39.7551     0.0000    16.0000 </r>
       <r>   -39.5012     0.0000    16.0000 </r>
       <r>   -39.2473     0.0000    16.0000 </r>
       <r>   -38.9934     0.0000    16.0000 </r>
       <r>   -38.7395     0.0000    16.0000 </r>
       <r>   -38.4856     0.0000    16.0000 </r>
       <r>   -38.2318     0.0000    16.0000 </r>
       <r>   -37.9779     0.0000    16.0000 </r>
       <r>   -37.7240     0.0000    16.0000 </r>
       <r>   -37.4701     0.0000    16.0000 </r>
       <r>   -37.2162     0.0000    16.0000 </r>
       <r>   -36.9623     0.0000    16.0000 </r>
       <r>   -36.7084     0.0000    16.0000 </r>
       <r>   -36.4545     0.0000    16.0000 </r>
       <r>   -36.2007     0.0000    16.0000 </r>
       <r>   -35.9468     0.0000    16.0000 </r>
       <r>   -35.6929     0.0000    16.0000 </r>
       <r>   -35.4390     0.0000    16.0000 </r>
       <r>   -35.1851     0.0000    16.0000 </r>
       <r>   -34.9312     0.0000    16.0000 </r>
       <r>   -34.6773     0.0000    16.0000 </r>
       <r>   -34.4235     0.0000    16.0000 </r>
       <r>   -34.1696     0.0000    16.0000 </r>
       <r>   -33.9157     0.0000    16.0000 </r>
       <r>   -33.6618     0.0000    16.0000 </r>
       <r>   -33.4079     0.0000    16.0000 </r>
       <r>   -33.1540     0.0000    16.0000 </r>
       <r>   -32.9001     0.0000    16.0000 </r>
       <r>   -32.6462     0.0000    16.0000 </r>
       <r>   -32.3924     0.0000    16.0000 </r>
       <r>   -32.1385     0.0000    16.0000 </r>
       <r>   -31.8846     0.0000    16.0000 </r>
       <r>   -31.6307     0.0000    16.0000 </r>
       <r>   -31.3768     0.0000    16.0000 </r>
       <r>   -31.1229     0.0000    16.0000 </r>
       <r>   -30.8690     0.0000    16.0000 </r>
       <r>   -30.6152     0.0000    16.0000 </r>
       <r>   -30.3613     0.0000    16.0000 </r>
       <r>   -30.1074     0.0000    16.0000 </r>
       <r>   -29.8535     0.0000    16.0000 </r>
       <r>   -29.5996     0.0000    16.0000 </r>
       <r>   -29.3457     0.0000    16.0000 </r>
       <r>   -29.0918     0.0000    16.0000 </r>
       <r>   -28.8379     0.0000    16.0000 </r>
       <r>   -28.5841     0.0000    16.0000 </r>
       <r>   -28.3302     0.0000    16.0000 </r>
       <r>   -28.0763     0.0000    16.0000 </r>
       <r>   -27.8224     0.0000    16.0000 </r>
       <r>   -27.5685     0.0000    16.0000 </r>
       <r>   -27.3146     0.0000    16.0000 </r>
       <r>   -27.0607     0.0000    16.0000 </r>
       <r>   -26.8069     0.0000    16.0000 </r>
       <r>   -26.5530     0.0000    16.0000 </r>
       <r>   -26.2991    -0.0000    16.0000 </r>
       <r>   -26.0452    -0.0000    16.0000 </r>
       <r>   -25.7913    -0.0000    16.0000 </r>
       <r>   -25.5374    -0.0000    16.0000 </r>
       <r>   -25.2835    -0.0006    15.9999 </r>
       <r>   -25.0297    -0.3709    15.9057 </r>
       <r>   -24.7758    -2.0181    15.3933 </r>
       <r>   -24.5219    79.8539    35.6672 </r>
       <r>   -24.2680    77.1625    55.2577 </r>
       <r>   -24.0141    35.2274    64.2014 </r>
       <r>   -23.7602    -0.5857    64.0527 </r>
       <r>   -23.5063    -0.2073    64.0001 </r>
       <r>   -23.2524    -0.0004    64.0000 </r>
       <r>   -22.9986    -0.0000    64.0000 </r>
       <r>   -22.7447    -0.0000    64.0000 </r>
       <r>   -22.4908     0.0000    64.0000 </r>
       <r>   -22.2369     0.0000    64.0000 </r>
       <r>   -21.9830     0.0000    64.0000 </r>
       <r>   -21.7291     0.0000    64.0000 </r>
       <r>   -21.4752     0.0000    64.0000 </r>
       <r>   -21.2214     0.0000    64.0000 </r>
       <r>   -20.9675     0.0000    64.0000 </r>
       <r>   -20.7136     0.0000    64.0000 </r>
       <r>   -20.4597     0.0000    64.0000 </r>
       <r>   -20.2058     0.0000    64.0000 </r>
       <r>   -19.9519     0.0000    64.0000 </r>
       <r>   -19.6980     0.0000    64.0000 </r>
       <r>   -19.4441     0.0000    64.0000 </r>
       <r>   -19.1903     0.0000    64.0000 </r>
       <r>   -18.9364     0.0000    64.0000 </r>
       <r>   -18.6825     0.0000    64.0000 </r>
       <r>   -18.4286     0.0000    64.0000 </r>
       <r>   -18.1747     0.0000    64.0000 </r>
       <r>   -17.9208     0.0000    64.0000 </r>
       <r>   -17.6669     0.0000    64.0000 </r>
       <r>   -17.4131     0.0000    64.0000 </r>
       <r>   -17.1592     0.0000    64.0000 </r>
       <r>   -16.9053     0.0000    64.0000 </r>
       <r>   -16.6514     0.0000    64.0000 </r>
       <r>   -16.3975     0.0000    64.0000 </r>
       <r>   -16.1436     0.0000    64.0000 </r>
       <r>   -15.8897     0.0000    64.0000 </r>
       <r>   -15.6358     0.0000    64.0000 </r>
       <r>   -15.3820     0.0000    64.0000 </r>
       <r>   -15.1281     0.0000    64.0000 </r>
       <r>   -14.8742     0.0000    64.0000 </r>
       <r>   -14.6203     0.0000    64.0000 </r>
       <r>   -14.3664     0.0000    64.0000 </r>
       <r>   -14.1125     0.0000    64.0000 </r>
       <r>   -13.8586     0.0000    64.0000 </r>
       <r>   -13.6048     0.0000    64.0000 </r>
       <r>   -13.3509     0.0000    64.0000 </r>
       <r>   -13.0970     0.0000    64.0000 </r>
       <r>   -12.8431     0.0000    64.0000 </r>
       <r>   -12.5892     0.0000    64.0000 </r>
       <r>   -12.3353     0.0000    64.0000 </r>
       <r>   -12.0814     0.0000    64.0000 </r>
       <r>   -11.8275     0.0000    64.0000 </r>
       <r>   -11.5737     0.0000    64.0000 </r>
       <r>   -11.3198     0.0000    64.0000 </r>
       <r>   -11.0659     0.0000    64.0000 </r>
       <r>   -10.8120     0.0000    64.0000 </r>
       <r>   -10.5581     0.0000    64.0000 </r>
       <r>   -10.3042     0.0000    64.0000 </r>
       <r>   -10.0503     0.0000    64.0000 </r>
       <r>    -9.7965     0.0000    64.0000 </r>
       <r>    -9.5426     0.0000    64.0000 </r>
       <r>    -9.2887     0.0000    64.0000 </r>
       <r>    -9.0348     0.0000    64.0000 </r>
       <r>    -8.7809     0.0000    64.0000 </r>
       <r>    -8.5270     0.0000    64.0000 </r>
       <r>    -8.2731     0.0000    64.0000 </r>
       <r>    -8.0193     0.0000    64.0000 </r>
       <r>    -7.7654     0.0000    64.0000 </r>
       <r>    -7.5115     0.0000    64.0000 </r>
       <r>    -7.2576     0.0000    64.0000 </r>
       <r>    -7.0037     0.0000    64.0000 </r>
       <r>    -6.7498     0.0000    64.0000 </r>
       <r>    -6.4959     0.0000    64.0000 </r>
       <r>    -6.2420     0.0000    64.0000 </r>
       <r>    -5.9882     0.0000    64.0000 </r>
       <r>    -5.7343     0.0000    64.0000 </r>
       <r>    -5.4804     0.0000    64.0000 </r>
       <r>    -5.2265     0.0000    64.0000 </r>
       <r>    -4.9726     0.0000    64.0000 </r>
       <r>    -4.7187     0.0000    64.0000 </r>
       <r>    -4.4648     0.0000    64.0000 </r>
       <r>    -4.2110     0.0000    64.0000 </r>
       <r>    -3.9571     0.0000    64.0000 </r>
       <r>    -3.7032     0.0000    64.0000 </r>
       <r>    -3.4493     0.0000    64.0000 </r>
       <r>    -3.1954     0.0000    64.0000 </r>
       <r>    -2.9415     0.0000    64.0000 </r>
       <r>    -2.6876     0.0000    64.0000 </r>
       <r>    -2.4337    -0.0000    64.0000 </r>
       <r>    -2.1799    -0.0000    64.0000 </r>
       <r>    -1.9260    -0.0000    64.0000 </r>
       <r>    -1.6721    -0.0000    64.0000 </r>
       <r>    -1.4182    -0.0000    64.0000 </r>
       <r>    -1.1643    -0.0007    63.9998 </r>
       <r>    -0.9104    -0.0138    63.9963 </r>
       <r>    -0.6565     0.2099    64.0496 </r>
       <r>    -0.4027     0.8504    64.2655 </r>
       <r>    -0.1488     1.2769    64.5897 </r>
       <r>     0.1051     1.5889    64.9931 </r>
       <r>     0.3590     2.0513    65.5139 </r>
       <r>     0.6129     2.2771    66.0920 </r>
       <r>     0.8668     3.0373    66.8632 </r>
       <r>     1.1207     2.9912    67.6226 </r>
       <r>     1.3746     2.9810    68.3794 </r>
       <r>     1.6284     3.2686    69.2093 </r>
       <r>     1.8823     3.0628    69.9869 </r>
       <r>     2.1362     3.0934    70.7723 </r>
       <r>     2.3901     3.5917    71.6842 </r>
       <r>     2.6440     3.1044    72.4723 </r>
       <r>     2.8979     3.3697    73.3279 </r>
       <r>     3.1518     4.0235    74.3494 </r>
       <r>     3.4056     4.4430    75.4774 </r>
       <r>     3.6595     4.0643    76.5093 </r>
       <r>     3.9134     4.2554    77.5896 </r>
       <r>     4.1673     3.8198    78.5594 </r>
       <r>     4.4212     3.7758    79.5180 </r>
       <r>     4.6751     3.9639    80.5244 </r>
       <r>     4.9290     5.6245    81.9524 </r>
       <r>     5.1829     5.3323    83.3062 </r>
       <r>     5.4367     5.5476    84.7147 </r>
       <r>     5.6906     7.4487    86.6058 </r>
       <r>     5.9445     8.3931    88.7367 </r>
       <r>     6.1984    10.4217    91.3826 </r>
       <r>     6.4523    12.0222    94.4349 </r>
       <r>     6.7062    14.1932    98.0384 </r>
       <r>     6.9601    17.6886   102.5293 </r>
       <r>     7.2139     9.6808   104.9871 </r>
       <r>     7.4678     6.6344   106.6715 </r>
       <r>     7.7217    10.6007   109.3629 </r>
       <r>     7.9756    14.4846   113.0403 </r>
       <r>     8.2295    18.5045   117.7384 </r>
       <r>     8.4834    15.2798   121.6177 </r>
       <r>     8.7373    11.9499   124.6516 </r>
       <r>     8.9911     9.9799   127.1854 </r>
       <r>     9.2450    11.2378   130.0385 </r>
       <r>     9.4989    13.7350   133.5257 </r>
       <r>     9.7528    16.7016   137.7660 </r>
       <r>    10.0067    18.8331   142.5474 </r>
       <r>    10.2606    25.3635   148.9869 </r>
       <r>    10.5145    26.8973   155.8157 </r>
       <r>    10.7684    20.9881   161.1443 </r>
       <r>    11.0222    13.1269   164.4771 </r>
       <r>    11.2761     9.1448   166.7988 </r>
       <r>    11.5300     8.3833   168.9273 </r>
       <r>    11.7839     8.4391   171.0698 </r>
       <r>    12.0378    10.0773   173.6283 </r>
       <r>    12.2917    15.5854   177.5853 </r>
       <r>    12.5456    16.9453   181.8874 </r>
       <r>    12.7994     9.6748   184.3437 </r>
       <r>    13.0533     6.9447   186.1069 </r>
       <r>    13.3072     7.1257   187.9160 </r>
       <r>    13.5611     7.4176   189.7992 </r>
       <r>    13.8150     7.2852   191.6489 </r>
       <r>    14.0689     9.6330   194.0945 </r>
       <r>    14.3228    10.9912   196.8850 </r>
       <r>    14.5767    12.1196   199.9621 </r>
       <r>    14.8305    10.1872   202.5485 </r>
       <r>    15.0844     9.3167   204.9138 </r>
       <r>    15.3383    11.6684   207.8763 </r>
       <r>    15.5922    10.4793   210.5368 </r>
       <r>    15.8461     8.4245   212.6757 </r>
       <r>    16.1000     9.4904   215.0852 </r>
       <r>    16.3539     8.7488   217.3064 </r>
       <r>    16.6077     9.5263   219.7250 </r>
       <r>    16.8616    10.2275   222.3216 </r>
       <r>    17.1155    10.6390   225.0227 </r>
       <r>    17.3694     9.4878   227.4315 </r>
       <r>    17.6233    10.8364   230.1827 </r>
       <r>    17.8772     9.2195   232.5234 </r>
       <r>    18.1311     8.8837   234.7789 </r>
       <r>    18.3850     9.6516   237.2293 </r>
       <r>    18.6388     8.1020   239.2863 </r>
       <r>    18.8927     7.4992   241.1902 </r>
       <r>    19.1466     8.2833   243.2933 </r>
       <r>    19.4005     8.1265   245.3565 </r>
       <r>    19.6544     9.2366   247.7015 </r>
       <r>    19.9083     9.9789   250.2350 </r>
       <r>    20.1622     9.7991   252.7229 </r>
       <r>    20.4160     6.8121   254.4524 </r>
       <r>    20.6699     4.4407   255.5798 </r>
       <r>    20.9238     1.4936   255.9591 </r>
       <r>    21.1777     0.1761   256.0038 </r>
       <r>    21.4316    -0.0139   256.0002 </r>
       <r>    21.6855    -0.0009   256.0000 </r>
       <r>    21.9394    -0.0000   256.0000 </r>
       <r>    22.1933    -0.0000   256.0000 </r>
       <r>    22.4471    -0.0000   256.0000 </r>
       <r>    22.7010     0.0000   256.0000 </r>
       <r>    22.9549     0.0000   256.0000 </r>
       <r>    23.2088     0.0000   256.0000 </r>
       <r>    23.4627     0.0000   256.0000 </r>
       <r>    23.7166     0.0000   256.0000 </r>
       <r>    23.9705     0.0000   256.0000 </r>
       <r>    24.2243     0.0000   256.0000 </r>
       <r>    24.4782     0.0000   256.0000 </r>
      </set>
     </set>
    </array>
   </total>
  </dos>
 </calculation>
 <structure name="finalpos" >
  <crystal>
   <varray name="basis" >
    <v>       5.65068177       0.00000000       0.00000000 </v>
    <v>       0.00000000       5.65068177       0.00000000 </v>
    <v>       0.00000000       0.00000000       8.12462919 </v>
   </varray>
   <i name="volume">    259.42107139 </i>
   <varray name="rec_basis" >
    <v>       0.17696980       0.00000000       0.00000000 </v>
    <v>       0.00000000       0.17696980       0.00000000 </v>
    <v>       0.00000000       0.00000000       0.12308254 </v>
   </varray>
  </crystal>
  <varray name="positions" >
   <v>       0.00000000       0.00000000       0.00000000 </v>
   <v>       0.00000000       0.00000000       0.50000000 </v>
   <v>       0.00000000       0.50000000       0.00000000 </v>
   <v>       0.00000000       0.50000000       0.50000000 </v>
   <v>       0.50000000       0.00000000       0.00000000 </v>
   <v>       0.50000000       0.00000000       0.50000000 </v>
   <v>       0.50000000       0.50000000       0.00000000 </v>
   <v>       0.50000000       0.50000000       0.50000000 </v>
   <v>       0.25000000       0.25000000       0.25000000 </v>
   <v>       0.25000000       0.25000000       0.75000000 </v>
   <v>       0.25000000       0.75000000       0.25000000 </v>
   <v>       0.25000000       0.75000000       0.75000000 </v>
   <v>       0.75000000       0.25000000       0.25000000 </v>
   <v>       0.75000000       0.25000000       0.75000000 </v>
   <v>       0.75000000       0.75000000       0.25000000 </v>
   <v>       0.75000000       0.75000000       0.75000000 </v>
   <v>       0.25000000       0.25000000       0.24815376 </v>
   <v>       0.25000000       0.25000000       0.75000000 </v>
   <v>       0.25000000       0.75000000       0.25000000 </v>
   <v>       0.25000000       0.75000000       0.75000000 </v>
   <v>       0.75000000       0.25000000       0.25000000 </v>
   <v>       0.75000000       0.25000000       0.75000000 </v>
   <v>       0.75000000       0.75000000       0.25000000 </v>
   <v>       0.75000000       0.75000000       0.75000000 </v>
  </varray>
 </structure>
</modeling>
