  32  32   0   0
  0.4555185E+02  0.9968131E-09  0.5606952E-09  0.2633609E-08  0.5000000E-15
  1.000000000000000E-004
  CAR 
 unknown system                          
      8.55842967    -59.90642561  301      0.51360661      1.00000000
    -59.906  0.0000E+00  0.0000E+00
    -59.678  0.0000E+00  0.0000E+00
    -59.450  0.0000E+00  0.0000E+00
    -59.222  0.0000E+00  0.0000E+00
    -58.994  0.0000E+00  0.0000E+00
    -58.765  0.0000E+00  0.0000E+00
    -58.537  0.0000E+00  0.0000E+00
    -58.309  0.0000E+00  0.0000E+00
    -58.081  0.0000E+00  0.0000E+00
    -57.852  0.0000E+00  0.0000E+00
    -57.624 -0.2525E-28 -0.5763E-29
    -57.396 -0.2825E-14 -0.6448E-15
    -57.168 -0.7539E-05 -0.1720E-05
    -56.940 -0.2607E+00 -0.5950E-01
    -56.711  0.8594E+01  0.1902E+01
    -56.483  0.2067E+02  0.6618E+01
    -56.255  0.4069E+02  0.1590E+02
    -56.027  0.5050E+02  0.2743E+02
    -55.799  0.2511E+01  0.2800E+02
    -55.570 -0.1224E-01  0.2800E+02
    -55.342 -0.1711E-08  0.2800E+02
    -55.114  0.0000E+00  0.2800E+02
    -54.886  0.0000E+00  0.2800E+02
    -54.657  0.0000E+00  0.2800E+02
    -54.429  0.0000E+00  0.2800E+02
    -54.201  0.0000E+00  0.2800E+02
    -53.973  0.0000E+00  0.2800E+02
    -53.745  0.0000E+00  0.2800E+02
    -53.516  0.0000E+00  0.2800E+02
    -53.288  0.0000E+00  0.2800E+02
    -53.060  0.0000E+00  0.2800E+02
    -52.832  0.0000E+00  0.2800E+02
    -52.604  0.0000E+00  0.2800E+02
    -52.375  0.0000E+00  0.2800E+02
    -52.147  0.0000E+00  0.2800E+02
    -51.919  0.0000E+00  0.2800E+02
    -51.691  0.0000E+00  0.2800E+02
    -51.462  0.0000E+00  0.2800E+02
    -51.234  0.0000E+00  0.2800E+02
    -51.006  0.0000E+00  0.2800E+02
    -50.778  0.0000E+00  0.2800E+02
    -50.550  0.0000E+00  0.2800E+02
    -50.321  0.0000E+00  0.2800E+02
    -50.093  0.0000E+00  0.2800E+02
    -49.865  0.0000E+00  0.2800E+02
    -49.637  0.0000E+00  0.2800E+02
    -49.408  0.0000E+00  0.2800E+02
    -49.180  0.0000E+00  0.2800E+02
    -48.952  0.0000E+00  0.2800E+02
    -48.724  0.0000E+00  0.2800E+02
    -48.496  0.0000E+00  0.2800E+02
    -48.267  0.0000E+00  0.2800E+02
    -48.039  0.0000E+00  0.2800E+02
    -47.811  0.0000E+00  0.2800E+02
    -47.583  0.0000E+00  0.2800E+02
    -47.355  0.0000E+00  0.2800E+02
    -47.126  0.0000E+00  0.2800E+02
    -46.898  0.0000E+00  0.2800E+02
    -46.670  0.0000E+00  0.2800E+02
    -46.442  0.0000E+00  0.2800E+02
    -46.213  0.0000E+00  0.2800E+02
    -45.985  0.0000E+00  0.2800E+02
    -45.757  0.0000E+00  0.2800E+02
    -45.529  0.0000E+00  0.2800E+02
    -45.301  0.0000E+00  0.2800E+02
    -45.072  0.0000E+00  0.2800E+02
    -44.844  0.0000E+00  0.2800E+02
    -44.616  0.0000E+00  0.2800E+02
    -44.388  0.0000E+00  0.2800E+02
    -44.160  0.0000E+00  0.2800E+02
    -43.931  0.0000E+00  0.2800E+02
    -43.703  0.0000E+00  0.2800E+02
    -43.475  0.0000E+00  0.2800E+02
    -43.247  0.0000E+00  0.2800E+02
    -43.018  0.0000E+00  0.2800E+02
    -42.790  0.0000E+00  0.2800E+02
    -42.562  0.0000E+00  0.2800E+02
    -42.334  0.0000E+00  0.2800E+02
    -42.106  0.0000E+00  0.2800E+02
    -41.877  0.0000E+00  0.2800E+02
    -41.649  0.0000E+00  0.2800E+02
    -41.421  0.0000E+00  0.2800E+02
    -41.193  0.0000E+00  0.2800E+02
    -40.964  0.0000E+00  0.2800E+02
    -40.736  0.0000E+00  0.2800E+02
    -40.508  0.0000E+00  0.2800E+02
    -40.280  0.0000E+00  0.2800E+02
    -40.052  0.0000E+00  0.2800E+02
    -39.823  0.0000E+00  0.2800E+02
    -39.595  0.0000E+00  0.2800E+02
    -39.367  0.0000E+00  0.2800E+02
    -39.139  0.0000E+00  0.2800E+02
    -38.911  0.0000E+00  0.2800E+02
    -38.682  0.0000E+00  0.2800E+02
    -38.454  0.0000E+00  0.2800E+02
    -38.226  0.0000E+00  0.2800E+02
    -37.998  0.0000E+00  0.2800E+02
    -37.769  0.0000E+00  0.2800E+02
    -37.541  0.0000E+00  0.2800E+02
    -37.313  0.0000E+00  0.2800E+02
    -37.085  0.0000E+00  0.2800E+02
    -36.857  0.0000E+00  0.2800E+02
    -36.628  0.0000E+00  0.2800E+02
    -36.400  0.0000E+00  0.2800E+02
    -36.172  0.0000E+00  0.2800E+02
    -35.944  0.0000E+00  0.2800E+02
    -35.716  0.0000E+00  0.2800E+02
    -35.487  0.0000E+00  0.2800E+02
    -35.259  0.0000E+00  0.2800E+02
    -35.031  0.0000E+00  0.2800E+02
    -34.803  0.0000E+00  0.2800E+02
    -34.574  0.0000E+00  0.2800E+02
    -34.346  0.0000E+00  0.2800E+02
    -34.118 -0.1592E-27  0.2800E+02
    -33.890 -0.1012E-13  0.2800E+02
    -33.662 -0.1665E-04  0.2800E+02
    -33.433 -0.2955E+00  0.2793E+02
    -33.205  0.8915E+01  0.2997E+02
    -32.977  0.1939E+02  0.3439E+02
    -32.749  0.7109E+02  0.5062E+02
    -32.520  0.1278E+03  0.7977E+02
    -32.292  0.1110E+03  0.1051E+03
    -32.064  0.2728E+02  0.1113E+03
    -31.836  0.2962E+01  0.1120E+03
    -31.608 -0.1539E-01  0.1120E+03
    -31.379 -0.6666E-08  0.1120E+03
    -31.151  0.0000E+00  0.1120E+03
    -30.923  0.0000E+00  0.1120E+03
    -30.695  0.0000E+00  0.1120E+03
    -30.467  0.0000E+00  0.1120E+03
    -30.238  0.0000E+00  0.1120E+03
    -30.010  0.0000E+00  0.1120E+03
    -29.782  0.0000E+00  0.1120E+03
    -29.554  0.0000E+00  0.1120E+03
    -29.325  0.0000E+00  0.1120E+03
    -29.097  0.0000E+00  0.1120E+03
    -28.869  0.0000E+00  0.1120E+03
    -28.641  0.0000E+00  0.1120E+03
    -28.413  0.0000E+00  0.1120E+03
    -28.184  0.0000E+00  0.1120E+03
    -27.956  0.0000E+00  0.1120E+03
    -27.728  0.0000E+00  0.1120E+03
    -27.500  0.0000E+00  0.1120E+03
    -27.272  0.0000E+00  0.1120E+03
    -27.043  0.0000E+00  0.1120E+03
    -26.815  0.0000E+00  0.1120E+03
    -26.587  0.0000E+00  0.1120E+03
    -26.359  0.0000E+00  0.1120E+03
    -26.130  0.0000E+00  0.1120E+03
    -25.902  0.0000E+00  0.1120E+03
    -25.674  0.0000E+00  0.1120E+03
    -25.446  0.0000E+00  0.1120E+03
    -25.218  0.0000E+00  0.1120E+03
    -24.989  0.0000E+00  0.1120E+03
    -24.761  0.0000E+00  0.1120E+03
    -24.533  0.0000E+00  0.1120E+03
    -24.305  0.0000E+00  0.1120E+03
    -24.076  0.0000E+00  0.1120E+03
    -23.848  0.0000E+00  0.1120E+03
    -23.620  0.0000E+00  0.1120E+03
    -23.392  0.0000E+00  0.1120E+03
    -23.164  0.0000E+00  0.1120E+03
    -22.935  0.0000E+00  0.1120E+03
    -22.707  0.0000E+00  0.1120E+03
    -22.479  0.0000E+00  0.1120E+03
    -22.251  0.0000E+00  0.1120E+03
    -22.023  0.0000E+00  0.1120E+03
    -21.794  0.0000E+00  0.1120E+03
    -21.566  0.0000E+00  0.1120E+03
    -21.338  0.0000E+00  0.1120E+03
    -21.110  0.0000E+00  0.1120E+03
    -20.881  0.0000E+00  0.1120E+03
    -20.653  0.0000E+00  0.1120E+03
    -20.425  0.0000E+00  0.1120E+03
    -20.197  0.0000E+00  0.1120E+03
    -19.969  0.0000E+00  0.1120E+03
    -19.740  0.0000E+00  0.1120E+03
    -19.512  0.0000E+00  0.1120E+03
    -19.284  0.0000E+00  0.1120E+03
    -19.056  0.0000E+00  0.1120E+03
    -18.828  0.0000E+00  0.1120E+03
    -18.599  0.0000E+00  0.1120E+03
    -18.371  0.0000E+00  0.1120E+03
    -18.143  0.0000E+00  0.1120E+03
    -17.915  0.0000E+00  0.1120E+03
    -17.686  0.0000E+00  0.1120E+03
    -17.458  0.0000E+00  0.1120E+03
    -17.230  0.0000E+00  0.1120E+03
    -17.002  0.0000E+00  0.1120E+03
    -16.774  0.0000E+00  0.1120E+03
    -16.545  0.0000E+00  0.1120E+03
    -16.317  0.0000E+00  0.1120E+03
    -16.089  0.0000E+00  0.1120E+03
    -15.861  0.0000E+00  0.1120E+03
    -15.632  0.0000E+00  0.1120E+03
    -15.404  0.0000E+00  0.1120E+03
    -15.176 -0.9373E-28  0.1120E+03
    -14.948 -0.7370E-14  0.1120E+03
    -14.720 -0.1474E-04  0.1120E+03
    -14.491 -0.6362E+00  0.1119E+03
    -14.263  0.3535E+02  0.1199E+03
    -14.035  0.1050E+02  0.1223E+03
    -13.807  0.4330E+02  0.1322E+03
    -13.579 -0.8734E+00  0.1320E+03
    -13.350 -0.4803E-03  0.1320E+03
    -13.122 -0.2262E-11  0.1320E+03
    -12.894  0.0000E+00  0.1320E+03
    -12.666  0.0000E+00  0.1320E+03
    -12.437  0.0000E+00  0.1320E+03
    -12.209  0.0000E+00  0.1320E+03
    -11.981  0.0000E+00  0.1320E+03
    -11.753  0.0000E+00  0.1320E+03
    -11.525  0.0000E+00  0.1320E+03
    -11.296  0.0000E+00  0.1320E+03
    -11.068  0.0000E+00  0.1320E+03
    -10.840  0.0000E+00  0.1320E+03
    -10.612  0.0000E+00  0.1320E+03
    -10.384  0.0000E+00  0.1320E+03
    -10.155  0.0000E+00  0.1320E+03
     -9.927  0.0000E+00  0.1320E+03
     -9.699 -0.2815E-37  0.1320E+03
     -9.471 -0.3341E-21  0.1320E+03
     -9.242 -0.1016E-09  0.1320E+03
     -9.014 -0.6687E-03  0.1320E+03
     -8.786  0.1011E+00  0.1320E+03
     -8.558  0.3409E+01  0.1328E+03
     -8.330  0.1318E+01  0.1331E+03
     -8.101  0.2526E+01  0.1337E+03
     -7.873  0.3151E+01  0.1344E+03
     -7.645  0.2338E+01  0.1349E+03
     -7.417  0.2431E+01  0.1355E+03
     -7.188  0.2334E+01  0.1360E+03
     -6.960  0.4332E+01  0.1370E+03
     -6.732  0.4386E+01  0.1380E+03
     -6.504  0.4554E+01  0.1390E+03
     -6.276  0.5193E+01  0.1402E+03
     -6.047  0.7464E+01  0.1419E+03
     -5.819  0.5726E+01  0.1432E+03
     -5.591  0.7299E+01  0.1449E+03
     -5.363  0.7134E+01  0.1465E+03
     -5.135  0.8459E+01  0.1485E+03
     -4.906  0.1043E+02  0.1508E+03
     -4.678  0.8455E+01  0.1528E+03
     -4.450  0.8106E+01  0.1546E+03
     -4.222  0.8558E+01  0.1566E+03
     -3.993  0.8559E+01  0.1585E+03
     -3.765  0.8663E+01  0.1605E+03
     -3.537  0.6866E+01  0.1621E+03
     -3.309  0.1026E+02  0.1644E+03
     -3.081  0.1046E+02  0.1668E+03
     -2.852  0.9945E+01  0.1691E+03
     -2.624  0.5528E+01  0.1703E+03
     -2.396  0.1438E+02  0.1736E+03
     -2.168  0.1270E+02  0.1765E+03
     -1.940  0.1149E+02  0.1791E+03
     -1.711  0.2132E+02  0.1840E+03
     -1.483  0.1621E+02  0.1877E+03
     -1.255  0.2101E+02  0.1925E+03
     -1.027  0.2370E+02  0.1979E+03
     -0.798  0.2484E+02  0.2036E+03
     -0.570  0.2121E+02  0.2084E+03
     -0.342  0.2421E+02  0.2139E+03
     -0.114  0.2913E+02  0.2206E+03
      0.114  0.3225E+02  0.2280E+03
      0.343  0.3685E+02  0.2364E+03
      0.571  0.3207E+02  0.2437E+03
      0.799  0.3996E+02  0.2528E+03
      1.027  0.3900E+02  0.2617E+03
      1.256  0.3493E+02  0.2697E+03
      1.484  0.3710E+02  0.2781E+03
      1.712  0.4113E+02  0.2875E+03
      1.940  0.3535E+02  0.2956E+03
      2.168  0.3042E+02  0.3025E+03
      2.397  0.4212E+02  0.3121E+03
      2.625  0.3805E+02  0.3208E+03
      2.853  0.3371E+02  0.3285E+03
      3.081  0.2958E+02  0.3353E+03
      3.309  0.2508E+02  0.3410E+03
      3.538  0.1996E+02  0.3456E+03
      3.766  0.2198E+02  0.3506E+03
      3.994  0.1904E+02  0.3549E+03
      4.222  0.1827E+02  0.3591E+03
      4.451  0.2416E+02  0.3646E+03
      4.679  0.2858E+02  0.3711E+03
      4.907  0.2340E+02  0.3765E+03
      5.135  0.2208E+02  0.3815E+03
      5.363  0.9326E+01  0.3836E+03
      5.592  0.1664E+01  0.3840E+03
      5.820 -0.3651E-01  0.3840E+03
      6.048 -0.8480E-06  0.3840E+03
      6.276  0.0000E+00  0.3840E+03
      6.504  0.0000E+00  0.3840E+03
      6.733  0.0000E+00  0.3840E+03
      6.961  0.0000E+00  0.3840E+03
      7.189  0.0000E+00  0.3840E+03
      7.417  0.0000E+00  0.3840E+03
      7.646  0.0000E+00  0.3840E+03
      7.874  0.0000E+00  0.3840E+03
      8.102  0.0000E+00  0.3840E+03
      8.330  0.0000E+00  0.3840E+03
      8.558  0.0000E+00  0.3840E+03
