       N       E                     dE             d eps       ncg     rms          rms(c)
DAV:   1     0.215788290161E+04    0.21579E+04   -0.11663E+05  3072   0.116E+03
DAV:   2     0.607109647590E+02   -0.20972E+04   -0.20345E+04  3264   0.351E+02
DAV:   3    -0.164365867721E+03   -0.22508E+03   -0.21877E+03  5312   0.101E+02
DAV:   4    -0.202435727711E+03   -0.38070E+02   -0.37652E+02  5184   0.327E+01
DAV:   5    -0.204880343972E+03   -0.24446E+01   -0.24443E+01  4672   0.701E+00    0.366E+01
DAV:   6    -0.249034347180E+03   -0.44154E+02   -0.29923E+02  4608   0.392E+01    0.747E+01
DAV:   7    -0.225289195986E+03    0.23745E+02   -0.90680E+02  5120   0.508E+01    0.556E+01
DAV:   8    -0.199135764124E+03    0.26153E+02   -0.50136E+02  4864   0.330E+01    0.392E+01
DAV:   9    -0.178765131005E+03    0.20371E+02   -0.12628E+02  4736   0.192E+01    0.179E+01
DAV:  10    -0.174678051038E+03    0.40871E+01   -0.23844E+01  4544   0.891E+00    0.127E+01
DAV:  11    -0.172666354701E+03    0.20117E+01   -0.82675E+00  4480   0.565E+00    0.929E+00
DAV:  12    -0.171646120962E+03    0.10202E+01   -0.63638E+00  4608   0.649E+00    0.628E+00
DAV:  13    -0.171278442134E+03    0.36768E+00   -0.39570E+00  5120   0.451E+00    0.400E+00
DAV:  14    -0.171280220174E+03   -0.17780E-02   -0.20525E+00  4608   0.341E+00    0.440E+00
DAV:  15    -0.171162529424E+03    0.11769E+00   -0.15376E+00  4608   0.286E+00    0.332E+00
DAV:  16    -0.171158908150E+03    0.36213E-02   -0.15088E+00  4608   0.188E+00    0.283E+00
DAV:  17    -0.171107403624E+03    0.51505E-01   -0.48115E-01  4608   0.167E+00    0.165E+00
DAV:  18    -0.171086414846E+03    0.20989E-01   -0.15514E-01  4608   0.121E+00    0.947E-01
DAV:  19    -0.171087381428E+03   -0.96658E-03   -0.99712E-02  4608   0.745E-01    0.893E-01
DAV:  20    -0.171082394371E+03    0.49871E-02   -0.34997E-02  4736   0.580E-01    0.468E-01
DAV:  21    -0.171081904488E+03    0.48988E-03   -0.16927E-02  4608   0.351E-01    0.243E-01
DAV:  22    -0.171082992293E+03   -0.10878E-02   -0.41102E-03  5120   0.241E-01    0.223E-01
DAV:  23    -0.171083762975E+03   -0.77068E-03   -0.42157E-03  4608   0.157E-01    0.108E-01
DAV:  24    -0.171085462851E+03   -0.16999E-02   -0.24753E-03  4544   0.150E-01    0.151E-01
DAV:  25    -0.171086120709E+03   -0.65786E-03   -0.14265E-03  4544   0.133E-01    0.681E-02
DAV:  26    -0.171087221849E+03   -0.11011E-02   -0.60744E-04  3904   0.600E-02    0.703E-02
DAV:  27    -0.171087540510E+03   -0.31866E-03   -0.35015E-04  4608   0.553E-02    0.465E-02
DAV:  28    -0.171088371303E+03   -0.83079E-03   -0.23423E-04  3904   0.397E-02    0.307E-02
DAV:  29    -0.171088603701E+03   -0.23240E-03   -0.66860E-05  3904   0.306E-02    0.234E-02
DAV:  30    -0.171089009449E+03   -0.40575E-03   -0.52516E-05  3392   0.219E-02    0.145E-02
DAV:  31    -0.171089201414E+03   -0.19197E-03   -0.32222E-05  4032   0.180E-02    0.169E-02
DAV:  32    -0.171089362294E+03   -0.16088E-03   -0.16978E-05  3456   0.132E-02    0.657E-03
DAV:  33    -0.171089511945E+03   -0.14965E-03   -0.11316E-05  3392   0.602E-03    0.376E-03
DAV:  34    -0.171089601599E+03   -0.89655E-04   -0.63554E-06  3584   0.406E-03    0.253E-03
DAV:  35    -0.171089649094E+03   -0.47495E-04   -0.36983E-06  3456   0.219E-03    0.134E-03
DAV:  36    -0.171089681285E+03   -0.32191E-04   -0.21278E-06  3520   0.136E-03    0.692E-04
DAV:  37    -0.171089697800E+03   -0.16515E-04   -0.48751E-07  3200   0.860E-04    0.563E-04
DAV:  38    -0.171089710312E+03   -0.12512E-04   -0.48028E-07  3328   0.656E-04    0.329E-04
DAV:  39    -0.171089714661E+03   -0.43492E-05   -0.15111E-07  2880   0.388E-04
   1 F= -.17108971E+03 E0= -.17109164E+03  d E =0.576579E-02
