 vasp.6.5.0 16Dec24 (build Apr 17 2025 17:55:45) complex                        
  
 executed on             LinuxIFC date 2025.06.10  15:22:21
 running   64 mpi-ranks, on    1 nodes
 distrk:  each k-point on   64 cores,    1 groups
 distr:  one band on NCORE=   1 cores,   64 groups


--------------------------------------------------------------------------------------------------------


 INCAR:
   ISTART = 0
   ICHARG = 2
   PREC = N
   LREAL = .FALSE.
   ENCUT = 520
   ALGO = N
   NELM = 500
   EDIFF = 1E-05
   IBRION = -1
   ISIF = 3
   NSW = 0
   EDIFFG = -0.01
   ISMEAR = 1
   SIGMA = 0.1
   LVHAR = .TRUE.
   LVTOT = .TRUE.

 POTCAR:    PAW_PBE Ga_d 06Jul2010                
 POTCAR:    PAW_PBE Ti_sv 26Sep2005               
 POTCAR:    PAW_PBE Al 04Jan2001                  
 -----------------------------------------------------------------------------
|                                                                             |
|           W    W    AA    RRRRR   N    N  II  N    N   GGGG   !!!           |
|           W    W   A  A   R    R  NN   N  II  NN   N  G    G  !!!           |
|           W    W  A    A  R    R  N N  N  II  N N  N  G       !!!           |
|           W WW W  AAAAAA  RRRRR   N  N N  II  N  N N  G  GGG   !            |
|           WW  WW  A    A  R   R   N   NN  II  N   NN  G    G                |
|           W    W  A    A  R    R  N    N  II  N    N   GGGG   !!!           |
|                                                                             |
|     For optimal performance we recommend to set                             |
|       NCORE = 2 up to number-of-cores-per-socket                            |
|     NCORE specifies how many cores store one orbital (NPAR=cpu/NCORE).      |
|     This setting can greatly improve the performance of VASP for DFT.       |
|     The default, NCORE=1 might be grossly inefficient on modern             |
|     multi-core architectures or massively parallel machines. Do your        |
|     own testing! More info at https://www.vasp.at/wiki/index.php/NCORE      |
|     Unfortunately you need to use the default for GW and RPA                |
|     calculations (for HF NCORE is supported but not extensively tested      |
|     yet).                                                                   |
|                                                                             |
 -----------------------------------------------------------------------------

 POTCAR:    PAW_PBE Ga_d 06Jul2010                
   SHA256 =  a60ddf36e14f00ea098d9e3914b3745f1b7105e68786148f49ae384e44b4226c Ga_d/POTCAR           
   COPYR  = (c) Copyright 06Jul2010 Georg Kresse                                                    
   COPYR  = This file is part of the software VASP. Any use, copying, and all other rights are regul
   COPYR  = If you do not have a valid VASP license, you may not use, copy or distribute this file. 
   VRHFIN =Ga: s2p1                                                                                 
   LEXCH  = PE                                                                                      
   EATOM  =  2148.8298 eV,  157.9345 Ry                                                             
                                                                                                    
   TITEL  = PAW_PBE Ga_d 06Jul2010                                                                  
   LULTRA =        F    use ultrasoft PP ?                                                          
   IUNSCR =        1    unscreen: 0-lin 1-nonlin 2-no                                               
   RPACOR =    1.700    partial core radius                                                         
   POMASS =   69.723; ZVAL   =   13.000    mass and valenz                                          
   RCORE  =    2.300    outmost cutoff radius                                                       
   RWIGS  =    2.300; RWIGS  =    1.217    wigner-seitz radius (au A)                               
   ENMAX  =  282.691; ENMIN  =  212.018 eV                                                          
   ICORE  =        3    local potential                                                             
   LCOR   =        T    correct aug charges                                                         
   LPAW   =        T    paw PP                                                                      
   EAUG   =  490.690                                                                                
   DEXC   =    0.000                                                                                
   RMAX   =    2.341    core radius for proj-oper                                                   
   RAUG   =    1.300    factor for augmentation sphere                                              
   RDEP   =    2.413    radius for radial grids                                                     
   RDEPT  =    1.856    core radius for aug-charge                                                  
                                                                                                    
   Atomic configuration                                                                             
    9 entries                                                                                       
     n  l   j            E        occ.                                                              
     1  0  0.50    -10228.7831   2.0000                                                             
     2  0  0.50     -1262.1604   2.0000                                                             
     2  1  1.50     -1098.6333   6.0000                                                             
     3  0  0.50      -148.1110   2.0000                                                             
     3  1  1.50       -98.8436   6.0000                                                             
     3  2  2.50       -19.1549  10.0000                                                             
     4  0  0.50        -8.9483   2.0000                                                             
     4  1  0.50        -2.5791   1.0000                                                             
     4  3  2.50        -2.7416   0.0000                                                             
   Description                                                                                      
     l       E           TYP  RCUT    TYP  RCUT                                                     
     2    -19.1549037     23  2.300                                                                 
     2     -5.4423304     23  2.300                                                                 
     0     -8.9483111     23  2.300                                                                 
     0     68.0291300     23  2.300                                                                 
     1     -2.5790802     23  2.100                                                                 
     1     81.6349560     23  2.300                                                                 
     3      6.8029130     23  2.300                                                                 
  local pseudopotential read in
  partial core-charges read in
  partial kinetic energy density read in
  atomic valenz-charges read in
  non local Contribution for L=           2  read in
    real space projection operators read in
  non local Contribution for L=           2  read in
    real space projection operators read in
  non local Contribution for L=           0  read in
    real space projection operators read in
  non local Contribution for L=           0  read in
    real space projection operators read in
  non local Contribution for L=           1  read in
    real space projection operators read in
  non local Contribution for L=           1  read in
    real space projection operators read in
    PAW grid and wavefunctions read in
 
   number of l-projection  operators is LMAX  =           6
   number of lm-projection operators is LMMAX =          18
 
 POTCAR:    PAW_PBE Ti_sv 26Sep2005               
   SHA256 =  4d747badb5a5ea28d858fbac70885b3f8929d6fd9e5b0dbe1ecb9878dc164da1 Ti_sv/POTCAR          
   COPYR  = (c) Copyright 26Sep2005 Georg Kresse                                                    
   COPYR  = This file is part of the software VASP. Any use, copying, and all other rights are regul
   COPYR  = If you do not have a valid VASP license, you may not use, copy or distribute this file. 
   VRHFIN =Ti: 3p4s3d                                                                               
   LEXCH  = PE                                                                                      
   EATOM  =  1588.0892 eV,  116.7213 Ry                                                             
                                                                                                    
   TITEL  = PAW_PBE Ti_sv 26Sep2005                                                                 
   LULTRA =        F    use ultrasoft PP ?                                                          
   IUNSCR =        1    unscreen: 0-lin 1-nonlin 2-no                                               
   RPACOR =    2.000    partial core radius                                                         
   POMASS =   47.880; ZVAL   =   12.000    mass and valenz                                          
   RCORE  =    2.300    outmost cutoff radius                                                       
   RWIGS  =    2.300; RWIGS  =    1.217    wigner-seitz radius (au A)                               
   ENMAX  =  274.610; ENMIN  =  205.957 eV                                                          
   ICORE  =        3    local potential                                                             
   LCOR   =        T    correct aug charges                                                         
   LPAW   =        T    paw PP                                                                      
   EAUG   =  482.848                                                                                
   RMAX   =    2.348    core radius for proj-oper                                                   
   RAUG   =    1.300    factor for augmentation sphere                                              
   RDEP   =    2.381    radius for radial grids                                                     
   RDEPT  =    1.930    core radius for aug-charge                                                  
                                                                                                    
   Atomic configuration                                                                             
    8 entries                                                                                       
     n  l   j            E        occ.                                                              
     1  0  0.50     -4865.3608   2.0000                                                             
     2  0  0.50      -533.1368   2.0000                                                             
     2  1  1.50      -440.5031   6.0000                                                             
     3  0  0.50       -59.3186   2.0000                                                             
     4  0  0.50        -3.7291   1.0000                                                             
     3  1  1.50       -35.7012   6.0000                                                             
     3  2  2.50        -1.9157   3.0000                                                             
     4  3  2.50        -1.3606   0.0000                                                             
   Description                                                                                      
     l       E           TYP  RCUT    TYP  RCUT                                                     
     0    -59.3185931     23  1.800                                                                 
     0     -3.7290822     23  2.300                                                                 
     1    -35.7012045     23  2.300                                                                 
     1     -1.3605826     23  2.300                                                                 
     2     -1.9156920     23  2.300                                                                 
     2     -0.0236318     23  2.300                                                                 
     3     -1.3605826     23  2.300                                                                 
  local pseudopotential read in
  partial core-charges read in
  partial kinetic energy density read in
  atomic valenz-charges read in
  non local Contribution for L=           0  read in
    real space projection operators read in
  non local Contribution for L=           0  read in
    real space projection operators read in
  non local Contribution for L=           1  read in
    real space projection operators read in
  non local Contribution for L=           1  read in
    real space projection operators read in
  non local Contribution for L=           2  read in
    real space projection operators read in
  non local Contribution for L=           2  read in
    real space projection operators read in
    PAW grid and wavefunctions read in
 
   number of l-projection  operators is LMAX  =           6
   number of lm-projection operators is LMMAX =          18
 
 POTCAR:    PAW_PBE Al 04Jan2001                  
   SHA256 =  17880443556af62b473fe41b62a467bd001ad55d2cabe504a3f22e34d4e9db96 Al/POTCAR             
   COPYR  = (c) Copyright 04Jan2001 Georg Kresse                                                    
   COPYR  = This file is part of the software VASP. Any use, copying, and all other rights are regul
   COPYR  = If you do not have a valid VASP license, you may not use, copy or distribute this file. 
   VRHFIN =Al: s2p1                                                                                 
   LEXCH  = PE                                                                                      
   EATOM  =    53.5387 eV,    3.9350 Ry                                                             
                                                                                                    
   TITEL  = PAW_PBE Al 04Jan2001                                                                    
   LULTRA =        F    use ultrasoft PP ?                                                          
   IUNSCR =        1    unscreen: 0-lin 1-nonlin 2-no                                               
   RPACOR =    1.500    partial core radius                                                         
   POMASS =   26.981; ZVAL   =    3.000    mass and valenz                                          
   RCORE  =    1.900    outmost cutoff radius                                                       
   RWIGS  =    2.650; RWIGS  =    1.402    wigner-seitz radius (au A)                               
   ENMAX  =  240.300; ENMIN  =  180.225 eV                                                          
   ICORE  =        2    local potential                                                             
   LCOR   =        T    correct aug charges                                                         
   LPAW   =        T    paw PP                                                                      
   EAUG   =  291.052                                                                                
   DEXC   =    0.000                                                                                
   RMAX   =    1.939    core radius for proj-oper                                                   
   RAUG   =    1.300    factor for augmentation sphere                                              
   RDEP   =    1.966    radius for radial grids                                                     
   RDEPT  =    1.856    core radius for aug-charge                                                  
                                                                                                    
   Atomic configuration                                                                             
    6 entries                                                                                       
     n  l   j            E        occ.                                                              
     1  0  0.50     -1511.1048   2.0000                                                             
     2  0  0.50      -108.1629   2.0000                                                             
     2  1  1.50       -69.6402   6.0000                                                             
     3  0  0.50        -7.7528   2.0000                                                             
     3  1  1.50        -2.7121   1.0000                                                             
     3  2  2.50        -2.7212   0.0000                                                             
   Description                                                                                      
     l       E           TYP  RCUT    TYP  RCUT                                                     
     0     -7.7528455     23  1.900                                                                 
     0     -3.3096929     23  1.900                                                                 
     1     -2.7120682     23  1.900                                                                 
     1     13.6058260     23  1.900                                                                 
     2     -2.7211652      7  1.900                                                                 
  local pseudopotential read in
  partial core-charges read in
  partial kinetic energy density read in
  atomic valenz-charges read in
  non local Contribution for L=           0  read in
    real space projection operators read in
  non local Contribution for L=           0  read in
    real space projection operators read in
  non local Contribution for L=           1  read in
    real space projection operators read in
  non local Contribution for L=           1  read in
    real space projection operators read in
    PAW grid and wavefunctions read in
 
   number of l-projection  operators is LMAX  =           4
   number of lm-projection operators is LMMAX =           8
 
 -----------------------------------------------------------------------------
|                                                                             |
|               ----> ADVICE to this user running VASP <----                  |
|                                                                             |
|     You have a (more or less) 'large supercell' and for larger cells it     |
|     might be more efficient to use real-space projection operators.         |
|     Therefore, try LREAL= Auto in the INCAR file.                           |
|     Mind: For very accurate calculation, you might also keep the            |
|     reciprocal projection scheme (i.e. LREAL=.FALSE.).                      |
|                                                                             |
 -----------------------------------------------------------------------------

  PAW_PBE Ga_d 06Jul2010                :
 energy of atom  1       EATOM=-2148.8298
 kinetic energy error for atom=    0.0026 (will be added to EATOM!!)
  PAW_PBE Ti_sv 26Sep2005               :
 energy of atom  2       EATOM=-1588.0892
 kinetic energy error for atom=    0.0042 (will be added to EATOM!!)
  PAW_PBE Al 04Jan2001                  :
 energy of atom  3       EATOM=  -53.5387
 kinetic energy error for atom=    0.0002 (will be added to EATOM!!)
 
 
 POSCAR: Generated by VASPKIT code
  positions in direct lattice
  No initial velocities read in


 exchange-correlation table for PE
   RHO(1)=    0.500       N(1)  =     2000
   RHO(2)=  100.500       N(2)  =     4000
 


--------------------------------------------------------------------------------------------------------


 ion  position               nearest neighbor table
   1  0.000  0.000  0.322-  17 2.74  21 2.74   5 2.80   5 2.80  30 2.88  26 2.88
   2  0.500  0.000  0.500-  18 2.74  22 2.74  28 2.74  32 2.74   6 2.80   6 2.80  23 2.88  19 2.88
                            25 2.88  29 2.88
   3  0.750  0.000  0.411-  19 2.72  23 2.72  26 2.72  30 2.72   7 2.80   7 2.80  32 2.86  28 2.86
                            17 2.86  21 2.86
   4  0.250  0.000  0.589-  20 2.72  24 2.72  25 2.72  29 2.72   8 2.80   8 2.80  31 2.86  27 2.86
                            18 2.86  22 2.86
   5  0.000  0.500  0.322-  17 2.74  21 2.74   1 2.80   1 2.80  30 2.87  26 2.87
   6  0.500  0.500  0.500-  18 2.74  22 2.74  28 2.74  32 2.74   2 2.80   2 2.80  23 2.87  19 2.87
                            25 2.87  29 2.87
   7  0.750  0.500  0.411-  19 2.72  23 2.72  26 2.72  30 2.72   3 2.80   3 2.80  32 2.85  28 2.85
                            17 2.85  21 2.85
   8  0.250  0.500  0.589-  20 2.72  24 2.72  25 2.72  29 2.72   4 2.80   4 2.80  31 2.85  27 2.85
                            18 2.85  22 2.85
   9  0.250  0.000  0.411-  25 2.74  29 2.74  13 2.80  13 2.80  21 2.87  17 2.87  32 2.87  28 2.87

  10  0.750  0.000  0.589-  19 2.74  23 2.74  14 2.80  14 2.80  18 2.87  22 2.87  31 2.87  27 2.87

  11  0.000  0.000  0.500-  17 2.72  21 2.72  27 2.72  31 2.72  15 2.80  15 2.80  25 2.85  29 2.85
                            23 2.85  19 2.85
  12  0.500  0.000  0.322-  28 2.72  32 2.72  16 2.80  16 2.80  26 2.85  30 2.85
  13  0.250  0.500  0.411-  25 2.73  29 2.73   9 2.80   9 2.80  21 2.86  17 2.86  32 2.86  28 2.86

  14  0.750  0.500  0.589-  19 2.73  23 2.73  10 2.80  10 2.80  18 2.86  22 2.86  31 2.86  27 2.86

  15  0.000  0.500  0.500-  17 2.71  21 2.71  27 2.71  31 2.71  11 2.80  11 2.80  25 2.84  29 2.84
                            23 2.84  19 2.84
  16  0.500  0.500  0.322-  28 2.71  32 2.71  12 2.80  12 2.80  26 2.84  30 2.84
  17  0.999  0.251  0.412-  15 2.71  11 2.72   5 2.74   1 2.74  21 2.79  21 2.81   7 2.85   3 2.86
                            13 2.86   9 2.87  25 3.16  26 3.18
  18  0.499  0.251  0.590-   6 2.74   2 2.74  22 2.79  22 2.81   8 2.85   4 2.86  14 2.86  10 2.87
                            25 3.18
  19  0.752  0.251  0.500-   7 2.72   3 2.72  14 2.73  10 2.74  23 2.79  23 2.81  15 2.84  11 2.85
                             6 2.87   2 2.88  27 3.16  28 3.18
  20  0.252  0.251  0.678-   8 2.72   4 2.72  24 2.79  24 2.81  27 3.18
  21  0.999  0.749  0.412-  15 2.71  11 2.72   5 2.74   1 2.74  17 2.79  17 2.81   7 2.85   3 2.86
                            13 2.86   9 2.87  29 3.16  30 3.18
  22  0.499  0.749  0.590-   6 2.74   2 2.74  18 2.79  18 2.81   8 2.85   4 2.86  14 2.86  10 2.87
                            29 3.18
  23  0.752  0.749  0.500-   7 2.72   3 2.72  14 2.73  10 2.74  19 2.79  19 2.81  15 2.84  11 2.85
                             6 2.87   2 2.88  31 3.16  32 3.18
  24  0.252  0.749  0.678-   8 2.72   4 2.72  20 2.79  20 2.81  31 3.18
  25  0.248  0.251  0.500-   8 2.72   4 2.72  13 2.73   9 2.74  29 2.79  29 2.81  15 2.84  11 2.85
                             6 2.87   2 2.88  17 3.16  18 3.18
  26  0.748  0.251  0.323-   7 2.72   3 2.72  30 2.79  30 2.81  16 2.84  12 2.85   5 2.87   1 2.88
                            17 3.18
  27  0.001  0.251  0.588-  15 2.71  11 2.72  31 2.79  31 2.81   8 2.85   4 2.86  14 2.86  10 2.87
                            19 3.16  20 3.18
  28  0.501  0.251  0.411-  16 2.71  12 2.72   6 2.74   2 2.74  32 2.79  32 2.81   7 2.85   3 2.86
                            13 2.86   9 2.87  19 3.18
  29  0.248  0.749  0.500-   8 2.72   4 2.72  13 2.73   9 2.74  25 2.79  25 2.81  15 2.84  11 2.85
                             6 2.87   2 2.88  21 3.16  22 3.18
  30  0.748  0.749  0.323-   7 2.72   3 2.72  26 2.79  26 2.81  16 2.84  12 2.85   5 2.87   1 2.88
                            21 3.18
  31  0.001  0.749  0.588-  15 2.71  11 2.72  27 2.79  27 2.81   8 2.85   4 2.86  14 2.86  10 2.87
                            23 3.16  24 3.18
  32  0.501  0.749  0.411-  16 2.71  12 2.72   6 2.74   2 2.74  28 2.79  28 2.81   7 2.85   3 2.86
                            13 2.86   9 2.87  23 3.18
 
  LATTYP: Found a simple monoclinic cell.
 ALAT       =     9.9681310671
 B/A-ratio  =     0.5624877854
 C/A-ratio  =     2.6420291366
 COS(beta)  =    -0.1389897551
  
  Lattice vectors:
  
 A1 = (   9.9681310671,   0.0000000000,   0.0000000000)
 A2 = (   0.0000000000,   5.6069519684,   0.0000000000)
 A3 = (  -3.6604470762,   0.0000000000,  26.0804698346)


Analysis of symmetry for initial positions (statically):
=====================================================================
 Subroutine PRICEL returns:
 Original cell was already a primitive cell.
 

 Routine SETGRP: Setting up the symmetry group for a 
 simple monoclinic supercell.


 Subroutine GETGRP returns: Found  2 space group operations
 (whereof  2 operations were pure point group operations)
 out of a pool of  4 trial point group operations.


The static configuration has the point symmetry C_1h.


Analysis of symmetry for dynamics (positions and initial velocities):
=====================================================================
 Subroutine PRICEL returns:
 Original cell was already a primitive cell.
 

 Routine SETGRP: Setting up the symmetry group for a 
 simple monoclinic supercell.


 Subroutine GETGRP returns: Found  2 space group operations
 (whereof  2 operations were pure point group operations)
 out of a pool of  4 trial point group operations.


The dynamic configuration has the point symmetry C_1h.


 Subroutine INISYM returns: Found  2 space group operations
 (whereof  2 operations are pure point group operations),
 and found     1 'primitive' translations


----------------------------------------------------------------------------------------

                                     Primitive cell                                     

  volume of cell :    1457.6592

  direct lattice vectors                    reciprocal lattice vectors
     9.968131067  0.000000000  0.000000000     0.100319708 -0.000000000  0.014080075
     0.000000000  5.606951968  0.000000000     0.000000000  0.178350021 -0.000000000
    -3.660447076  0.000000000 26.080469835     0.000000000  0.000000000  0.038342868

  length of vectors
     9.968131067  5.606951968 26.336092717     0.101302973  0.178350021  0.038342868

  position of ions in fractional coordinates (direct lattice)
     0.000000000  1.000000000  0.322347790
     0.500000000  1.000000000  0.500099927
     0.750000000  1.000000000  0.411223859
     0.250000000  1.000000000  0.588975996
     0.000000000  0.500000000  0.322347790
     0.500000000  0.500000000  0.500099927
     0.750000000  0.500000000  0.411223859
     0.250000000  0.500000000  0.588975996
     0.250000000  1.000000000  0.411223859
     0.750000000  1.000000000  0.588975996
     0.000000000  1.000000000  0.500099927
     0.500000000  1.000000000  0.322347790
     0.250000000  0.500000000  0.411223859
     0.750000000  0.500000000  0.588975996
     0.000000000  0.500000000  0.500099927
     0.500000000  0.500000000  0.322347790
     0.999437828  0.250946882  0.411760334
     0.499437828  0.250946882  0.589512471
     0.751509054  0.250946882  0.499900073
     0.251509054  0.250946882  0.677652210
     0.999437828  0.749053118  0.411760334
     0.499437828  0.749053118  0.589512471
     0.751509054  0.749053118  0.499900073
     0.251509054  0.749053118  0.677652210
     0.248490946  0.250946882  0.500299782
     0.748490946  0.250946882  0.322547644
     0.000562172  0.250946882  0.588439521
     0.500562172  0.250946882  0.410687384
     0.248490946  0.749053118  0.500299782
     0.748490946  0.749053118  0.322547644
     0.000562172  0.749053118  0.588439521
     0.500562172  0.749053118  0.410687384

  ion indices of the primitive-cell ions
   primitive index   ion index
                 1           1
                 2           2
                 3           3
                 4           4
                 5           5
                 6           6
                 7           7
                 8           8
                 9           9
                10          10
                11          11
                12          12
                13          13
                14          14
                15          15
                16          16
                17          17
                18          18
                19          19
                20          20
                21          21
                22          22
                23          23
                24          24
                25          25
                26          26
                27          27
                28          28
                29          29
                30          30
                31          31
                32          32

----------------------------------------------------------------------------------------

 
 
 KPOINTS: K-Spacing Value to Generate K-Mesh: 0.03

Automatic generation of k-mesh.
 Grid dimensions read from file:
 generate k-points for:    3    6    1

 Generating k-lattice:

  Cartesian coordinates                     Fractional coordinates (reciprocal lattice)
     0.033439903 -0.000000000  0.004693358     0.333333333  0.000000000  0.000000000
     0.000000000  0.029725003 -0.000000000     0.000000000  0.166666667 -0.000000000
     0.000000000  0.000000000  0.038342868     0.000000000  0.000000000  1.000000000

  Length of vectors
     0.033767658  0.029725003  0.038342868

  Shift w.r.t. Gamma in fractional coordinates (k-lattice)
     0.000000000  0.000000000  0.000000000

 
 Subroutine IBZKPT returns following result:
 ===========================================
 
 Found      8 irreducible k-points:
 
 Following reciprocal coordinates:
            Coordinates               Weight
  0.000000  0.000000  0.000000      1.000000
  0.333333  0.000000  0.000000      2.000000
  0.000000  0.166667  0.000000      2.000000
  0.333333  0.166667  0.000000      4.000000
  0.000000  0.333333  0.000000      2.000000
  0.333333  0.333333  0.000000      4.000000
  0.000000  0.500000  0.000000      1.000000
  0.333333  0.500000  0.000000      2.000000
 
 Following cartesian coordinates:
            Coordinates               Weight
  0.000000  0.000000  0.000000      1.000000
  0.033440  0.000000  0.004693      2.000000
  0.000000  0.029725  0.000000      2.000000
  0.033440  0.029725  0.004693      4.000000
  0.000000  0.059450  0.000000      2.000000
  0.033440  0.059450  0.004693      4.000000
  0.000000  0.089175  0.000000      1.000000
  0.033440  0.089175  0.004693      2.000000
 


--------------------------------------------------------------------------------------------------------




 Dimension of arrays:
   k-points           NKPTS =      8   k-points in BZ     NKDIM =      8   number of bands    NBANDS=    192
   number of dos      NEDOS =    301   number of ions     NIONS =     32
   non local maximal  LDIM  =      6   non local SUM 2l+1 LMDIM =     18
   total plane-waves  NPLWV = 268800
   max r-space proj   IRMAX =      1   max aug-charges    IRDMAX=   7376
   dimension x,y,z NGX =    56 NGY =   32 NGZ =  150
   dimension x,y,z NGXF=   112 NGYF=   64 NGZF=  300
   support grid    NGXF=   112 NGYF=   64 NGZF=  300
   ions per type =               2  14  16
   NGX,Y,Z   is equivalent  to a cutoff of   9.34,  9.49,  9.47 a.u.
   NGXF,Y,Z  is equivalent  to a cutoff of  18.68, 18.98, 18.94 a.u.

 SYSTEM =  unknown system                          
 POSCAR =  Generated by VASPKIT code               

 Startparameter for this run:
   NWRITE =      2    write-flag & timer
   PREC   = n         normal or accurate (medium, high low for compatibility)
   ISTART =      0    job   : 0-new  1-cont  2-samecut
   ICHARG =      2    charge: 1-file 2-atom 10-const
   ISPIN  =      1    spin polarized calculation?
   LNONCOLLINEAR =      F non collinear calculations
   LSORBIT =      F    spin-orbit coupling
   INIWAV =      1    electr: 0-lowe 1-rand  2-diag
   LASPH  =      F    aspherical Exc in radial PAW
 Electronic Relaxation 1
   ENCUT  =  520.0 eV  38.22 Ry    6.18 a.u.  18.53 10.43 48.97*2*pi/ulx,y,z
   ENINI  =  520.0     initial cutoff
   ENAUG  =  490.7 eV  augmentation charge cutoff
   NELM   =    500;   NELMIN=  2; NELMDL= -5     # of ELM steps 
   EDIFF  = 0.1E-04   stopping-criterion for ELM
   LREAL  =      F    real-space projection
   NLSPLINE    = F    spline interpolate recip. space projectors
   LCOMPAT=      F    compatible to vasp.4.4
   GGA_COMPAT  = T    GGA compatible to vasp.4.4-vasp.4.6
   LMAXPAW     = -100 max onsite density
   LMAXMIX     =    2 max onsite mixed and CHGCAR
   VOSKOWN=      0    Vosko Wilk Nusair interpolation
   ROPT   =    0.00000   0.00000   0.00000
 Ionic relaxation
   EDIFFG = -.1E-01   stopping-criterion for IOM
   NSW    =      0    number of steps for IOM
   NBLOCK =      1;   KBLOCK =      1    inner block; outer block 
   IBRION =     -1    ionic relax: 0-MD 1-quasi-New 2-CG
   NFREE  =      0    steps in history (QN), initial steepest desc. (CG)
   ISIF   =      3    stress and relaxation
   IWAVPR =     10    prediction:  0-non 1-charg 2-wave 3-comb
   ISYM   =      2    0-nonsym 1-usesym 2-fastsym
   LCORR  =      T    Harris-Foulkes like correction to forces

   POTIM  = 0.5000    time-step for ionic-motion
   TEIN   =    0.0    initial temperature
   TEBEG  =    0.0;   TEEND  =   0.0 temperature during run
   SMASS  =  -3.00    Nose mass-parameter (am)
   estimated Nose-frequenzy (Omega)   =  0.10E-29 period in steps = 0.13E+47 mass=  -0.227E-26a.u.
   SCALEE = 1.0000    scale energy and forces
   NPACO  =    256;   APACO  = 10.0  distance and # of slots for P.C.
   PSTRESS=    0.0 pullay stress

  Mass of Ions in am
   POMASS =  69.72 47.88 26.98
  Ionic Valenz
   ZVAL   =  13.00 12.00  3.00
  Atomic Wigner-Seitz radii
   RWIGS  =  -1.00 -1.00 -1.00
  virtual crystal weights 
   VCA    =   1.00  1.00  1.00
   NELECT =     242.0000    total number of electrons
   NUPDOWN=      -1.0000    fix difference up-down

 DOS related values:
   EMIN   =  10.00;   EMAX   =-10.00  energy-range for DOS
   EFERMI =   0.00;   METHOD = LEGACY      
   ISMEAR =     1;   SIGMA  =   0.10  broadening in eV -4-tet -1-fermi 0-gaus
   EFERMI_NEDOS =   21; number of points for ismear=-14 and -15

 Electronic relaxation 2 (details)
   IALGO  =     38    algorithm
   LDIAG  =      T    sub-space diagonalisation (order eigenvalues)
   LSUBROT=      F    optimize rotation matrix (better conditioning)
   TURBO    =      0    0=normal 1=particle mesh
   IRESTART =      0    0=no restart 2=restart with 2 vectors
   NREBOOT  =      0    no. of reboots
   NMIN     =      0    reboot dimension
   EREF     =   0.00    reference energy to select bands
   IMIX   =      4    mixing-type and parameters
     AMIX     =   0.40;   BMIX     =  1.00
     AMIX_MAG =   1.60;   BMIX_MAG =  1.00
     AMIN     =   0.10
     WC   =   100.;   INIMIX=   1;  MIXPRE=   1;  MAXMIX= -45

 Intra band minimization:
   WEIMIN = 0.0000     energy-eigenvalue tresh-hold
   EBREAK =  0.13E-07  absolut break condition
   DEPER  =   0.30     relativ break condition  

   TIME   =   0.40     timestep for ELM

  volume/ion in A,a.u.               =      45.55       307.40
  Fermi-wavevector in a.u.,A,eV,Ry     =   0.899763  1.700305 11.014907  0.809573
  Thomas-Fermi vector in A             =   2.022637
 
 Write flags
   LWAVE        =      T    write WAVECAR
   LDOWNSAMPLE  =      F    k-point downsampling of WAVECAR
   LCHARG       =      T    write CHGCAR
   LVTOT        =      F    write LOCPOT, total local potential
   LVHAR        =      T    write LOCPOT, Hartree potential only
   WRT_POTENTIAL=  hartree ionic  ! write potential to hdf5 file
   LELF         =      F    write electronic localiz. function (ELF)
   LORBIT       =      0    0 simple, 1 ext, 2 COOP (PROOUT), +10 PAW based schemes


 Python interface
   PLUGINS active      =      F    recompile with -DPLUGINS to activate
 
 Dipole corrections
   LMONO      =      F    monopole corrections only (constant potential shift)
   LDIPOL     =      F    correct potential (dipole corrections)
   IDIPOL     =      0    1-x, 2-y, 3-z, 4-all directions 
   EPSILON    =  1.0000000 bulk dielectric constant
   LVACPOTAV  =      F  vacuum potentials using an averaging scheme for the charge density
   VACPOTFLAT =  0.1000000 required flatness to determine vacuum potential
 
Coulomb truncation method
  LTRUNCATE          =      F  Coulomb kernel truncation to be used
  IDIMENSIONALITY    =      3  Dimensionality of cutoff (0 molecules / 2 surfaces)
  ISURFACE           =     -1  Direction of surface normal
  LCOARSEN           =      F  Coarsen the charge grid before padding, preferred

 
 Exchange correlation treatment:
   GGA     = PE    functional components
   XC_C    = 1    coefficients multiplying the functional components
   LIBXC   =     F    Libxc                    
   VOSKOWN =     0    Vosko Wilk Nusair interpolation
   LHFCALC =     F    Hartree Fock is set to
   LHFONE  =     F    Hartree Fock one center treatment
   AEXX    =    0.0000 exact exchange contribution

 Parameters of functionals:
   PE:
     No parameter
 
 Van der Waals corrections
   IVDW    =     0    specifies the selected vdW correction

 Linear response parameters
   LEPSILON=     F    determine dielectric tensor
   LRPA    =     F    only Hartree local field effects (RPA)
   LNABLA  =     F    use nabla operator in PAW spheres
   LVEL    =     F    velocity operator in full k-point grid
   CSHIFT  =0.1000    complex shift for real part using Kramers Kronig
   OMEGAMAX=  -1.0    maximum frequency
   DEG_THRESHOLD= 0.2000000E-02 threshold for treating states as degnerate
   RTIME   =   -0.100 relaxation time in fs
  (WPLASMAI=    0.000 imaginary part of plasma frequency in eV, 0.658/RTIME)
   DFIELD  = 0.0000000 0.0000000 0.0000000 field for delta impulse in time
 
  Optional k-point grid parameters
   LKPOINTS_OPT  =     F    use optional k-point grid
   KPOINTS_OPT_MODE=     1    mode for optional k-point grid
 
 Orbital magnetization related:
   ORBITALMAG=     F  switch on orbital magnetization
   LCHIMAG   =     F  perturbation theory with respect to B field
   DQ        =  0.001000  dq finite difference perturbation B field
   LLRAUG    =     F  two centre corrections for induced B field
   LBONE     =     F  B-component reconstruction in AE one-centre
   LVGVCALC  =     T  calculate vGv susceptibility
   LVGVAPPL  =     F  apply vGv susceptibility instead of pGv for G=0

 Random number generation:
   RANDOM_GENERATOR = DEFAULT
   PCG_SEED         = not used


--------------------------------------------------------------------------------------------------------


 Static calculation
 charge density and potential will be updated during run
 non-spin polarized calculation
 Variant of blocked Davidson
 Davidson routine will perform the subspace rotation
 perform sub-space diagonalisation
    after iterative eigenvector-optimisation
 modified Broyden-mixing scheme, WC =      100.0
 initial mixing is a Kerker type mixing with AMIX =  0.4000 and BMIX =      1.0000
 Hartree-type preconditioning will be used
 using additional bands           71
 reciprocal scheme for non local part
 use partial core corrections
 calculate Harris-corrections to forces 
   (improved forces if not selfconsistent)
 use gradient corrections 
 use of overlap-Matrix (Vanderbilt PP)
 Methfessel and Paxton  Order N= 1 SIGMA  =   0.10


--------------------------------------------------------------------------------------------------------


  energy-cutoff  :      520.00
  volume of cell :     1457.66
      direct lattice vectors                 reciprocal lattice vectors
     9.968131067  0.000000000  0.000000000     0.100319708 -0.000000000  0.014080075
     0.000000000  5.606951968  0.000000000     0.000000000  0.178350021 -0.000000000
    -3.660447076  0.000000000 26.080469835     0.000000000  0.000000000  0.038342868

  length of vectors
     9.968131067  5.606951968 26.336092717     0.101302973  0.178350021  0.038342868


 
 k-points in units of 2pi/SCALE and weight: K-Spacing Value to Generate K-Mesh: 0.03
   0.00000000  0.00000000  0.00000000       0.056
   0.03343990  0.00000000  0.00469336       0.111
   0.00000000  0.02972500  0.00000000       0.111
   0.03343990  0.02972500  0.00469336       0.222
   0.00000000  0.05945001  0.00000000       0.111
   0.03343990  0.05945001  0.00469336       0.222
   0.00000000  0.08917501  0.00000000       0.056
   0.03343990  0.08917501  0.00469336       0.111
 
 k-points in reciprocal lattice and weights: K-Spacing Value to Generate K-Mesh: 0.03
   0.00000000  0.00000000  0.00000000       0.056
   0.33333333  0.00000000  0.00000000       0.111
   0.00000000  0.16666667  0.00000000       0.111
   0.33333333  0.16666667  0.00000000       0.222
   0.00000000  0.33333333  0.00000000       0.111
   0.33333333  0.33333333  0.00000000       0.222
   0.00000000  0.50000000  0.00000000       0.056
   0.33333333  0.50000000  0.00000000       0.111
 
 position of ions in fractional coordinates (direct lattice) 
   0.00000000  0.00000000  0.32234779
   0.50000000  0.00000000  0.50009993
   0.75000000  0.00000000  0.41122386
   0.25000000  0.00000000  0.58897600
   0.00000000  0.50000000  0.32234779
   0.50000000  0.50000000  0.50009993
   0.75000000  0.50000000  0.41122386
   0.25000000  0.50000000  0.58897600
   0.25000000  0.00000000  0.41122386
   0.75000000  0.00000000  0.58897600
   0.00000000  0.00000000  0.50009993
   0.50000000  0.00000000  0.32234779
   0.25000000  0.50000000  0.41122386
   0.75000000  0.50000000  0.58897600
   0.00000000  0.50000000  0.50009993
   0.50000000  0.50000000  0.32234779
   0.99943783  0.25094688  0.41176033
   0.49943783  0.25094688  0.58951247
   0.75150905  0.25094688  0.49990007
   0.25150905  0.25094688  0.67765221
   0.99943783  0.74905312  0.41176033
   0.49943783  0.74905312  0.58951247
   0.75150905  0.74905312  0.49990007
   0.25150905  0.74905312  0.67765221
   0.24849095  0.25094688  0.50029978
   0.74849095  0.25094688  0.32254764
   0.00056217  0.25094688  0.58843952
   0.50056217  0.25094688  0.41068738
   0.24849095  0.74905312  0.50029978
   0.74849095  0.74905312  0.32254764
   0.00056217  0.74905312  0.58843952
   0.50056217  0.74905312  0.41068738
 
 position of ions in cartesian coordinates  (Angst):
  -1.17993702  0.00000000  8.40698181
   3.15347622  0.00000000 13.04284107
   5.97083513  0.00000000 10.72491144
   0.33611730  0.00000000 15.36077069
  -1.17993702  2.80347598  8.40698181
   3.15347622  2.80347598 13.04284107
   5.97083513  2.80347598 10.72491144
   0.33611730  2.80347598 15.36077069
   0.98676960  0.00000000 10.72491144
   5.32018284  0.00000000 15.36077069
  -1.83058932  0.00000000 13.04284107
   3.80412851  0.00000000  8.40698181
   0.98676960  2.80347598 10.72491144
   5.32018284  2.80347598 15.36077069
  -1.83058932  2.80347598 13.04284107
   3.80412851  2.80347598  8.40698181
   8.45530036  1.40704711 10.73890296
   2.82058253  1.40704711 15.37476221
   5.66128298  1.40704711 13.03762877
   0.02656516  1.40704711 17.67348802
   8.45530036  4.19990485 10.73890296
   2.82058253  4.19990485 15.37476221
   5.66128298  4.19990485 13.03762877
   0.02656516  4.19990485 17.67348802
   0.64566945  1.40704711 13.04805336
   6.28038728  1.40704711  8.41219411
  -2.14834792  1.40704711 15.34677917
   3.48636990  1.40704711 10.71091992
   0.64566945  4.19990485 13.04805336
   6.28038728  4.19990485  8.41219411
  -2.14834792  4.19990485 15.34677917
   3.48636990  4.19990485 10.71091992
 


--------------------------------------------------------------------------------------------------------


 k-point     1 :   0.0000 0.0000 0.0000  plane waves:   39301
 k-point     2 :   0.3333 0.0000 0.0000  plane waves:   39296
 k-point     3 :   0.0000 0.1667 0.0000  plane waves:   39271
 k-point     4 :   0.3333 0.1667 0.0000  plane waves:   39275
 k-point     5 :   0.0000 0.3333 0.0000  plane waves:   39241
 k-point     6 :   0.3333 0.3333 0.0000  plane waves:   39207
 k-point     7 :   0.0000 0.5000 0.0000  plane waves:   39164
 k-point     8 :   0.3333 0.5000 0.0000  plane waves:   39206

 maximum and minimum number of plane-waves per node :     39301    39164

 maximum number of plane-waves:     39301
 maximum index in each direction: 
   IXMAX=   18   IYMAX=   10   IZMAX=   48
   IXMIN=  -18   IYMIN=  -10   IZMIN=  -48


 serial   3D FFT for wavefunctions
 parallel 3D FFT for charge:
    minimum data exchange during FFTs selected (reduces bandwidth)


 total amount of memory used by VASP MPI-rank0   217580. kBytes
=======================================================================

   base                                    :      30000. kBytes
   nonl-proj                               :     156180. kBytes
   fftplans                                :       2367. kBytes
   grid                                    :      13250. kBytes
   one-center                              :        497. kBytes
   wavefun                                 :      15286. kBytes
 
     INWAV:  cpu time      0.0000: real time      0.0000
 Broyden mixing: mesh for mixing (old mesh)
   NGX = 37   NGY = 21   NGZ = 97
  (NGX  =112   NGY  = 64   NGZ  =300)
  gives a total of  75369 points

 initial charge density was supplied:
 charge density of overlapping atoms calculated
 number of electron     242.0000000 magnetization 
 keeping initial charge density in first step


--------------------------------------------------------------------------------------------------------


 Maximum index for augmentation-charges          444 (set IRDMAX)


--------------------------------------------------------------------------------------------------------


 First call to EWALD:  gamma=   0.156
 Maximum number of real-space cells   3x   5x   1
 Maximum number of reciprocal cells   2x   2x   6

    FEWALD:  cpu time      0.0016: real time      0.0016


--------------------------------------- Ionic step        1  -------------------------------------------




--------------------------------------- Iteration      1(   1)  ---------------------------------------


    POTLOK:  cpu time      0.0355: real time      0.0355
    SETDIJ:  cpu time      0.0036: real time      0.0036
     EDDAV:  cpu time      5.3769: real time      5.3774
       DOS:  cpu time      0.0004: real time      0.0004
    --------------------------------------------
      LOOP:  cpu time      5.4164: real time      5.4169

 eigenvalue-minimisations  :  3072
 total energy-change (2. order) : 0.2157883E+04  (-0.1166268E+05)
 number of electron     242.0000000 magnetization 
 augmentation part      242.0000000 magnetization 

 Free energy of the ion-electron system (eV)
  ---------------------------------------------------
  alpha Z        PSCENC =       224.08465733
  Ewald energy   TEWEN  =     68226.41498574
  -Hartree energ DENC   =    -91720.67112303
  -exchange      EXHF   =         0.00000000
  -V(xc)+E(xc)   XCENC  =       528.65327968
  PAW double counting   =     21969.42663437   -21851.07168476
  entropy T*S    EENTRO =        -0.00435238
  eigenvalues    EBANDS =     -2606.40904471
  atomic energy  EATOM  =     27387.45954937
  Solvation  Ediel_sol  =         0.00000000
  ---------------------------------------------------
  free energy    TOTEN  =      2157.88290161 eV

  energy without entropy =     2157.88725399  energy(sigma->0) =     2157.88435240


--------------------------------------------------------------------------------------------------------




--------------------------------------- Iteration      1(   2)  ---------------------------------------


     EDDAV:  cpu time      5.6687: real time      5.6694
       DOS:  cpu time      0.0004: real time      0.0003
    --------------------------------------------
      LOOP:  cpu time      5.6691: real time      5.6698

 eigenvalue-minimisations  :  3264
 total energy-change (2. order) :-0.2097172E+04  (-0.2034506E+04)
 number of electron     242.0000000 magnetization 
 augmentation part      242.0000000 magnetization 

 Free energy of the ion-electron system (eV)
  ---------------------------------------------------
  alpha Z        PSCENC =       224.08465733
  Ewald energy   TEWEN  =     68226.41498574
  -Hartree energ DENC   =    -91720.67112303
  -exchange      EXHF   =         0.00000000
  -V(xc)+E(xc)   XCENC  =       528.65327968
  PAW double counting   =     21969.42663437   -21851.07168476
  entropy T*S    EENTRO =        -0.01360526
  eigenvalues    EBANDS =     -4703.57172868
  atomic energy  EATOM  =     27387.45954937
  Solvation  Ediel_sol  =         0.00000000
  ---------------------------------------------------
  free energy    TOTEN  =        60.71096476 eV

  energy without entropy =       60.72457002  energy(sigma->0) =       60.71549985


--------------------------------------------------------------------------------------------------------




--------------------------------------- Iteration      1(   3)  ---------------------------------------


     EDDAV:  cpu time      9.7258: real time      9.7261
       DOS:  cpu time      0.0004: real time      0.0003
    --------------------------------------------
      LOOP:  cpu time      9.7261: real time      9.7265

 eigenvalue-minimisations  :  5312
 total energy-change (2. order) :-0.2250768E+03  (-0.2187651E+03)
 number of electron     242.0000000 magnetization 
 augmentation part      242.0000000 magnetization 

 Free energy of the ion-electron system (eV)
  ---------------------------------------------------
  alpha Z        PSCENC =       224.08465733
  Ewald energy   TEWEN  =     68226.41498574
  -Hartree energ DENC   =    -91720.67112303
  -exchange      EXHF   =         0.00000000
  -V(xc)+E(xc)   XCENC  =       528.65327968
  PAW double counting   =     21969.42663437   -21851.07168476
  entropy T*S    EENTRO =         0.01479516
  eigenvalues    EBANDS =     -4928.67696158
  atomic energy  EATOM  =     27387.45954937
  Solvation  Ediel_sol  =         0.00000000
  ---------------------------------------------------
  free energy    TOTEN  =      -164.36586772 eV

  energy without entropy =     -164.38066288  energy(sigma->0) =     -164.37079944


--------------------------------------------------------------------------------------------------------




--------------------------------------- Iteration      1(   4)  ---------------------------------------


     EDDAV:  cpu time      9.1685: real time      9.1688
       DOS:  cpu time      0.0004: real time      0.0004
    --------------------------------------------
      LOOP:  cpu time      9.1688: real time      9.1692

 eigenvalue-minimisations  :  5184
 total energy-change (2. order) :-0.3806986E+02  (-0.3765181E+02)
 number of electron     242.0000000 magnetization 
 augmentation part      242.0000000 magnetization 

 Free energy of the ion-electron system (eV)
  ---------------------------------------------------
  alpha Z        PSCENC =       224.08465733
  Ewald energy   TEWEN  =     68226.41498574
  -Hartree energ DENC   =    -91720.67112303
  -exchange      EXHF   =         0.00000000
  -V(xc)+E(xc)   XCENC  =       528.65327968
  PAW double counting   =     21969.42663437   -21851.07168476
  entropy T*S    EENTRO =         0.01443213
  eigenvalues    EBANDS =     -4966.74645855
  atomic energy  EATOM  =     27387.45954937
  Solvation  Ediel_sol  =         0.00000000
  ---------------------------------------------------
  free energy    TOTEN  =      -202.43572771 eV

  energy without entropy =     -202.45015985  energy(sigma->0) =     -202.44053842


--------------------------------------------------------------------------------------------------------




--------------------------------------- Iteration      1(   5)  ---------------------------------------


     EDDAV:  cpu time      8.4152: real time      8.4156
       DOS:  cpu time      0.0004: real time      0.0004
    CHARGE:  cpu time      0.0973: real time      0.0973
    MIXING:  cpu time      0.0010: real time      0.0010
    --------------------------------------------
      LOOP:  cpu time      8.5139: real time      8.5143

 eigenvalue-minimisations  :  4672
 total energy-change (2. order) :-0.2444616E+01  (-0.2444340E+01)
 number of electron     241.9999518 magnetization 
 augmentation part       64.1179413 magnetization 

 Broyden mixing:
  rms(total) = 0.36614E+01    rms(broyden)= 0.36613E+01
  rms(prec ) = 0.40731E+01
  weight for this iteration     100.00

 Free energy of the ion-electron system (eV)
  ---------------------------------------------------
  alpha Z        PSCENC =       224.08465733
  Ewald energy   TEWEN  =     68226.41498574
  -Hartree energ DENC   =    -91720.67112303
  -exchange      EXHF   =         0.00000000
  -V(xc)+E(xc)   XCENC  =       528.65327968
  PAW double counting   =     21969.42663437   -21851.07168476
  entropy T*S    EENTRO =         0.01476172
  eigenvalues    EBANDS =     -4969.19140439
  atomic energy  EATOM  =     27387.45954937
  Solvation  Ediel_sol  =         0.00000000
  ---------------------------------------------------
  free energy    TOTEN  =      -204.88034397 eV

  energy without entropy =     -204.89510569  energy(sigma->0) =     -204.88526454


--------------------------------------------------------------------------------------------------------




--------------------------------------- Iteration      1(   6)  ---------------------------------------


    POTLOK:  cpu time      0.0336: real time      0.0336
    SETDIJ:  cpu time      0.0025: real time      0.0025
     EDDAV:  cpu time      8.1499: real time      8.1506
       DOS:  cpu time      0.0004: real time      0.0004
    CHARGE:  cpu time      0.0959: real time      0.0959
    MIXING:  cpu time      0.0009: real time      0.0008
    --------------------------------------------
      LOOP:  cpu time      8.2831: real time      8.2838

 eigenvalue-minimisations  :  4608
 total energy-change (2. order) :-0.4415400E+02  (-0.2992288E+02)
 number of electron     241.9999451 magnetization 
 augmentation part       77.6308009 magnetization 

 Broyden mixing:
  rms(total) = 0.74736E+01    rms(broyden)= 0.74735E+01
  rms(prec ) = 0.99842E+01
  weight for this iteration     100.00

 eigenvalues of (default mixing * dielectric matrix)
  average eigenvalue GAMMA=   0.2806
  0.2806

 Free energy of the ion-electron system (eV)
  ---------------------------------------------------
  alpha Z        PSCENC =       224.08465733
  Ewald energy   TEWEN  =     68226.41498574
  -Hartree energ DENC   =    -91553.38510222
  -exchange      EXHF   =         0.00000000
  -V(xc)+E(xc)   XCENC  =       508.48521962
  PAW double counting   =     23455.67671659   -23343.29063429
  entropy T*S    EENTRO =        -0.00246718
  eigenvalues    EBANDS =     -5154.47727215
  atomic energy  EATOM  =     27387.45954937
  Solvation  Ediel_sol  =         0.00000000
  ---------------------------------------------------
  free energy    TOTEN  =      -249.03434718 eV

  energy without entropy =     -249.03188000  energy(sigma->0) =     -249.03352479


--------------------------------------------------------------------------------------------------------




--------------------------------------- Iteration      1(   7)  ---------------------------------------


    POTLOK:  cpu time      0.0328: real time      0.0328
    SETDIJ:  cpu time      0.0026: real time      0.0026
     EDDAV:  cpu time      9.3960: real time      9.3965
       DOS:  cpu time      0.0004: real time      0.0004
    CHARGE:  cpu time      0.0954: real time      0.0954
    MIXING:  cpu time      0.0009: real time      0.0009
    --------------------------------------------
      LOOP:  cpu time      9.5281: real time      9.5286

 eigenvalue-minimisations  :  5120
 total energy-change (2. order) : 0.2374515E+02  (-0.9067976E+02)
 number of electron     241.9999465 magnetization 
 augmentation part       74.4304676 magnetization 

 Broyden mixing:
  rms(total) = 0.55617E+01    rms(broyden)= 0.55616E+01
  rms(prec ) = 0.82939E+01
  weight for this iteration     100.00

 eigenvalues of (default mixing * dielectric matrix)
  average eigenvalue GAMMA=   0.3008
  0.4527  0.1488

 Free energy of the ion-electron system (eV)
  ---------------------------------------------------
  alpha Z        PSCENC =       224.08465733
  Ewald energy   TEWEN  =     68226.41498574
  -Hartree energ DENC   =    -91602.08134697
  -exchange      EXHF   =         0.00000000
  -V(xc)+E(xc)   XCENC  =       513.43822129
  PAW double counting   =     23778.62172313   -23661.55864200
  entropy T*S    EENTRO =        -0.00690172
  eigenvalues    EBANDS =     -5091.66144215
  atomic energy  EATOM  =     27387.45954937
  Solvation  Ediel_sol  =         0.00000000
  ---------------------------------------------------
  free energy    TOTEN  =      -225.28919599 eV

  energy without entropy =     -225.28229426  energy(sigma->0) =     -225.28689541


--------------------------------------------------------------------------------------------------------




--------------------------------------- Iteration      1(   8)  ---------------------------------------


    POTLOK:  cpu time      0.0323: real time      0.0323
    SETDIJ:  cpu time      0.0025: real time      0.0025
     EDDAV:  cpu time      8.8012: real time      8.8016
       DOS:  cpu time      0.0004: real time      0.0004
    CHARGE:  cpu time      0.0956: real time      0.0956
    MIXING:  cpu time      0.0010: real time      0.0010
    --------------------------------------------
      LOOP:  cpu time      8.9331: real time      8.9336

 eigenvalue-minimisations  :  4864
 total energy-change (2. order) : 0.2615343E+02  (-0.5013571E+02)
 number of electron     241.9999483 magnetization 
 augmentation part       70.6174601 magnetization 

 Broyden mixing:
  rms(total) = 0.39235E+01    rms(broyden)= 0.39234E+01
  rms(prec ) = 0.49052E+01
  weight for this iteration     100.00

 eigenvalues of (default mixing * dielectric matrix)
  average eigenvalue GAMMA=   0.3331
  0.6710  0.1987  0.1295

 Free energy of the ion-electron system (eV)
  ---------------------------------------------------
  alpha Z        PSCENC =       224.08465733
  Ewald energy   TEWEN  =     68226.41498574
  -Hartree energ DENC   =    -91671.57760300
  -exchange      EXHF   =         0.00000000
  -V(xc)+E(xc)   XCENC  =       517.77966795
  PAW double counting   =     24165.28275224   -24042.77772392
  entropy T*S    EENTRO =        -0.00928936
  eigenvalues    EBANDS =     -5005.79276047
  atomic energy  EATOM  =     27387.45954937
  Solvation  Ediel_sol  =         0.00000000
  ---------------------------------------------------
  free energy    TOTEN  =      -199.13576412 eV

  energy without entropy =     -199.12647476  energy(sigma->0) =     -199.13266767


--------------------------------------------------------------------------------------------------------




--------------------------------------- Iteration      1(   9)  ---------------------------------------


    POTLOK:  cpu time      0.0340: real time      0.0340
    SETDIJ:  cpu time      0.0026: real time      0.0026
     EDDAV:  cpu time      8.4663: real time      8.4664
       DOS:  cpu time      0.0004: real time      0.0004
    CHARGE:  cpu time      0.0959: real time      0.0959
    MIXING:  cpu time      0.0009: real time      0.0009
    --------------------------------------------
      LOOP:  cpu time      8.6000: real time      8.6002

 eigenvalue-minimisations  :  4736
 total energy-change (2. order) : 0.2037063E+02  (-0.1262803E+02)
 number of electron     241.9999495 magnetization 
 augmentation part       66.4881834 magnetization 

 Broyden mixing:
  rms(total) = 0.17861E+01    rms(broyden)= 0.17860E+01
  rms(prec ) = 0.21169E+01
  weight for this iteration     100.00

 eigenvalues of (default mixing * dielectric matrix)
  average eigenvalue GAMMA=   0.4179
  1.0440  0.2528  0.2528  0.1218

 Free energy of the ion-electron system (eV)
  ---------------------------------------------------
  alpha Z        PSCENC =       224.08465733
  Ewald energy   TEWEN  =     68226.41498574
  -Hartree energ DENC   =    -91831.99560778
  -exchange      EXHF   =         0.00000000
  -V(xc)+E(xc)   XCENC  =       520.19084988
  PAW double counting   =     24615.84689443   -24488.54823973
  entropy T*S    EENTRO =         0.00676653
  eigenvalues    EBANDS =     -4832.22498678
  atomic energy  EATOM  =     27387.45954937
  Solvation  Ediel_sol  =         0.00000000
  ---------------------------------------------------
  free energy    TOTEN  =      -178.76513100 eV

  energy without entropy =     -178.77189753  energy(sigma->0) =     -178.76738651


--------------------------------------------------------------------------------------------------------




--------------------------------------- Iteration      1(  10)  ---------------------------------------


    POTLOK:  cpu time      0.0326: real time      0.0326
    SETDIJ:  cpu time      0.0026: real time      0.0026
     EDDAV:  cpu time      8.0235: real time      8.0241
       DOS:  cpu time      0.0004: real time      0.0004
    CHARGE:  cpu time      0.0964: real time      0.0964
    MIXING:  cpu time      0.0011: real time      0.0011
    --------------------------------------------
      LOOP:  cpu time      8.1565: real time      8.1571

 eigenvalue-minimisations  :  4544
 total energy-change (2. order) : 0.4087080E+01  (-0.2384352E+01)
 number of electron     241.9999493 magnetization 
 augmentation part       66.9645347 magnetization 

 Broyden mixing:
  rms(total) = 0.12730E+01    rms(broyden)= 0.12730E+01
  rms(prec ) = 0.14361E+01
  weight for this iteration     100.00

 eigenvalues of (default mixing * dielectric matrix)
  average eigenvalue GAMMA=   0.4809
  1.4285  0.3276  0.3276  0.1223  0.1986

 Free energy of the ion-electron system (eV)
  ---------------------------------------------------
  alpha Z        PSCENC =       224.08465733
  Ewald energy   TEWEN  =     68226.41498574
  -Hartree energ DENC   =    -91768.68957831
  -exchange      EXHF   =         0.00000000
  -V(xc)+E(xc)   XCENC  =       518.40048628
  PAW double counting   =     25052.47700456   -24922.35621652
  entropy T*S    EENTRO =         0.00446055
  eigenvalues    EBANDS =     -4892.47340004
  atomic energy  EATOM  =     27387.45954937
  Solvation  Ediel_sol  =         0.00000000
  ---------------------------------------------------
  free energy    TOTEN  =      -174.67805104 eV

  energy without entropy =     -174.68251159  energy(sigma->0) =     -174.67953789


--------------------------------------------------------------------------------------------------------




--------------------------------------- Iteration      1(  11)  ---------------------------------------


    POTLOK:  cpu time      0.0343: real time      0.0343
    SETDIJ:  cpu time      0.0025: real time      0.0025
     EDDAV:  cpu time      8.1075: real time      8.1082
       DOS:  cpu time      0.0004: real time      0.0004
    CHARGE:  cpu time      0.1047: real time      0.1047
    MIXING:  cpu time      0.0014: real time      0.0014
    --------------------------------------------
      LOOP:  cpu time      8.2509: real time      8.2515

 eigenvalue-minimisations  :  4480
 total energy-change (2. order) : 0.2011696E+01  (-0.8267524E+00)
 number of electron     241.9999483 magnetization 
 augmentation part       67.7702637 magnetization 

 Broyden mixing:
  rms(total) = 0.92877E+00    rms(broyden)= 0.92876E+00
  rms(prec ) = 0.10971E+01
  weight for this iteration     100.00

 eigenvalues of (default mixing * dielectric matrix)
  average eigenvalue GAMMA=   0.5394
  1.7017  0.4921  0.4921  0.1216  0.2146  0.2146

 Free energy of the ion-electron system (eV)
  ---------------------------------------------------
  alpha Z        PSCENC =       224.08465733
  Ewald energy   TEWEN  =     68226.41498574
  -Hartree energ DENC   =    -91727.79368684
  -exchange      EXHF   =         0.00000000
  -V(xc)+E(xc)   XCENC  =       516.63380870
  PAW double counting   =     25403.48887502   -25270.40158692
  entropy T*S    EENTRO =         0.00676591
  eigenvalues    EBANDS =     -4932.55972302
  atomic energy  EATOM  =     27387.45954937
  Solvation  Ediel_sol  =         0.00000000
  ---------------------------------------------------
  free energy    TOTEN  =      -172.66635470 eV

  energy without entropy =     -172.67312061  energy(sigma->0) =     -172.66861001


--------------------------------------------------------------------------------------------------------




--------------------------------------- Iteration      1(  12)  ---------------------------------------


    POTLOK:  cpu time      0.0332: real time      0.0332
    SETDIJ:  cpu time      0.0025: real time      0.0025
     EDDAV:  cpu time      8.3030: real time      8.3034
       DOS:  cpu time      0.0004: real time      0.0004
    CHARGE:  cpu time      0.1061: real time      0.1061
    MIXING:  cpu time      0.0021: real time      0.0022
    --------------------------------------------
      LOOP:  cpu time      8.4474: real time      8.4478

 eigenvalue-minimisations  :  4608
 total energy-change (2. order) : 0.1020234E+01  (-0.6363820E+00)
 number of electron     241.9999478 magnetization 
 augmentation part       68.5117433 magnetization 

 Broyden mixing:
  rms(total) = 0.62755E+00    rms(broyden)= 0.62752E+00
  rms(prec ) = 0.72937E+00
  weight for this iteration     100.00

 eigenvalues of (default mixing * dielectric matrix)
  average eigenvalue GAMMA=   0.5876
  1.8571  1.0218  0.3471  0.3471  0.1217  0.2092  0.2092

 Free energy of the ion-electron system (eV)
  ---------------------------------------------------
  alpha Z        PSCENC =       224.08465733
  Ewald energy   TEWEN  =     68226.41498574
  -Hartree energ DENC   =    -91725.88833424
  -exchange      EXHF   =         0.00000000
  -V(xc)+E(xc)   XCENC  =       515.32729546
  PAW double counting   =     25819.63582170   -25679.77493150
  entropy T*S    EENTRO =         0.01086168
  eigenvalues    EBANDS =     -4938.91602649
  atomic energy  EATOM  =     27387.45954937
  Solvation  Ediel_sol  =         0.00000000
  ---------------------------------------------------
  free energy    TOTEN  =      -171.64612096 eV

  energy without entropy =     -171.65698264  energy(sigma->0) =     -171.64974152


--------------------------------------------------------------------------------------------------------




--------------------------------------- Iteration      1(  13)  ---------------------------------------


    POTLOK:  cpu time      0.0294: real time      0.0294
    SETDIJ:  cpu time      0.0024: real time      0.0024
     EDDAV:  cpu time      9.2275: real time      9.2281
       DOS:  cpu time      0.0004: real time      0.0004
    CHARGE:  cpu time      0.0973: real time      0.0973
    MIXING:  cpu time      0.0016: real time      0.0016
    --------------------------------------------
      LOOP:  cpu time      9.3585: real time      9.3591

 eigenvalue-minimisations  :  5120
 total energy-change (2. order) : 0.3676788E+00  (-0.3957009E+00)
 number of electron     241.9999478 magnetization 
 augmentation part       68.6708851 magnetization 

 Broyden mixing:
  rms(total) = 0.40027E+00    rms(broyden)= 0.40024E+00
  rms(prec ) = 0.46953E+00
  weight for this iteration     100.00

 eigenvalues of (default mixing * dielectric matrix)
  average eigenvalue GAMMA=   0.6214
  1.6149  1.6149  0.4912  0.4912  0.1216  0.2211  0.2211  0.1952

 Free energy of the ion-electron system (eV)
  ---------------------------------------------------
  alpha Z        PSCENC =       224.08465733
  Ewald energy   TEWEN  =     68226.41498574
  -Hartree energ DENC   =    -91750.78689109
  -exchange      EXHF   =         0.00000000
  -V(xc)+E(xc)   XCENC  =       515.05444014
  PAW double counting   =     26013.67687466   -25868.57449303
  entropy T*S    EENTRO =         0.00903144
  eigenvalues    EBANDS =     -4918.61659669
  atomic energy  EATOM  =     27387.45954937
  Solvation  Ediel_sol  =         0.00000000
  ---------------------------------------------------
  free energy    TOTEN  =      -171.27844213 eV

  energy without entropy =     -171.28747357  energy(sigma->0) =     -171.28145261


--------------------------------------------------------------------------------------------------------




--------------------------------------- Iteration      1(  14)  ---------------------------------------


    POTLOK:  cpu time      0.0319: real time      0.0319
    SETDIJ:  cpu time      0.0025: real time      0.0025
     EDDAV:  cpu time      8.4024: real time      8.4025
       DOS:  cpu time      0.0004: real time      0.0004
    CHARGE:  cpu time      0.0973: real time      0.0973
    MIXING:  cpu time      0.0017: real time      0.0017
    --------------------------------------------
      LOOP:  cpu time      8.5362: real time      8.5362

 eigenvalue-minimisations  :  4608
 total energy-change (2. order) :-0.1778040E-02  (-0.2052528E+00)
 number of electron     241.9999479 magnetization 
 augmentation part       68.6541531 magnetization 

 Broyden mixing:
  rms(total) = 0.43999E+00    rms(broyden)= 0.43997E+00
  rms(prec ) = 0.51647E+00
  weight for this iteration     100.00

 eigenvalues of (default mixing * dielectric matrix)
  average eigenvalue GAMMA=   0.6238
  1.7543  1.7543  0.6508  0.4488  0.1216  0.2630  0.2205  0.2205  0.1802

 Free energy of the ion-electron system (eV)
  ---------------------------------------------------
  alpha Z        PSCENC =       224.08465733
  Ewald energy   TEWEN  =     68226.41498574
  -Hartree energ DENC   =    -91758.62891155
  -exchange      EXHF   =         0.00000000
  -V(xc)+E(xc)   XCENC  =       515.26069607
  PAW double counting   =     26075.72695593   -25924.98891356
  entropy T*S    EENTRO =         0.01471642
  eigenvalues    EBANDS =     -4916.62395592
  atomic energy  EATOM  =     27387.45954937
  Solvation  Ediel_sol  =         0.00000000
  ---------------------------------------------------
  free energy    TOTEN  =      -171.28022017 eV

  energy without entropy =     -171.29493659  energy(sigma->0) =     -171.28512565


--------------------------------------------------------------------------------------------------------




--------------------------------------- Iteration      1(  15)  ---------------------------------------


    POTLOK:  cpu time      0.0338: real time      0.0342
    SETDIJ:  cpu time      0.0025: real time      0.0025
     EDDAV:  cpu time      8.3853: real time      8.3860
       DOS:  cpu time      0.0004: real time      0.0004
    CHARGE:  cpu time      0.0977: real time      0.0977
    MIXING:  cpu time      0.0018: real time      0.0018
    --------------------------------------------
      LOOP:  cpu time      8.5214: real time      8.5225

 eigenvalue-minimisations  :  4608
 total energy-change (2. order) : 0.1176908E+00  (-0.1537602E+00)
 number of electron     241.9999479 magnetization 
 augmentation part       68.5972942 magnetization 

 Broyden mixing:
  rms(total) = 0.33206E+00    rms(broyden)= 0.33204E+00
  rms(prec ) = 0.39920E+00
  weight for this iteration     100.00

 eigenvalues of (default mixing * dielectric matrix)
  average eigenvalue GAMMA=   0.6234
  1.8544  1.8544  0.7568  0.4608  0.3883  0.1216  0.2223  0.2223  0.1918  0.1611

 Free energy of the ion-electron system (eV)
  ---------------------------------------------------
  alpha Z        PSCENC =       224.08465733
  Ewald energy   TEWEN  =     68226.41498574
  -Hartree energ DENC   =    -91768.33224240
  -exchange      EXHF   =         0.00000000
  -V(xc)+E(xc)   XCENC  =       515.46391255
  PAW double counting   =     26088.47307056   -25934.95882315
  entropy T*S    EENTRO =         0.00156248
  eigenvalues    EBANDS =     -4909.76920190
  atomic energy  EATOM  =     27387.45954937
  Solvation  Ediel_sol  =         0.00000000
  ---------------------------------------------------
  free energy    TOTEN  =      -171.16252942 eV

  energy without entropy =     -171.16409190  energy(sigma->0) =     -171.16305025


--------------------------------------------------------------------------------------------------------




--------------------------------------- Iteration      1(  16)  ---------------------------------------


    POTLOK:  cpu time      0.0332: real time      0.0332
    SETDIJ:  cpu time      0.0025: real time      0.0025
     EDDAV:  cpu time      8.3469: real time      8.3475
       DOS:  cpu time      0.0004: real time      0.0004
    CHARGE:  cpu time      0.1030: real time      0.1030
    MIXING:  cpu time      0.0022: real time      0.0022
    --------------------------------------------
      LOOP:  cpu time      8.4881: real time      8.4887

 eigenvalue-minimisations  :  4608
 total energy-change (2. order) : 0.3621274E-02  (-0.1508757E+00)
 number of electron     241.9999480 magnetization 
 augmentation part       68.4866949 magnetization 

 Broyden mixing:
  rms(total) = 0.28306E+00    rms(broyden)= 0.28304E+00
  rms(prec ) = 0.32958E+00
  weight for this iteration     100.00

 eigenvalues of (default mixing * dielectric matrix)
  average eigenvalue GAMMA=   0.6573
  1.9961  1.9961  1.1215  0.5606  0.4352  0.2274  0.2274  0.2302  0.1858  0.1217
  0.1286

 Free energy of the ion-electron system (eV)
  ---------------------------------------------------
  alpha Z        PSCENC =       224.08465733
  Ewald energy   TEWEN  =     68226.41498574
  -Hartree energ DENC   =    -91779.34832291
  -exchange      EXHF   =         0.00000000
  -V(xc)+E(xc)   XCENC  =       515.65806452
  PAW double counting   =     26089.69082509   -25934.39757640
  entropy T*S    EENTRO =         0.00902452
  eigenvalues    EBANDS =     -4900.73011541
  atomic energy  EATOM  =     27387.45954937
  Solvation  Ediel_sol  =         0.00000000
  ---------------------------------------------------
  free energy    TOTEN  =      -171.15890815 eV

  energy without entropy =     -171.16793267  energy(sigma->0) =     -171.16191632


--------------------------------------------------------------------------------------------------------




--------------------------------------- Iteration      1(  17)  ---------------------------------------


    POTLOK:  cpu time      0.0335: real time      0.0335
    SETDIJ:  cpu time      0.0025: real time      0.0025
     EDDAV:  cpu time      8.2668: real time      8.2695
       DOS:  cpu time      0.0004: real time      0.0004
    CHARGE:  cpu time      0.0964: real time      0.0964
    MIXING:  cpu time      0.0018: real time      0.0018
    --------------------------------------------
      LOOP:  cpu time      8.4013: real time      8.4040

 eigenvalue-minimisations  :  4608
 total energy-change (2. order) : 0.5150453E-01  (-0.4811511E-01)
 number of electron     241.9999479 magnetization 
 augmentation part       68.4408420 magnetization 

 Broyden mixing:
  rms(total) = 0.16548E+00    rms(broyden)= 0.16547E+00
  rms(prec ) = 0.19291E+00
  weight for this iteration     100.00

 eigenvalues of (default mixing * dielectric matrix)
  average eigenvalue GAMMA=   0.6475
  2.0910  2.0910  1.1817  0.5594  0.4390  0.3140  0.2251  0.2251  0.2043  0.1868
  0.1216  0.1313

 Free energy of the ion-electron system (eV)
  ---------------------------------------------------
  alpha Z        PSCENC =       224.08465733
  Ewald energy   TEWEN  =     68226.41498574
  -Hartree energ DENC   =    -91794.21115681
  -exchange      EXHF   =         0.00000000
  -V(xc)+E(xc)   XCENC  =       515.89495704
  PAW double counting   =     26097.95196215   -25939.97567262
  entropy T*S    EENTRO =         0.00653235
  eigenvalues    EBANDS =     -4888.73321817
  atomic energy  EATOM  =     27387.45954937
  Solvation  Ediel_sol  =         0.00000000
  ---------------------------------------------------
  free energy    TOTEN  =      -171.10740362 eV

  energy without entropy =     -171.11393597  energy(sigma->0) =     -171.10958107


--------------------------------------------------------------------------------------------------------




--------------------------------------- Iteration      1(  18)  ---------------------------------------


    POTLOK:  cpu time      0.0341: real time      0.0341
    SETDIJ:  cpu time      0.0025: real time      0.0025
     EDDAV:  cpu time      8.2276: real time      8.2277
       DOS:  cpu time      0.0004: real time      0.0004
    CHARGE:  cpu time      0.0963: real time      0.0963
    MIXING:  cpu time      0.0020: real time      0.0020
    --------------------------------------------
      LOOP:  cpu time      8.3629: real time      8.3630

 eigenvalue-minimisations  :  4608
 total energy-change (2. order) : 0.2098878E-01  (-0.1551364E-01)
 number of electron     241.9999480 magnetization 
 augmentation part       68.4190641 magnetization 

 Broyden mixing:
  rms(total) = 0.94668E-01    rms(broyden)= 0.94657E-01
  rms(prec ) = 0.11233E+00
  weight for this iteration     100.00

 eigenvalues of (default mixing * dielectric matrix)
  average eigenvalue GAMMA=   0.6786
  2.2425  2.2425  0.9932  0.9932  0.6043  0.4379  0.2273  0.2273  0.2308  0.1216
  0.1951  0.1782  0.1283

 Free energy of the ion-electron system (eV)
  ---------------------------------------------------
  alpha Z        PSCENC =       224.08465733
  Ewald energy   TEWEN  =     68226.41498574
  -Hartree energ DENC   =    -91800.35612523
  -exchange      EXHF   =         0.00000000
  -V(xc)+E(xc)   XCENC  =       515.98280441
  PAW double counting   =     26102.01911674   -25942.88616053
  entropy T*S    EENTRO =         0.00587127
  eigenvalues    EBANDS =     -4883.81111394
  atomic energy  EATOM  =     27387.45954937
  Solvation  Ediel_sol  =         0.00000000
  ---------------------------------------------------
  free energy    TOTEN  =      -171.08641485 eV

  energy without entropy =     -171.09228611  energy(sigma->0) =     -171.08837194


--------------------------------------------------------------------------------------------------------




--------------------------------------- Iteration      1(  19)  ---------------------------------------


    POTLOK:  cpu time      0.0335: real time      0.0335
    SETDIJ:  cpu time      0.0029: real time      0.0029
     EDDAV:  cpu time      8.2210: real time      8.2216
       DOS:  cpu time      0.0004: real time      0.0004
    CHARGE:  cpu time      0.0956: real time      0.0956
    MIXING:  cpu time      0.0018: real time      0.0018
    --------------------------------------------
      LOOP:  cpu time      8.3552: real time      8.3559

 eigenvalue-minimisations  :  4608
 total energy-change (2. order) :-0.9665816E-03  (-0.9971156E-02)
 number of electron     241.9999480 magnetization 
 augmentation part       68.4294088 magnetization 

 Broyden mixing:
  rms(total) = 0.89280E-01    rms(broyden)= 0.89274E-01
  rms(prec ) = 0.11586E+00
  weight for this iteration     100.00

 eigenvalues of (default mixing * dielectric matrix)
  average eigenvalue GAMMA=   0.6657
  2.2875  2.2875  1.0805  0.9569  0.6495  0.4419  0.3131  0.2448  0.2217  0.2217
  0.1217  0.1902  0.1739  0.1286

 Free energy of the ion-electron system (eV)
  ---------------------------------------------------
  alpha Z        PSCENC =       224.08465733
[...]
     73      -5.7798      2.00000
     74      -5.3618      2.00000
     75      -5.2311      2.00000
     76      -5.0043      2.00000
     77      -4.8336      2.00000
     78      -4.6480      2.00000
     79      -4.5234      2.00000
     80      -4.3721      2.00000
     81      -4.0400      2.00000
     82      -3.9373      2.00000
     83      -3.9277      2.00000
     84      -3.1988      2.00000
     85      -2.8187      2.00000
     86      -2.4172      2.00000
     87      -2.3390      2.00000
     88      -2.2248      2.00000
     89      -2.1966      2.00000
     90      -1.8872      2.00000
     91      -1.7741      2.00000
     92      -1.6199      2.00000
     93      -1.5684      2.00000
     94      -1.2293      2.00000
     95      -1.1763      2.00000
     96      -1.0277      2.00000
     97      -1.0042      2.00000
     98      -0.9021      2.00000
     99      -0.8495      2.00000
    100      -0.7300      2.00000
    101      -0.6094      2.00000
    102      -0.6068      2.00000
    103      -0.5096      2.00000
    104      -0.2765      2.00000
    105      -0.1960      2.00000
    106      -0.1801      2.00000
    107      -0.1606      2.00000
    108      -0.1286      2.00000
    109      -0.0392      2.00000
    110      -0.0008      2.00000
    111       0.0647      2.00000
    112       0.0722      2.00000
    113       0.0968      2.00000
    114       0.2053      2.00012
    115       0.2457      2.00100
    116       0.3025      2.01100
    117       0.3846      2.06973
    118       0.4015      2.06715
    119       0.4645      1.73076
    120       0.4830      1.49264
    121       0.6550     -0.06249
    122       0.6857     -0.03528
    123       0.6996     -0.02445
    124       0.7106     -0.01762
    125       0.7564     -0.00317
    126       0.7649     -0.00218
    127       0.8705     -0.00001
    128       0.8797     -0.00000
    129       0.9445     -0.00000
    130       0.9795     -0.00000
    131       1.0124     -0.00000
    132       1.0525     -0.00000
    133       1.0735     -0.00000
    134       1.1127     -0.00000
    135       1.1503     -0.00000
    136       1.1743     -0.00000
    137       1.2235     -0.00000
    138       1.3246     -0.00000
    139       1.3456     -0.00000
    140       1.3865     -0.00000
    141       1.4113     -0.00000
    142       1.4689     -0.00000
    143       1.4872     -0.00000
    144       1.5256     -0.00000
    145       1.5810     -0.00000
    146       1.5853     -0.00000
    147       1.6769     -0.00000
    148       1.7478     -0.00000
    149       1.7791     -0.00000
    150       1.7841     -0.00000
    151       1.8463     -0.00000
    152       1.8744     -0.00000
    153       1.8963     -0.00000
    154       1.9329     -0.00000
    155       2.0065     -0.00000
    156       2.0451     -0.00000
    157       2.1670     -0.00000
    158       2.2090     -0.00000
    159       2.3180     -0.00000
    160       2.3433     -0.00000
    161       2.4441     -0.00000
    162       2.5118     -0.00000
    163       2.6091      0.00000
    164       2.7256      0.00000
    165       2.8699      0.00000
    166       2.9149      0.00000
    167       2.9756      0.00000
    168       3.0216      0.00000
    169       3.1433      0.00000
    170       3.2268      0.00000
    171       3.3433      0.00000
    172       3.4848      0.00000
    173       3.6694      0.00000
    174       3.7658      0.00000
    175       3.8039      0.00000
    176       3.9272      0.00000
    177       4.1270      0.00000
    178       4.1314      0.00000
    179       4.2497      0.00000
    180       4.3144      0.00000
    181       4.5844      0.00000
    182       4.5855      0.00000
    183       4.7546      0.00000
    184       4.8815      0.00000
    185       4.9576      0.00000
    186       5.0625      0.00000
    187       5.0902      0.00000
    188       5.2050      0.00000
    189       5.2686      0.00000
    190       5.2812      0.00000
    191       5.3896      0.00000
    192       5.4464      0.00000


--------------------------------------------------------------------------------------------------------


 soft charge-density along one line, spin component           1
         0         1         2         3         4         5         6         7         8         9
 total charge-density along one line
 
 pseudopotential strength for first ion, spin component:           1
-16.751   0.015   0.000   0.000   0.000   3.688  -0.008  -0.000
  0.015 -16.761   0.000  -0.000  -0.000  -0.008   3.693  -0.000
  0.000   0.000 -16.802   0.008   0.030  -0.000  -0.000   3.717
  0.000  -0.000   0.008 -16.815   0.012  -0.000   0.000  -0.005
  0.000  -0.000   0.030   0.012 -16.757  -0.000   0.000  -0.018
  3.688  -0.008  -0.000  -0.000  -0.000   3.091   0.004   0.000
 -0.008   3.693  -0.000   0.000   0.000   0.004   3.089   0.000
 -0.000  -0.000   3.717  -0.005  -0.018   0.000   0.000   3.078
 -0.000   0.000  -0.005   3.726  -0.007   0.000   0.000   0.002
 -0.000   0.000  -0.018  -0.007   3.692  -0.000  -0.000   0.009
 -0.000   0.000   0.000   0.000   0.002   0.000  -0.000   0.004
  0.000  -0.000   0.008  -0.006   0.008  -0.000   0.000  -0.004
  0.001   0.001   0.000   0.000   0.000  -0.003   0.005  -0.000
  0.000   0.000   0.001   0.000   0.000  -0.000  -0.000   0.006
  0.000   0.000  -0.000   0.001   0.001  -0.000  -0.000   0.002
 -0.003   0.003  -0.000  -0.000  -0.000   0.008  -0.016   0.000
 -0.000  -0.000   0.004  -0.003  -0.000   0.000  -0.000  -0.019
 -0.000  -0.000   0.002   0.003  -0.004   0.000   0.000  -0.005
 total augmentation occupancy for first ion, spin component:           1
  2.000  -0.001  -0.000   0.000  -0.000   0.006  -0.001  -0.000   0.000  -0.000   0.000   0.000  -0.005  -0.000   0.000   0.000
 -0.001   2.001   0.000   0.000  -0.000  -0.001   0.009   0.000   0.000  -0.000   0.000  -0.000   0.009   0.000   0.000  -0.001
 -0.000   0.000   2.001  -0.000   0.001  -0.000   0.000   0.008  -0.001   0.003   0.001  -0.001   0.000   0.016   0.004  -0.000
  0.000   0.000  -0.000   1.999   0.000   0.000   0.000  -0.001   0.003   0.000  -0.002   0.000   0.000  -0.003   0.009  -0.000
 -0.000  -0.000   0.001   0.000   2.002  -0.000  -0.000   0.003   0.000   0.009  -0.003  -0.001  -0.000  -0.000  -0.006   0.000
  0.006  -0.001  -0.000   0.000  -0.000   0.018   0.003  -0.000   0.000   0.000   0.000  -0.000  -0.056  -0.000  -0.000  -0.001
 -0.001   0.009   0.000   0.000  -0.000   0.003   0.017   0.000   0.000  -0.000  -0.000   0.000   0.045   0.000   0.000   0.001
 -0.000   0.000   0.008  -0.001   0.003  -0.000   0.000   0.014   0.000  -0.001  -0.021   0.000   0.000   0.067   0.028   0.000
  0.000   0.000  -0.001   0.003   0.000   0.000   0.000   0.000   0.008  -0.002   0.008  -0.000   0.000  -0.015   0.033   0.000
 -0.000  -0.000   0.003   0.000   0.009   0.000  -0.000  -0.001  -0.002   0.009  -0.043   0.000  -0.000  -0.001  -0.028  -0.000
  0.000   0.000   0.001  -0.002  -0.003   0.000  -0.000  -0.021   0.008  -0.043   1.664   0.016  -0.000  -0.074   0.046   0.000
  0.000  -0.000  -0.001   0.000  -0.001  -0.000   0.000   0.000  -0.000   0.000   0.016   0.001   0.000   0.009  -0.005   0.000
 -0.005   0.009   0.000   0.000  -0.000  -0.056   0.045   0.000   0.000  -0.000  -0.000   0.000   1.013   0.000   0.000   0.013
 -0.000   0.000   0.016  -0.003  -0.000  -0.000   0.000   0.067  -0.015  -0.001  -0.074   0.009   0.000   0.652   0.041   0.000
  0.000   0.000   0.004   0.009  -0.006  -0.000   0.000   0.028   0.033  -0.028   0.046  -0.005   0.000   0.041   0.642   0.000
  0.000  -0.001  -0.000  -0.000   0.000  -0.001   0.001   0.000   0.000  -0.000   0.000   0.000   0.013   0.000   0.000   0.000
  0.000  -0.000  -0.001   0.000  -0.000  -0.000   0.000   0.001  -0.000  -0.000   0.001   0.000   0.000   0.009   0.001   0.000
 -0.000  -0.000  -0.000  -0.001   0.000  -0.000   0.000   0.000   0.001  -0.000  -0.001  -0.000   0.000   0.001   0.008   0.000


------------------------ aborting loop because EDIFF is reached ----------------------------------------


    CHARGE:  cpu time      0.1018: real time      0.1018
    FORLOC:  cpu time      0.0028: real time      0.0028
    FORNL :  cpu time      2.5677: real time      2.5679
    STRESS:  cpu time      5.9753: real time      5.9758
    FORCOR:  cpu time      0.0274: real time      0.0274
    FORHAR:  cpu time      0.0073: real time      0.0073
    MIXING:  cpu time      0.0046: real time      0.0046
    OFIELD:  cpu time      0.0000: real time      0.0000

  FORCE on cell =-STRESS in cart. coord.  units (eV):
  Direction    XX          YY          ZZ          XY          YZ          ZX
  --------------------------------------------------------------------------------------
  Alpha Z   224.08466   224.08466   224.08466
  Ewald   78180.92559 81431.20467-91385.75455     0.00000    -0.00000   463.02142
  Hartree 85133.07856 87571.81665-80864.81806     0.00000    -0.00000   444.68349
  E(xc)   -1178.00199 -1175.04268 -1179.25995    -0.00000     0.00000     0.36158
  Local  ************************169475.61445    -0.00000    -0.00000  -916.07154
  n-local  -103.73949  -198.26038  -115.16586     0.05097    -0.29997    -8.56596
  augment  1081.75223  1125.68071  1079.68913     0.00000     0.00000     2.87805
  Kinetic  2753.20715  2898.40214  2772.36774     0.63630     0.05303     1.12124
  Fock        0.00000     0.00000     0.00000     0.00000     0.00000     0.00000
  -------------------------------------------------------------------------------------
  Total     -28.37233    -4.84055     6.75755    -0.00000     0.00000   -12.57171
  in kB     -31.18527    -5.32046     7.42752    -0.00000     0.00000   -13.81812
  external pressure =       -9.69 kB  Pullay stress =        0.00 kB


 VOLUME and BASIS-vectors are now :
 -----------------------------------------------------------------------------
  energy-cutoff  :      520.00
  volume of cell :     1457.66
      direct lattice vectors                 reciprocal lattice vectors
     9.968131067  0.000000000  0.000000000     0.100319708 -0.000000000  0.014080075
     0.000000000  5.606951968  0.000000000     0.000000000  0.178350021 -0.000000000
    -3.660447076  0.000000000 26.080469835     0.000000000  0.000000000  0.038342868

  length of vectors
     9.968131067  5.606951968 26.336092717     0.101302973  0.178350021  0.038342868


 FORCES acting on ions
    electron-ion (+dipol)            ewald-force                    non-local-force                 convergence-correction
 -----------------------------------------------------------------------------------------------
   -.911E+02 -.569E-14 0.241E+04   0.939E+02 0.651E-14 -.242E+04   -.292E+01 0.192E-15 0.626E+01   0.194E-03 0.470E-13 0.182E-03
   0.383E+01 0.455E-14 -.666E+03   -.346E+01 0.450E-13 0.667E+03   -.412E+00 -.226E-16 -.745E+00   -.363E-03 0.249E-13 0.774E-03
   0.628E+01 -.336E-15 0.858E+03   -.651E+01 0.125E-13 -.859E+03   0.357E+00 0.139E-16 0.227E+00   -.157E-03 0.103E-13 0.680E-03
   -.363E+02 -.285E-13 -.200E+04   0.358E+02 0.355E-13 0.200E+04   -.298E-01 -.104E-16 -.346E+00   0.104E-03 -.775E-13 0.387E-03
   -.898E+02 0.218E-12 0.224E+04   0.873E+02 -.141E-13 -.223E+04   0.266E+01 -.133E-15 -.432E+01   0.206E-03 0.114E-13 0.172E-03
   0.317E+01 0.939E-11 -.615E+03   -.324E+01 0.350E-13 0.615E+03   0.319E-02 -.356E-17 -.116E+00   -.332E-03 -.338E-13 0.675E-03
   0.624E+01 0.125E-11 0.858E+03   -.652E+01 -.300E-13 -.859E+03   0.986E-01 0.139E-16 0.589E+00   -.176E-03 0.140E-13 0.835E-03
   -.386E+02 0.438E-12 -.199E+04   0.382E+02 -.392E-14 0.200E+04   0.154E+00 -.213E-16 -.689E+00   0.112E-03 -.888E-13 0.362E-03
   -.232E+02 0.124E-14 0.969E+03   0.233E+02 -.200E-13 -.968E+03   0.904E-01 -.278E-16 -.113E+01   0.160E-03 0.680E-14 0.742E-03
   -.250E+02 0.216E-13 -.211E+04   0.253E+02 0.283E-14 0.211E+04   -.648E+00 0.278E-16 0.920E+00   -.886E-04 -.697E-13 0.391E-03
   0.494E+01 0.200E-13 -.620E+03   -.496E+01 0.184E-13 0.620E+03   0.339E-01 -.139E-16 -.448E+00   0.370E-03 -.268E-13 0.848E-03
   0.141E+03 0.533E-13 0.224E+04   -.137E+03 0.200E-13 -.224E+04   -.309E+01 -.971E-16 -.331E+01   -.171E-03 0.286E-13 0.272E-03
   -.236E+02 0.107E-11 0.969E+03   0.234E+02 -.350E-13 -.969E+03   0.107E+00 -.243E-16 -.832E+00   0.217E-03 -.809E-14 0.892E-03
   -.213E+02 -.477E-11 -.211E+04   0.213E+02 -.208E-13 0.211E+04   0.226E-01 0.555E-16 0.202E+01   -.119E-03 -.835E-13 0.349E-03
   0.474E+01 0.132E-12 -.618E+03   -.484E+01 0.860E-14 0.619E+03   0.119E-01 -.694E-17 -.240E+00   0.327E-03 -.506E-14 0.820E-03
   0.141E+03 -.207E-11 0.224E+04   -.138E+03 0.461E-16 -.224E+04   -.244E+01 -.971E-16 -.324E+01   -.155E-03 0.191E-13 0.289E-03
   -.101E+02 -.915E+00 0.216E+03   0.102E+02 0.137E+01 -.216E+03   0.113E+00 -.500E+00 -.110E+01   0.675E-04 -.198E-04 0.244E-03
   -.372E+01 -.980E+00 -.554E+03   0.438E+01 0.136E+01 0.553E+03   -.959E+00 -.533E+00 0.186E+01   -.129E-03 -.726E-06 0.635E-04
   0.541E+00 -.602E+00 -.158E+03   0.519E+00 0.998E+00 0.158E+03   -.107E+01 -.340E+00 -.151E+00   -.283E-04 0.195E-04 0.167E-03
   0.817E+01 0.438E+00 -.662E+03   -.752E+01 -.322E+00 0.657E+03   -.571E+00 -.104E+00 0.420E+01   0.179E-04 0.156E-05 -.109E-03
   -.101E+02 0.915E+00 0.216E+03   0.102E+02 -.137E+01 -.216E+03   0.113E+00 0.500E+00 -.110E+01   0.675E-04 0.198E-04 0.244E-03
   -.372E+01 0.980E+00 -.554E+03   0.438E+01 -.136E+01 0.553E+03   -.959E+00 0.533E+00 0.186E+01   -.129E-03 0.726E-06 0.635E-04
   0.541E+00 0.602E+00 -.158E+03   0.519E+00 -.998E+00 0.158E+03   -.107E+01 0.340E+00 -.151E+00   -.283E-04 -.195E-04 0.167E-03
   0.817E+01 -.438E+00 -.662E+03   -.752E+01 0.322E+00 0.657E+03   -.571E+00 0.104E+00 0.420E+01   0.179E-04 -.156E-05 -.109E-03
   -.252E+01 -.647E+00 -.147E+03   0.148E+01 0.103E+01 0.147E+03   0.108E+01 -.331E+00 -.224E+00   0.230E-04 0.771E-05 0.240E-03
   -.660E+01 -.501E+00 0.590E+03   0.493E+01 0.109E+01 -.588E+03   0.185E+01 -.424E+00 -.321E+01   -.606E-04 -.341E-04 0.301E-04
   0.209E+02 0.446E+00 -.546E+03   -.215E+02 -.376E+00 0.544E+03   0.318E+00 -.110E+00 0.324E+01   0.128E-03 -.349E-06 0.102E-03
   0.142E+02 -.803E+00 0.226E+03   -.144E+02 0.138E+01 -.228E+03   0.301E+00 -.632E+00 0.195E+01   -.764E-04 0.178E-05 0.184E-03
   -.252E+01 0.647E+00 -.147E+03   0.148E+01 -.103E+01 0.147E+03   0.108E+01 0.331E+00 -.224E+00   0.230E-04 -.771E-05 0.240E-03
   -.660E+01 0.501E+00 0.590E+03   0.493E+01 -.109E+01 -.588E+03   0.185E+01 0.424E+00 -.321E+01   -.606E-04 0.341E-04 0.301E-04
   0.209E+02 -.446E+00 -.546E+03   -.215E+02 0.376E+00 0.544E+03   0.318E+00 0.110E+00 0.324E+01   0.128E-03 0.349E-06 0.102E-03
   0.142E+02 0.803E+00 0.226E+03   -.144E+02 -.138E+01 -.228E+03   0.301E+00 0.632E+00 0.195E+01   -.764E-04 -.178E-05 0.184E-03
 -----------------------------------------------------------------------------------------------
   0.389E+01 0.300E-11 -.776E+01   -.112E-12 -.411E-13 0.227E-11   -.389E+01 0.111E-15 0.775E+01   0.146E-04 -.225E-12 0.105E-01
 
 
 POSITION                                       TOTAL-FORCE (eV/Angst)
 -----------------------------------------------------------------------------------
     -1.17994      0.00000      8.40698        -0.182227     -0.000000     -0.420704
      3.15348      0.00000     13.04284        -0.039381      0.000000      0.097431
      5.97084      0.00000     10.72491         0.125849     -0.000000     -0.076223
      0.33612      0.00000     15.36077        -0.551412      0.000000      0.288510
     -1.17994      2.80348      8.40698         0.096383      0.000000      0.661470
      3.15348      2.80348     13.04284        -0.074543     -0.000000     -0.068261
      5.97084      2.80348     10.72491        -0.188094      0.000000      0.217751
      0.33612      2.80348     15.36077        -0.297438     -0.000000     -0.063760
      0.98677      0.00000     10.72491         0.223514     -0.000000     -0.670023
      5.32018      0.00000     15.36077        -0.298723     -0.000000     -0.555361
     -1.83059      0.00000     13.04284         0.019311     -0.000000     -0.416701
      3.80413      0.00000      8.40698         0.597449      0.000000      0.801842
      0.98677      2.80348     10.72491        -0.079480     -0.000000     -0.610934
      5.32018      2.80348     15.36077         0.078342     -0.000000     -0.046021
     -1.83059      2.80348     13.04284        -0.089884      0.000000      0.153002
      3.80413      2.80348      8.40698         0.551208      0.000000      0.410152
      8.45530      1.40705     10.73890         0.215008     -0.042564     -0.328036
      2.82058      1.40705     15.37476        -0.301807     -0.148243      0.642693
      5.66128      1.40705     13.03763        -0.007251      0.056514      0.201695
      0.02657      1.40705     17.67349         0.083055      0.011780     -0.386544
      8.45530      4.19990     10.73890         0.215008      0.042564     -0.328036
      2.82058      4.19990     15.37476        -0.301807      0.148243      0.642693
      5.66128      4.19990     13.03763        -0.007251     -0.056514      0.201695
      0.02657      4.19990     17.67349         0.083055     -0.011780     -0.386544
      0.64567      1.40705     13.04805         0.037310      0.053946     -0.349625
      6.28039      1.40705      8.41219         0.177515      0.163569     -0.690781
     -2.14835      1.40705     15.34678        -0.258446     -0.040264      1.021654
      3.48637      1.40705     10.71092         0.109179     -0.052786      0.037859
      0.64567      4.19990     13.04805         0.037310     -0.053946     -0.349625
      6.28039      4.19990      8.41219         0.177515     -0.163569     -0.690781
     -2.14835      4.19990     15.34678        -0.258446      0.040264      1.021654
      3.48637      4.19990     10.71092         0.109179      0.052786      0.037859
 -----------------------------------------------------------------------------------
    total drift:                                0.000661      0.000000     -0.006495


--------------------------------------------------------------------------------------------------------



  FREE ENERGIE OF THE ION-ELECTRON SYSTEM (eV)
  ---------------------------------------------------
  free  energy   TOTEN  =      -171.08971466 eV

  energy  without entropy=     -171.09548045  energy(sigma->0) =     -171.09163659
 


--------------------------------------------------------------------------------------------------------


    POTLOK:  cpu time      0.0313: real time      0.0313


--------------------------------------------------------------------------------------------------------


 writing wavefunctions
     LOOP+:  cpu time    317.6373: real time    317.6578
    4ORBIT:  cpu time      0.0000: real time      0.0000

 total amount of memory used by VASP MPI-rank0   217580. kBytes
=======================================================================

   base                                    :      30000. kBytes
   nonl-proj                               :     156180. kBytes
   fftplans                                :       2367. kBytes
   grid                                    :      13250. kBytes
   one-center                              :        497. kBytes
   wavefun                                 :      15286. kBytes
 
  
  
 General timing and accounting informations for this job:
 ========================================================
  
                  Total CPU time used (sec):      325.256
                            User time (sec):      307.989
                          System time (sec):       17.267
                         Elapsed time (sec):      325.529
  
                   Maximum memory used (kb):      418640.
                   Average memory used (kb):          N/A
  
                          Minor page faults:        73604
                          Major page faults:           18
                 Voluntary context switches:          134
