  24  24   0   0
  0.1034623E+02  0.5571496E-09  0.5571496E-09  0.7999259E-09  0.1500000E-16
  1.000000000000000E-004
  CAR 
 unknown system                          
     16.43331193    -51.33511618  301      8.27000953      1.00000000
    -51.335  0.0000E+00  0.0000E+00
    -51.109  0.0000E+00  0.0000E+00
    -50.883  0.0000E+00  0.0000E+00
    -50.657  0.0000E+00  0.0000E+00
    -50.432  0.0000E+00  0.0000E+00
    -50.206  0.0000E+00  0.0000E+00
    -49.980 -0.1552E-33 -0.3507E-34
    -49.754 -0.1288E-25 -0.2910E-26
    -49.528 -0.8405E-19 -0.1899E-19
    -49.302 -0.4173E-13 -0.9427E-14
    -49.076 -0.1659E-08 -0.3748E-09
    -48.850 -0.5045E-05 -0.1140E-05
    -48.624 -0.1056E-02 -0.2396E-03
    -48.398 -0.3822E-02 -0.1103E-02
    -48.173  0.1270E+00  0.2759E-01
    -47.947  0.1025E+00  0.5074E-01
    -47.721 -0.6079E-02  0.4937E-01
    -47.495 -0.6123E-03  0.4923E-01
    -47.269 -0.2009E-05  0.4923E-01
    -47.043 -0.4645E-09  0.4923E-01
    -46.817 -0.8240E-14  0.4923E-01
    -46.591  0.0000E+00  0.4923E-01
    -46.365  0.0000E+00  0.4923E-01
    -46.140  0.0000E+00  0.4923E-01
    -45.914  0.0000E+00  0.4923E-01
    -45.688  0.0000E+00  0.4923E-01
    -45.462  0.0000E+00  0.4923E-01
    -45.236  0.0000E+00  0.4923E-01
    -45.010  0.0000E+00  0.4923E-01
    -44.784  0.0000E+00  0.4923E-01
    -44.558  0.0000E+00  0.4923E-01
    -44.332  0.0000E+00  0.4923E-01
    -44.106  0.0000E+00  0.4923E-01
    -43.881  0.0000E+00  0.4923E-01
    -43.655  0.0000E+00  0.4923E-01
    -43.429  0.0000E+00  0.4923E-01
    -43.203  0.0000E+00  0.4923E-01
    -42.977  0.0000E+00  0.4923E-01
    -42.751  0.0000E+00  0.4923E-01
    -42.525  0.0000E+00  0.4923E-01
    -42.299  0.0000E+00  0.4923E-01
    -42.073  0.0000E+00  0.4923E-01
    -41.848  0.0000E+00  0.4923E-01
    -41.622  0.0000E+00  0.4923E-01
    -41.396  0.0000E+00  0.4923E-01
    -41.170  0.0000E+00  0.4923E-01
    -40.944  0.0000E+00  0.4923E-01
    -40.718  0.0000E+00  0.4923E-01
    -40.492  0.0000E+00  0.4923E-01
    -40.266  0.0000E+00  0.4923E-01
    -40.040  0.0000E+00  0.4923E-01
    -39.814  0.0000E+00  0.4923E-01
    -39.589  0.0000E+00  0.4923E-01
    -39.363  0.0000E+00  0.4923E-01
    -39.137  0.0000E+00  0.4923E-01
    -38.911  0.0000E+00  0.4923E-01
    -38.685  0.0000E+00  0.4923E-01
    -38.459  0.0000E+00  0.4923E-01
    -38.233  0.0000E+00  0.4923E-01
    -38.007  0.0000E+00  0.4923E-01
    -37.781  0.0000E+00  0.4923E-01
    -37.556  0.0000E+00  0.4923E-01
    -37.330  0.0000E+00  0.4923E-01
    -37.104  0.0000E+00  0.4923E-01
    -36.878  0.0000E+00  0.4923E-01
    -36.652  0.0000E+00  0.4923E-01
    -36.426  0.0000E+00  0.4923E-01
    -36.200  0.0000E+00  0.4923E-01
    -35.974  0.0000E+00  0.4923E-01
    -35.748  0.0000E+00  0.4923E-01
    -35.522  0.0000E+00  0.4923E-01
    -35.297  0.0000E+00  0.4923E-01
    -35.071  0.0000E+00  0.4923E-01
    -34.845  0.0000E+00  0.4923E-01
    -34.619  0.0000E+00  0.4923E-01
    -34.393  0.0000E+00  0.4923E-01
    -34.167  0.0000E+00  0.4923E-01
    -33.941  0.0000E+00  0.4923E-01
    -33.715  0.0000E+00  0.4923E-01
    -33.489  0.0000E+00  0.4923E-01
    -33.264  0.0000E+00  0.4923E-01
    -33.038  0.0000E+00  0.4923E-01
    -32.812  0.0000E+00  0.4923E-01
    -32.586  0.0000E+00  0.4923E-01
    -32.360  0.0000E+00  0.4923E-01
    -32.134  0.0000E+00  0.4923E-01
    -31.908  0.0000E+00  0.4923E-01
    -31.682  0.0000E+00  0.4923E-01
    -31.456  0.0000E+00  0.4923E-01
    -31.230  0.0000E+00  0.4923E-01
    -31.005  0.0000E+00  0.4923E-01
    -30.779  0.0000E+00  0.4923E-01
    -30.553  0.0000E+00  0.4923E-01
    -30.327  0.0000E+00  0.4923E-01
    -30.101  0.0000E+00  0.4923E-01
    -29.875  0.0000E+00  0.4923E-01
    -29.649  0.0000E+00  0.4923E-01
    -29.423  0.0000E+00  0.4923E-01
    -29.197  0.0000E+00  0.4923E-01
    -28.972  0.0000E+00  0.4923E-01
    -28.746  0.0000E+00  0.4923E-01
    -28.520  0.0000E+00  0.4923E-01
    -28.294  0.0000E+00  0.4923E-01
    -28.068  0.0000E+00  0.4923E-01
    -27.842  0.0000E+00  0.4923E-01
    -27.616  0.0000E+00  0.4923E-01
    -27.390  0.0000E+00  0.4923E-01
    -27.164  0.0000E+00  0.4923E-01
    -26.938  0.0000E+00  0.4923E-01
    -26.713  0.0000E+00  0.4923E-01
    -26.487 -0.6908E-35  0.4923E-01
    -26.261 -0.8018E-27  0.4923E-01
    -26.035 -0.7267E-20  0.4923E-01
    -25.809 -0.5003E-14  0.4923E-01
    -25.583 -0.2756E-09  0.4923E-01
    -25.357 -0.1185E-05  0.4923E-01
    -25.131 -0.3901E-03  0.4914E-01
    -24.905 -0.7520E-02  0.4744E-01
    -24.680  0.7320E-01  0.6398E-01
    -24.454  0.3188E+00  0.1360E+00
    -24.228  0.1967E+00  0.1804E+00
    -24.002  0.7740E-01  0.1979E+00
    -23.776 -0.3700E-02  0.1971E+00
    -23.550 -0.6897E-03  0.1969E+00
    -23.324 -0.3295E-05  0.1969E+00
    -23.098 -0.1082E-08  0.1969E+00
    -22.872 -0.2678E-13  0.1969E+00
    -22.646  0.0000E+00  0.1969E+00
    -22.421  0.0000E+00  0.1969E+00
    -22.195  0.0000E+00  0.1969E+00
    -21.969  0.0000E+00  0.1969E+00
    -21.743  0.0000E+00  0.1969E+00
    -21.517  0.0000E+00  0.1969E+00
    -21.291  0.0000E+00  0.1969E+00
    -21.065  0.0000E+00  0.1969E+00
    -20.839  0.0000E+00  0.1969E+00
    -20.613  0.0000E+00  0.1969E+00
    -20.388  0.0000E+00  0.1969E+00
    -20.162  0.0000E+00  0.1969E+00
    -19.936  0.0000E+00  0.1969E+00
    -19.710  0.0000E+00  0.1969E+00
    -19.484  0.0000E+00  0.1969E+00
    -19.258  0.0000E+00  0.1969E+00
    -19.032  0.0000E+00  0.1969E+00
    -18.806  0.0000E+00  0.1969E+00
    -18.580  0.0000E+00  0.1969E+00
    -18.354  0.0000E+00  0.1969E+00
    -18.129  0.0000E+00  0.1969E+00
    -17.903  0.0000E+00  0.1969E+00
    -17.677  0.0000E+00  0.1969E+00
    -17.451  0.0000E+00  0.1969E+00
    -17.225  0.0000E+00  0.1969E+00
    -16.999  0.0000E+00  0.1969E+00
    -16.773  0.0000E+00  0.1969E+00
    -16.547  0.0000E+00  0.1969E+00
    -16.321  0.0000E+00  0.1969E+00
    -16.096  0.0000E+00  0.1969E+00
    -15.870  0.0000E+00  0.1969E+00
    -15.644  0.0000E+00  0.1969E+00
    -15.418  0.0000E+00  0.1969E+00
    -15.192  0.0000E+00  0.1969E+00
    -14.966  0.0000E+00  0.1969E+00
    -14.740  0.0000E+00  0.1969E+00
    -14.514  0.0000E+00  0.1969E+00
    -14.288  0.0000E+00  0.1969E+00
    -14.062  0.0000E+00  0.1969E+00
    -13.837  0.0000E+00  0.1969E+00
    -13.611  0.0000E+00  0.1969E+00
    -13.385  0.0000E+00  0.1969E+00
    -13.159  0.0000E+00  0.1969E+00
    -12.933  0.0000E+00  0.1969E+00
    -12.707  0.0000E+00  0.1969E+00
    -12.481  0.0000E+00  0.1969E+00
    -12.255  0.0000E+00  0.1969E+00
    -12.029  0.0000E+00  0.1969E+00
    -11.804  0.0000E+00  0.1969E+00
    -11.578  0.0000E+00  0.1969E+00
    -11.352  0.0000E+00  0.1969E+00
    -11.126  0.0000E+00  0.1969E+00
    -10.900  0.0000E+00  0.1969E+00
    -10.674  0.0000E+00  0.1969E+00
    -10.448  0.0000E+00  0.1969E+00
    -10.222  0.0000E+00  0.1969E+00
     -9.996  0.0000E+00  0.1969E+00
     -9.770  0.0000E+00  0.1969E+00
     -9.545  0.0000E+00  0.1969E+00
     -9.319  0.0000E+00  0.1969E+00
     -9.093  0.0000E+00  0.1969E+00
     -8.867  0.0000E+00  0.1969E+00
     -8.641  0.0000E+00  0.1969E+00
     -8.415  0.0000E+00  0.1969E+00
     -8.189  0.0000E+00  0.1969E+00
     -7.963  0.0000E+00  0.1969E+00
     -7.737  0.0000E+00  0.1969E+00
     -7.512  0.0000E+00  0.1969E+00
     -7.286  0.0000E+00  0.1969E+00
     -7.060  0.0000E+00  0.1969E+00
     -6.834  0.0000E+00  0.1969E+00
     -6.608  0.0000E+00  0.1969E+00
     -6.382  0.0000E+00  0.1969E+00
     -6.156  0.0000E+00  0.1969E+00
     -5.930  0.0000E+00  0.1969E+00
     -5.704  0.0000E+00  0.1969E+00
     -5.478  0.0000E+00  0.1969E+00
     -5.253  0.0000E+00  0.1969E+00
     -5.027  0.0000E+00  0.1969E+00
     -4.801  0.0000E+00  0.1969E+00
     -4.575  0.0000E+00  0.1969E+00
     -4.349  0.0000E+00  0.1969E+00
     -4.123  0.0000E+00  0.1969E+00
     -3.897  0.0000E+00  0.1969E+00
     -3.671  0.0000E+00  0.1969E+00
     -3.445  0.0000E+00  0.1969E+00
     -3.220  0.0000E+00  0.1969E+00
     -2.994  0.0000E+00  0.1969E+00
     -2.768  0.0000E+00  0.1969E+00
     -2.542  0.0000E+00  0.1969E+00
     -2.316  0.0000E+00  0.1969E+00
     -2.090  0.0000E+00  0.1969E+00
     -1.864 -0.1319E-32  0.1969E+00
     -1.638 -0.3407E-25  0.1969E+00
     -1.412 -0.6597E-19  0.1969E+00
     -1.186 -0.1075E-13  0.1969E+00
     -0.961 -0.1412E-09  0.1969E+00
     -0.735 -0.1565E-06  0.1969E+00
     -0.509 -0.1368E-04  0.1969E+00
     -0.283  0.2544E-05  0.1969E+00
     -0.057  0.1045E-02  0.1972E+00
      0.169  0.2677E-02  0.1978E+00
      0.395  0.3639E-02  0.1986E+00
      0.621  0.4578E-02  0.1996E+00
      0.847  0.5189E-02  0.2008E+00
      1.072  0.6530E-02  0.2023E+00
      1.298  0.6562E-02  0.2037E+00
      1.524  0.9118E-02  0.2058E+00
      1.750  0.8894E-02  0.2078E+00
      1.976  0.9153E-02  0.2099E+00
      2.202  0.1023E-01  0.2122E+00
      2.428  0.9433E-02  0.2143E+00
      2.654  0.9156E-02  0.2164E+00
      2.880  0.1124E-01  0.2189E+00
      3.106  0.1009E-01  0.2212E+00
      3.331  0.1012E-01  0.2235E+00
      3.557  0.1189E-01  0.2262E+00
      3.783  0.1425E-01  0.2294E+00
      4.009  0.1499E-01  0.2328E+00
      4.235  0.1299E-01  0.2357E+00
      4.461  0.1572E-01  0.2393E+00
      4.687  0.1364E-01  0.2424E+00
      4.913  0.1336E-01  0.2454E+00
      5.139  0.1551E-01  0.2489E+00
      5.364  0.2029E-01  0.2535E+00
      5.590  0.1763E-01  0.2574E+00
      5.816  0.1800E-01  0.2615E+00
      6.042  0.2547E-01  0.2673E+00
      6.268  0.3591E-01  0.2754E+00
      6.494  0.3922E-01  0.2842E+00
      6.720  0.3963E-01  0.2932E+00
      6.946  0.5103E-01  0.3047E+00
      7.172  0.5787E-01  0.3178E+00
      7.398  0.3714E-01  0.3262E+00
      7.623  0.4405E-01  0.3361E+00
      7.849  0.5698E-01  0.3490E+00
      8.075  0.7748E-01  0.3665E+00
      8.301  0.8948E-01  0.3867E+00
      8.527  0.1540E+00  0.4215E+00
      8.753  0.3385E+00  0.4980E+00
      8.979  0.3214E+00  0.5706E+00
      9.205  0.1961E+00  0.6149E+00
      9.431  0.5798E-01  0.6280E+00
      9.656  0.2752E-01  0.6342E+00
      9.882  0.5095E-01  0.6457E+00
     10.108  0.7054E-01  0.6616E+00
     10.334  0.9042E-01  0.6821E+00
     10.560  0.1028E+00  0.7053E+00
     10.786  0.7983E-01  0.7233E+00
     11.012  0.6062E-01  0.7370E+00
     11.238  0.3668E-01  0.7453E+00
     11.464  0.2927E-01  0.7519E+00
     11.690  0.2744E-01  0.7581E+00
     11.915  0.1888E-01  0.7624E+00
     12.141  0.1447E-01  0.7656E+00
     12.367  0.2205E-01  0.7706E+00
     12.593  0.4078E-01  0.7798E+00
     12.819  0.2786E-01  0.7861E+00
     13.045  0.5679E-02  0.7874E+00
     13.271  0.8116E-03  0.7876E+00
     13.497  0.4890E-03  0.7877E+00
     13.723 -0.3654E-05  0.7877E+00
     13.948 -0.6471E-05  0.7877E+00
     14.174 -0.4877E-07  0.7877E+00
     14.400 -0.2326E-10  0.7877E+00
     14.626 -0.7879E-15  0.7877E+00
     14.852  0.0000E+00  0.7877E+00
     15.078  0.0000E+00  0.7877E+00
     15.304  0.0000E+00  0.7877E+00
     15.530  0.0000E+00  0.7877E+00
     15.756  0.0000E+00  0.7877E+00
     15.982  0.0000E+00  0.7877E+00
     16.207  0.0000E+00  0.7877E+00
     16.433  0.0000E+00  0.7877E+00
