   24   24  325    1
  0.1034623E+02  0.5571496E-09  0.5571496E-09  0.7999259E-09  0.1500000E-16
  1.000000000000000E-004
  CAR 
 unknown system                          
    125     60    128
 
  0.1276756E-14  0.1276756E-14  0.1276756E-14  0.2057613E-02
      1        -48.254733   1.000000
      2        -48.253959   1.000000
      3        -48.187120   1.000000
      4        -48.187120   1.000000
      5        -48.186450   1.000000
      6        -48.186450   1.000000
      7        -48.122111   1.000000
      8        -48.121512   1.000000
      9        -24.732087   1.000000
     10        -24.732066   1.000000
     11        -24.729254   1.000000
     12        -24.729228   1.000000
     13        -24.655116   1.000000
     14        -24.655116   1.000000
     15        -24.653359   1.000000
     16        -24.653359   1.000000
     17        -24.614873   1.000000
     18        -24.594919   1.000000
     19        -24.544224   1.000000
     20        -24.544224   1.000000
     21        -24.529185   1.000000
     22        -24.529185   1.000000
     23        -24.481332   1.000000
     24        -24.468820   1.000000
     25        -24.198025   1.000000
     26        -24.198025   1.000000
     27        -24.197269   1.000000
     28        -24.197269   1.000000
     29        -24.150634   1.000000
     30        -24.150619   1.000000
     31        -24.149895   1.000000
     32        -24.149864   1.000000
     33         -0.229732   1.000000
     34          1.444622   1.000000
     35          3.257572   1.000000
     36          3.915734   1.000000
     37          3.915980   1.000000
     38          4.159373   1.000000
     39          4.159373   1.000000
     40          4.408762   1.000000
     41          4.409053   1.000000
     42          5.246571   1.000000
     43          5.831923   1.000000
     44          5.943987   1.000000
     45          5.943987   1.000000
     46          6.346391   1.000000
     47          6.346391   1.000000
     48          6.376044   1.000000
     49          6.812712   1.000000
     50          6.812808   1.000000
     51          6.963622   1.000000
     52          6.963622   1.000000
     53          7.325858   1.000000
     54          7.379692   1.000000
     55          7.562429   1.000003
     56          7.562591   1.000003
     57          7.618021   1.000020
     58          7.674742   1.000107
     59          7.674742   1.000107
     60          8.115081   0.983273
     61          8.115081   0.983273
     62          8.187844   0.817274
     63          8.477826  -0.028722
     64          8.477826  -0.028722
     65          8.554122  -0.030996
     66          8.554420  -0.030938
     67          8.558134  -0.030197
     68          8.567153  -0.028283
     69          8.578729  -0.025673
     70          8.578729  -0.025673
     71          8.582464  -0.024812
     72          8.582464  -0.024812
     73          8.644101  -0.011874
     74          8.644494  -0.011807
     75          8.646257  -0.011510
     76          8.646862  -0.011409
     77          8.647824  -0.011250
     78          8.697566  -0.004995
     79          8.708688  -0.004075
     80          8.709085  -0.004045
     81          8.780146  -0.000921
     82          8.780146  -0.000921
     83          8.782498  -0.000872
     84          8.782498  -0.000872
     85          8.787582  -0.000775
     86          8.803670  -0.000528
     87          8.809377  -0.000460
     88          8.832535  -0.000256
     89          8.832535  -0.000256
     90          8.861198  -0.000119
     91          8.861198  -0.000119
     92          8.885773  -0.000060
     93          8.885773  -0.000060
     94          8.937061  -0.000013
     95          8.964382  -0.000005
     96          8.998939  -0.000002
     97          8.999386  -0.000002
     98          9.005290  -0.000001
     99          9.005558  -0.000001
    100          9.031928  -0.000000
    101          9.032393  -0.000000
    102          9.144357  -0.000000
    103          9.544200  -0.000000
    104          9.544200  -0.000000
    105          9.714844  -0.000000
    106         10.132220  -0.000000
    107         10.132220  -0.000000
    108         10.307665  -0.000000
    109         10.307665  -0.000000
    110         10.332273  -0.000000
    111         10.332273  -0.000000
    112         10.374342  -0.000000
    113         10.374342  -0.000000
    114         10.664686  -0.000000
    115         10.801785  -0.000000
    116         10.801785  -0.000000
    117         10.912040  -0.000000
    118         10.912069  -0.000000
    119         10.997782  -0.000000
    120         10.997800  -0.000000
    121         11.421077  -0.000000
    122         11.756241  -0.000000
    123         11.756556  -0.000000
    124         12.695010   0.000000
    125         12.697423   0.000000
    126         12.836589   0.000000
    127         12.836770   0.000000
    128         12.902962   0.000000
 
  0.1111111E+00  0.1276756E-14  0.1276756E-14  0.8230453E-02
      1        -48.252707   1.000000
      2        -48.251934   1.000000
      3        -48.189178   1.000000
      4        -48.188505   1.000000
      5        -48.185181   1.000000
      6        -48.184510   1.000000
      7        -48.124081   1.000000
      8        -48.123485   1.000000
      9        -24.729779   1.000000
     10        -24.726973   1.000000
     11        -24.716442   1.000000
     12        -24.713682   1.000000
     13        -24.657449   1.000000
     14        -24.655657   1.000000
     15        -24.640307   1.000000
     16        -24.638574   1.000000
     17        -24.612755   1.000000
     18        -24.592947   1.000000
     19        -24.546366   1.000000
     20        -24.542337   1.000000
     21        -24.531174   1.000000
     22        -24.527380   1.000000
     23        -24.483240   1.000000
     24        -24.470648   1.000000
     25        -24.214621   1.000000
     26        -24.213804   1.000000
     27        -24.196602   1.000000
     28        -24.195842   1.000000
     29        -24.166280   1.000000
     30        -24.165504   1.000000
     31        -24.152073   1.000000
     32        -24.151324   1.000000
     33         -0.167269   1.000000
     34          1.487797   1.000000
     35          3.328341   1.000000
     36          3.416458   1.000000
     37          3.734951   1.000000
     38          3.963849   1.000000
     39          4.220953   1.000000
     40          4.437520   1.000000
     41          5.178158   1.000000
     42          5.231978   1.000000
     43          5.871684   1.000000
     44          5.959591   1.000000
     45          6.154622   1.000000
     46          6.215293   1.000000
     47          6.339476   1.000000
     48          6.424070   1.000000
     49          6.632982   1.000000
     50          6.839567   1.000000
     51          6.851268   1.000000
     52          7.044010   1.000000
     53          7.157529   1.000000
     54          7.349760   1.000000
     55          7.484048   1.000000
     56          7.650902   1.000054
     57          7.652778   1.000057
     58          7.709818   1.000272
     59          7.767883   1.001104
     60          8.031565   1.035288
     61          8.172814   0.862300
     62          8.203980   0.763228
     63          8.405894   0.047517
     64          8.478553  -0.029011
     65          8.501656  -0.034713
     66          8.538362  -0.033667
     67          8.547462  -0.032228
     68          8.563040  -0.029174
     69          8.564552  -0.028850
     70          8.583948  -0.024469
     71          8.587684  -0.023604
     72          8.598712  -0.021068
     73          8.636475  -0.013220
     74          8.642656  -0.012122
     75          8.647190  -0.011355
     76          8.648219  -0.011185
     77          8.650787  -0.010770
     78          8.707420  -0.004173
     79          8.711527  -0.003864
     80          8.722252  -0.003146
     81          8.773118  -0.001080
     82          8.775493  -0.001024
     83          8.783537  -0.000851
     84          8.786712  -0.000791
     85          8.794577  -0.000657
     86          8.800747  -0.000567
     87          8.803141  -0.000535
     88          8.831467  -0.000263
     89          8.841763  -0.000201
     90          8.859891  -0.000124
     91          8.860682  -0.000121
     92          8.882764  -0.000065
     93          8.893508  -0.000048
     94          8.952919  -0.000008
     95          8.967290  -0.000005
     96          8.999521  -0.000002
     97          9.006325  -0.000001
     98          9.009856  -0.000001
     99          9.028495  -0.000001
    100          9.039582  -0.000000
    101          9.057023  -0.000000
    102          9.192095  -0.000000
    103          9.501975  -0.000000
    104          9.558531  -0.000000
    105          9.841469  -0.000000
    106         10.070108  -0.000000
    107         10.172106  -0.000000
    108         10.229690  -0.000000
    109         10.326456  -0.000000
    110         10.351967  -0.000000
    111         10.366495  -0.000000
    112         10.382226  -0.000000
    113         10.428417  -0.000000
    114         10.650542  -0.000000
    115         10.807206  -0.000000
    116         10.893893  -0.000000
    117         10.894555  -0.000000
    118         10.904865  -0.000000
    119         10.915978  -0.000000
    120         10.991364  -0.000000
    121         11.569814  -0.000000
    122         11.693586  -0.000000
    123         11.702831  -0.000000
    124         12.305929   0.000000
    125         12.525273   0.000000
    126         12.633375   0.000000
    127         12.820671   0.000000
    128         12.832578   0.000000
 
  0.2222222E+00  0.1276756E-14  0.1276756E-14  0.8230453E-02
      1        -48.246878   1.000000
      2        -48.246118   1.000000
      3        -48.195091   1.000000
      4        -48.194404   1.000000
      5        -48.179576   1.000000
      6        -48.178909   1.000000
      7        -48.129761   1.000000
      8        -48.129161   1.000000
      9        -24.723142   1.000000
     10        -24.720430   1.000000
     11        -24.671285   1.000000
     12        -24.668682   1.000000
     13        -24.664179   1.000000
     14        -24.662306   1.000000
     15        -24.606661   1.000000
     16        -24.597555   1.000000
     17        -24.595919   1.000000
     18        -24.587276   1.000000
     19        -24.552533   1.000000
     20        -24.536928   1.000000
     21        -24.536907   1.000000
     22        -24.522170   1.000000
     23        -24.488741   1.000000
     24        -24.475919   1.000000
     25        -24.262251   1.000000
     26        -24.261249   1.000000
     27        -24.211175   1.000000
     28        -24.210305   1.000000
     29        -24.192508   1.000000
     30        -24.191749   1.000000
     31        -24.156201   1.000000
     32        -24.155455   1.000000
     33          0.018769   1.000000
     34          1.616523   1.000000
     35          2.621561   1.000000
     36          3.338370   1.000000
     37          3.536786   1.000000
     38          4.106533   1.000000
     39          4.402911   1.000000
     40          4.520192   1.000000
     41          5.183039   1.000000
     42          5.883946   1.000000
     43          5.988564   1.000000
     44          6.003798   1.000000
     45          6.024109   1.000000
     46          6.057220   1.000000
     47          6.317146   1.000000
     48          6.560605   1.000000
     49          6.634083   1.000000
     50          6.666854   1.000000
     51          6.917227   1.000000
     52          6.964613   1.000000
     53          7.272224   1.000000
     54          7.277666   1.000000
     55          7.410960   1.000000
     56          7.586857   1.000008
     57          7.742715   1.000616
     58          7.809878   1.002693
     59          7.840585   1.004830
     60          7.994056   1.032486
     61          8.251053   0.579816
     62          8.254456   0.565594
     63          8.285851   0.433202
     64          8.319915   0.295945
     65          8.489340  -0.032469
     66          8.499908  -0.034493
     67          8.507969  -0.035261
     68          8.513975  -0.035454
     69          8.529101  -0.034759
     70          8.599263  -0.020942
     71          8.603006  -0.020097
     72          8.611627  -0.018196
     73          8.635014  -0.013488
     74          8.647575  -0.011291
     75          8.660076  -0.009355
     76          8.662540  -0.009003
     77          8.678738  -0.006925
     78          8.719519  -0.003318
     79          8.722039  -0.003159
     80          8.753287  -0.001669
     81          8.755769  -0.001582
     82          8.783487  -0.000852
     83          8.785555  -0.000813
     84          8.792270  -0.000694
     85          8.793214  -0.000679
     86          8.797711  -0.000610
     87          8.805598  -0.000504
     88          8.812030  -0.000431
     89          8.822576  -0.000331
     90          8.856170  -0.000137
     91          8.874069  -0.000083
     92          8.917985  -0.000023
     93          8.951631  -0.000008
     94          8.962045  -0.000006
     95          8.979992  -0.000003
     96          9.000690  -0.000002
     97          9.007685  -0.000001
     98          9.018447  -0.000001
     99          9.044556  -0.000000
    100          9.063181  -0.000000
    101          9.175069  -0.000000
    102          9.312670  -0.000000
    103          9.393315  -0.000000
    104          9.604556  -0.000000
    105          9.914302  -0.000000
    106         10.014753  -0.000000
    107         10.032356  -0.000000
    108         10.271688  -0.000000
    109         10.289164  -0.000000
    110         10.380150  -0.000000
    111         10.405707  -0.000000
    112         10.467831  -0.000000
    113         10.606428  -0.000000
    114         10.637999  -0.000000
    115         10.691450  -0.000000
    116         10.822977  -0.000000
    117         10.841831  -0.000000
    118         10.895765  -0.000000
    119         10.973078  -0.000000
    120         11.220502  -0.000000
    121         11.519795  -0.000000
    122         11.553531  -0.000000
    123         11.566567  -0.000000
    124         11.932068  -0.000000
    125         11.982162  -0.000000
    126         12.523013   0.000000
    127         12.555552   0.000000
    128         12.817955   0.000000
 
  0.3333333E+00  0.1276756E-14  0.1276756E-14  0.8230453E-02
      1        -48.237931   1.000000
      2        -48.237185   1.000000
      3        -48.204135   1.000000
      4        -48.203432   1.000000
      5        -48.170968   1.000000
      6        -48.170324   1.000000
      7        -48.138456   1.000000
      8        -48.137844   1.000000
      9        -24.712949   1.000000
     10        -24.710386   1.000000
     11        -24.674466   1.000000
     12        -24.672437   1.000000
     13        -24.601641   1.000000
     14        -24.599301   1.000000
     15        -24.597299   1.000000
     16        -24.578572   1.000000
     17        -24.561975   1.000000
     18        -24.545702   1.000000
     19        -24.531658   1.000000
     20        -24.530132   1.000000
     21        -24.528577   1.000000
     22        -24.514161   1.000000
     23        -24.497125   1.000000
     24        -24.483981   1.000000
     25        -24.334708   1.000000
     26        -24.333411   1.000000
     27        -24.279492   1.000000
     28        -24.278487   1.000000
     29        -24.186221   1.000000
     30        -24.185470   1.000000
     31        -24.162517   1.000000
     32        -24.161771   1.000000
     33          0.324794   1.000000
     34          1.828342   1.000000
     35          1.902497   1.000000
     36          2.895775   1.000000
     37          3.872142   1.000000
     38          4.339758   1.000000
     39          4.647104   1.000000
     40          4.697267   1.000000
     41          5.091067   1.000000
     42          5.442598   1.000000
     43          5.464289   1.000000
     44          6.069128   1.000000
     45          6.108197   1.000000
     46          6.175233   1.000000
     47          6.276381   1.000000
     48          6.731419   1.000000
     49          6.764457   1.000000
     50          7.000702   1.000000
     51          7.037151   1.000000
     52          7.146246   1.000000
     53          7.192144   1.000000
     54          7.473471   1.000000
     55          7.479259   1.000000
     56          7.603364   1.000013
     57          7.606478   1.000014
     58          7.872621   1.008337
     59          7.959152   1.025181
     60          7.966446   1.026850
     61          8.100007   1.001759
     62          8.217631   0.713428
     63          8.323661   0.281786
     64          8.377040   0.111210
     65          8.402478   0.053967
     66          8.407826   0.043995
     67          8.425912   0.015381
     68          8.459530  -0.018800
     69          8.540734  -0.033323
     70          8.565048  -0.028743
     71          8.623327  -0.015748
     72          8.626986  -0.015019
     73          8.633868  -0.013701
     74          8.646457  -0.011477
     75          8.678851  -0.006912
     76          8.679585  -0.006828
     77          8.723777  -0.003054
     78          8.725238  -0.002967
     79          8.726326  -0.002904
     80          8.731778  -0.002606
     81          8.748633  -0.001842
     82          8.760212  -0.001437
     83          8.776571  -0.000999
     84          8.779337  -0.000938
     85          8.799578  -0.000583
     86          8.807876  -0.000477
     87          8.812306  -0.000428
     88          8.827161  -0.000294
     89          8.849585  -0.000163
     90          8.860536  -0.000121
     91          8.962645  -0.000006
     92          8.968930  -0.000005
     93          8.971225  -0.000004
     94          9.002381  -0.000001
     95          9.004398  -0.000001
     96          9.007839  -0.000001
     97          9.014927  -0.000001
     98          9.098623  -0.000000
     99          9.111528  -0.000000
    100          9.133197  -0.000000
    101          9.258117  -0.000000
    102          9.297449  -0.000000
    103          9.482482  -0.000000
    104          9.691904  -0.000000
    105          9.720002  -0.000000
    106          9.728114  -0.000000
    107         10.004047  -0.000000
    108         10.119187  -0.000000
    109         10.330001  -0.000000
    110         10.444338  -0.000000
    111         10.461487  -0.000000
    112         10.475289  -0.000000
    113         10.486784  -0.000000
    114         10.630983  -0.000000
    115         10.762146  -0.000000
    116         10.838259  -0.000000
    117         10.847630  -0.000000
    118         10.917483  -0.000000
    119         10.945572  -0.000000
    120         11.073265  -0.000000
    121         11.271749  -0.000000
    122         11.336968  -0.000000
    123         11.532886  -0.000000
    124         11.653643  -0.000000
    125         12.314804   0.000000
    126         12.398224   0.000000
    127         12.511744   0.000000
    128         12.607059   0.000000
 
  0.4444444E+00  0.1276756E-14  0.1276756E-14  0.8230453E-02
      1        -48.226933   1.000000
      2        -48.226194   1.000000
      3        -48.215191   1.000000
      4        -48.214472   1.000000
      5        -48.160387   1.000000
      6        -48.159748   1.000000
      7        -48.149097   1.000000
      8        -48.148475   1.000000
      9        -24.700425   1.000000
     10        -24.698042   1.000000
     11        -24.687059   1.000000
     12        -24.684859   1.000000
     13        -24.585803   1.000000
     14        -24.573532   1.000000
     15        -24.567867   1.000000
     16        -24.556449   1.000000
     17        -24.518336   1.000000
     18        -24.515444   1.000000
     19        -24.513427   1.000000
     20        -24.507414   1.000000
     21        -24.504332   1.000000
     22        -24.493844   1.000000
     23        -24.450156   1.000000
     24        -24.448800   1.000000
     25        -24.422744   1.000000
     26        -24.421095   1.000000
     27        -24.362591   1.000000
     28        -24.361410   1.000000
     29        -24.178496   1.000000
     30        -24.177751   1.000000
     31        -24.170259   1.000000
     32        -24.169514   1.000000
     33          0.745351   1.000000
     34          1.273890   1.000000
     35          2.118626   1.000000
     36          2.479297   1.000000
     37          4.317421   1.000000
     38          4.655439   1.000000
     39          4.801005   1.000000
     40          4.850232   1.000000
     41          4.957759   1.000000
     42          5.038967   1.000000
     43          5.091676   1.000000
     44          5.569722   1.000000
     45          6.144392   1.000000
     46          6.216975   1.000000
     47          6.419294   1.000000
     48          6.702816   1.000000
     49          7.000934   1.000000
     50          7.127201   1.000000
     51          7.184540   1.000000
     52          7.339228   1.000000
     53          7.385269   1.000000
     54          7.414523   1.000000
     55          7.471244   1.000000
     56          7.665955   1.000083
     57          7.717950   1.000335
     58          7.952009   1.023528
     59          8.005232   1.034139
     60          8.094907   1.006924
     61          8.126963   0.965080
     62          8.131595   0.957076
     63          8.225886   0.681760
     64          8.231542   0.659476
     65          8.295494   0.393129
     66          8.309322   0.337165
     67          8.410497   0.039278
     68          8.495925  -0.033875
     69          8.520766  -0.035333
     70          8.539541  -0.033499
     71          8.637880  -0.012965
     72          8.642955  -0.012070
     73          8.654500  -0.010188
     74          8.657748  -0.009697
     75          8.689257  -0.005786
     76          8.692353  -0.005481
     77          8.699009  -0.004867
     78          8.703546  -0.004482
     79          8.715977  -0.003551
     80          8.731689  -0.002610
     81          8.747125  -0.001901
     82          8.763620  -0.001334
     83          8.764338  -0.001313
     84          8.773865  -0.001062
     85          8.797551  -0.000612
     86          8.823751  -0.000321
     87          8.825373  -0.000308
     88          8.827237  -0.000294
     89          8.839919  -0.000211
     90          8.843840  -0.000190
     91          8.977865  -0.000003
     92          8.989981  -0.000002
     93          9.004638  -0.000001
     94          9.006614  -0.000001
     95          9.032444  -0.000000
     96          9.073100  -0.000000
     97          9.112773  -0.000000
     98          9.131790  -0.000000
     99          9.231251  -0.000000
    100          9.318136  -0.000000
    101          9.420217  -0.000000
    102          9.434485  -0.000000
    103          9.461519  -0.000000
    104          9.559518  -0.000000
    105          9.688556  -0.000000
    106          9.714531  -0.000000
    107          9.835738  -0.000000
    108          9.911881  -0.000000
    109          9.979116  -0.000000
    110         10.049703  -0.000000
    111         10.498049  -0.000000
    112         10.560178  -0.000000
    113         10.574045  -0.000000
    114         10.664452  -0.000000
    115         10.716431  -0.000000
    116         10.844567  -0.000000
    117         10.878659  -0.000000
    118         10.912677  -0.000000
    119         10.991559  -0.000000
    120         11.010704  -0.000000
    121         11.089181  -0.000000
    122         11.209471  -0.000000
    123         11.536340  -0.000000
    124         12.055542  -0.000000
    125         12.177840  -0.000000
    126         12.575801   0.000000
    127         12.599677   0.000000
    128         12.618676   0.000000
 
  0.1111111E+00  0.1111111E+00  0.1276756E-14  0.8230453E-02
      1        -48.250684   1.000000
      2        -48.249916   1.000000
      3        -48.187230   1.000000
      4        -48.187230   1.000000
      5        -48.186558   1.000000
      6        -48.186558   1.000000
      7        -48.126059   1.000000
      8        -48.125460   1.000000
      9        -24.714173   1.000000
     10        -24.714153   1.000000
     11        -24.711447   1.000000
     12        -24.711421   1.000000
     13        -24.643573   1.000000
     14        -24.641782   1.000000
     15        -24.641678   1.000000
     16        -24.639957   1.000000
     17        -24.610644   1.000000
     18        -24.590981   1.000000
     19        -24.544474   1.000000
     20        -24.544474   1.000000
     21        -24.529359   1.000000
     22        -24.529359   1.000000
     23        -24.485160   1.000000
     24        -24.472488   1.000000
     25        -24.214179   1.000000
     26        -24.213332   1.000000
     27        -24.212160   1.000000
     28        -24.211381   1.000000
     29        -24.167748   1.000000
     30        -24.167733   1.000000
     31        -24.166978   1.000000
     32        -24.166947   1.000000
     33         -0.105005   1.000000
     34          1.530995   1.000000
     35          3.398652   1.000000
     36          3.467630   1.000000
     37          3.467762   1.000000
     38          3.781517   1.000000
     39          3.781742   1.000000
     40          5.189737   1.000000
     41          5.216118   1.000000
     42          5.216269   1.000000
     43          5.908072   1.000000
     44          6.010434   1.000000
     45          6.170403   1.000000
     46          6.170424   1.000000
     47          6.425477   1.000000
     48          6.471399   1.000000
     49          6.679233   1.000000
     50          6.679304   1.000000
     51          6.877487   1.000000
     52          6.877584   1.000000
     53          6.996606   1.000000
     54          7.374509   1.000000
     55          7.654407   1.000060
     56          7.684320   1.000139
     57          7.722265   1.000373
     58          7.734243   1.000502
     59          7.734325   1.000503
     60          8.080657   1.018683
     61          8.080671   1.018674
     62          8.215302   0.722164
     63          8.405522   0.048205
     64          8.426961   0.013955
     65          8.463189  -0.021217
     66          8.538391  -0.033663
     67          8.557539  -0.030318
     68          8.568401  -0.028009
     69          8.568406  -0.028008
     70          8.582549  -0.024792
     71          8.589001  -0.023299
     72          8.589268  -0.023237
     73          8.636404  -0.013233
     74          8.637677  -0.013002
     75          8.637968  -0.012949
     76          8.653327  -0.010369
     77          8.653561  -0.010333
     78          8.714647  -0.003642
     79          8.727139  -0.002858
     80          8.727494  -0.002838
     81          8.764875  -0.001298
     82          8.776940  -0.000990
     83          8.776956  -0.000990
     84          8.787740  -0.000772
     85          8.797188  -0.000618
     86          8.797561  -0.000612
     87          8.802388  -0.000545
     88          8.820851  -0.000345
     89          8.861781  -0.000117
     90          8.861816  -0.000117
     91          8.867400  -0.000100
     92          8.890467  -0.000052
     93          8.890479  -0.000052
     94          8.969821  -0.000004
     95          8.971280  -0.000004
     96          9.007690  -0.000001
     97          9.010034  -0.000001
     98          9.010493  -0.000001
     99          9.035945  -0.000000
    100          9.036413  -0.000000
    101          9.089853  -0.000000
    102          9.232314  -0.000000
    103          9.475809  -0.000000
    104          9.557979  -0.000000
    105          9.931941  -0.000000
    106         10.112979  -0.000000
    107         10.113003  -0.000000
    108         10.191198  -0.000000
    109         10.307456  -0.000000
    110         10.347203  -0.000000
    111         10.347368  -0.000000
    112         10.456290  -0.000000
    113         10.456418  -0.000000
    114         10.636163  -0.000000
    115         10.733511  -0.000000
    116         10.885174  -0.000000
    117         10.885302  -0.000000
    118         10.885897  -0.000000
    119         10.885947  -0.000000
    120         11.094709  -0.000000
    121         11.628140  -0.000000
    122         11.648244  -0.000000
    123         11.701480  -0.000000
    124         12.089320  -0.000000
    125         12.320739   0.000000
    126         12.570741   0.000000
    127         12.814808   0.000000
    128         12.814828   0.000000
 
  0.2222222E+00  0.1111111E+00  0.1276756E-14  0.1646091E-01
      1        -48.244863   1.000000
      2        -48.244104   1.000000
      3        -48.193137   1.000000
      4        -48.192449   1.000000
      5        -48.181620   1.000000
      6        -48.180956   1.000000
      7        -48.131747   1.000000
      8        -48.131143   1.000000
      9        -24.707604   1.000000
     10        -24.704962   1.000000
     11        -24.669085   1.000000
     12        -24.666509   1.000000
     13        -24.649341   1.000000
     14        -24.647481   1.000000
     15        -24.604568   1.000000
     16        -24.599728   1.000000
     17        -24.598054   1.000000
     18        -24.585321   1.000000
     19        -24.550621   1.000000
     20        -24.539027   1.000000
     21        -24.535097   1.000000
     22        -24.524131   1.000000
     23        -24.490664   1.000000
     24        -24.477769   1.000000
     25        -24.260786   1.000000