       N       E                     dE             d eps       ncg     rms          rms(c)
DAV:   1     0.152120566390E+04    0.15212E+04   -0.64671E+04 15360   0.118E+03
DAV:   2     0.493752850152E+03   -0.10275E+04   -0.97681E+03 15552   0.307E+02
DAV:   3     0.409445874038E+03   -0.84307E+02   -0.82071E+02 30720   0.731E+01
DAV:   4     0.406266294128E+03   -0.31796E+01   -0.31765E+01 15360   0.132E+01
DAV:   5     0.406083168421E+03   -0.18313E+00   -0.18306E+00 26752   0.263E+00    0.348E+01
DAV:   6    -0.114534390923E+03   -0.52062E+03   -0.36448E+02 20096   0.319E+01    0.170E+02
DAV:   7     0.437535952746E+03    0.55207E+03   -0.79818E+02 20736   0.254E+01    0.951E+00
DAV:   8     0.433407973824E+03   -0.41280E+01   -0.63174E+00 17664   0.532E+00    0.274E+01
DAV:   9     0.407231174184E+03   -0.26177E+02   -0.35081E+01 17728   0.589E+00    0.811E+01
DAV:  10     0.413454413972E+03    0.62232E+01   -0.22312E+00 20608   0.223E+00    0.755E+01
DAV:  11     0.416210684688E+03    0.27563E+01   -0.42448E+00 19648   0.945E-01    0.693E+01
DAV:  12     0.429323902023E+03    0.13113E+02   -0.16223E+01 21952   0.348E+00    0.357E+01
DAV:  13     0.412594809292E+03   -0.16729E+02   -0.97761E+01 25728   0.126E+01    0.318E+01
DAV:  14     0.424830915387E+03    0.12236E+02   -0.21470E+01 19584   0.104E+01    0.221E+01
DAV:  15     0.431268145386E+03    0.64372E+01   -0.19534E+00 20736   0.275E+00    0.174E+01
DAV:  16     0.430054313314E+03   -0.12138E+01   -0.13622E+01 20736   0.758E+00    0.332E+01
DAV:  17     0.436273069941E+03    0.62188E+01   -0.75040E+00 21632   0.336E+00    0.547E+00
DAV:  18     0.436401302055E+03    0.12823E+00   -0.20435E+00 20672   0.298E+00    0.584E+00
DAV:  19     0.436758219117E+03    0.35692E+00   -0.17908E-01 22144   0.915E-01    0.991E-01
DAV:  20     0.436756549753E+03   -0.16694E-02   -0.97142E-03 19008   0.192E-01    0.111E+00
DAV:  21     0.436762185208E+03    0.56355E-02   -0.68386E-03 21248   0.217E-01    0.856E-01
DAV:  22     0.436629156599E+03   -0.13303E+00   -0.49559E-02 18048   0.818E-01    0.359E+00
DAV:  23     0.436610014596E+03   -0.19142E-01   -0.16170E-02 21696   0.332E-01    0.396E+00
DAV:  24     0.436715868993E+03    0.10585E+00   -0.14271E-02 22528   0.197E-01    0.203E+00
DAV:  25     0.436736482601E+03    0.20614E-01   -0.31656E-03 21568   0.120E-01    0.132E+00
DAV:  26     0.436742835297E+03    0.63527E-02   -0.39670E-03 19904   0.142E-01    0.128E+00
DAV:  27     0.436762460143E+03    0.19625E-01   -0.24386E-03 19520   0.115E-01    0.756E-01
DAV:  28     0.436765837226E+03    0.33771E-02   -0.12573E-04 20928   0.289E-02    0.637E-01
DAV:  29     0.436768147764E+03    0.23105E-02   -0.26908E-05 21184   0.154E-02    0.574E-01
DAV:  30     0.436772035575E+03    0.38878E-02    0.13977E-04 20160   0.335E-02    0.520E-01
DAV:  31     0.436775418144E+03    0.33826E-02    0.91880E-05 18816   0.395E-02    0.378E-01
DAV:  32     0.436777196378E+03    0.17782E-02   -0.17209E-04 18816   0.511E-02    0.236E-01
DAV:  33     0.436777606060E+03    0.40968E-03   -0.11373E-04 19648   0.294E-02    0.134E-01
DAV:  34     0.436777684913E+03    0.78854E-04   -0.18016E-05 21184   0.108E-02    0.867E-02
DAV:  35     0.436777716377E+03    0.31463E-04   -0.70840E-06 21632   0.632E-03    0.642E-02
DAV:  36     0.436777742412E+03    0.26036E-04   -0.55818E-07 21888   0.241E-03    0.558E-02
DAV:  37     0.436777775900E+03    0.33488E-04    0.71281E-07 20032   0.210E-03    0.452E-02
DAV:  38     0.436777812931E+03    0.37031E-04    0.10807E-06 22016   0.285E-03    0.292E-02
DAV:  39     0.436777837611E+03    0.24680E-04    0.27406E-06 20672   0.367E-03    0.854E-03
DAV:  40     0.436777839465E+03    0.18544E-05    0.21033E-07 21056   0.211E-03    0.561E-03
DAV:  41     0.436777839414E+03   -0.51332E-07   -0.24254E-10  8128   0.424E-04
   1 F= 0.43677784E+03 E0= 0.43672913E+03  d E =0.146137E+00
 Found     6 degrees of freedom:
 Adding 6 more for cell shape distortion
       N       E                     dE             d eps       ncg     rms          rms(c)
DAV:   1     0.436792454680E+03    0.14615E-01   -0.13457E+01 26240   0.157E+01    0.688E+00
DAV:   2     0.387995303143E+03   -0.48797E+02   -0.32230E+01 39424   0.117E+01    0.948E+01
DAV:   3     0.432795391003E+03    0.44800E+02   -0.27846E+02 37248   0.125E+01    0.149E+01
DAV:   4     0.428593667906E+03   -0.42017E+01   -0.43862E+00 40448   0.491E+00    0.154E+01
DAV:   5     0.432308384648E+03    0.37147E+01   -0.40689E-01 33408   0.192E+00    0.136E+01
DAV:   6     0.436646945277E+03    0.43386E+01   -0.64775E-01 34368   0.186E+00    0.476E+00
DAV:   7     0.436744876746E+03    0.97931E-01   -0.50199E-02 29824   0.423E-01    0.481E+00
DAV:   8     0.437081841696E+03    0.33696E+00   -0.10733E-01 37440   0.597E-01    0.252E+00
DAV:   9     0.437174529594E+03    0.92688E-01   -0.25175E-02 32960   0.338E-01    0.202E+00
DAV:  10     0.437084156906E+03   -0.90373E-01   -0.67813E-01 30400   0.142E+00    0.648E+00
DAV:  11     0.437297567233E+03    0.21341E+00   -0.12646E-01 36608   0.538E-01    0.232E+00
DAV:  12     0.437328566039E+03    0.30999E-01   -0.31017E-02 37696   0.374E-01    0.449E-01
DAV:  13     0.437328769518E+03    0.20348E-03   -0.65783E-03 36544   0.175E-01    0.751E-01
DAV:  14     0.437332212764E+03    0.34432E-02   -0.21094E-03 38592   0.101E-01    0.197E-01
DAV:  15     0.437332409242E+03    0.19648E-03   -0.31503E-04 36608   0.438E-02    0.283E-01
DAV:  16     0.437332725609E+03    0.31637E-03   -0.74225E-04 38656   0.599E-02    0.209E-01
DAV:  17     0.437333101847E+03    0.37624E-03   -0.28223E-04 38080   0.346E-02    0.800E-02
DAV:  18     0.437333107262E+03    0.54148E-05   -0.71405E-05 33600   0.189E-02    0.902E-02
DAV:  19     0.437333174836E+03    0.67574E-04   -0.26579E-05 36544   0.157E-02    0.581E-03
DAV:  20     0.437333170733E+03   -0.41032E-05   -0.21926E-06 36608   0.377E-03    0.196E-02
DAV:  21     0.437333175472E+03    0.47399E-05   -0.44343E-06 33728   0.470E-03    0.282E-03
DAV:  22     0.437333175489E+03    0.16642E-07   -0.22553E-07 15552   0.123E-03
   2 F= 0.43733318E+03 E0= 0.43728310E+03  d E =0.150235E+00
       N       E                     dE             d eps       ncg     rms          rms(c)
DAV:   1     0.434201030813E+03   -0.31321E+01   -0.47269E+01 31744   0.290E+01    0.130E+01
DAV:   2     0.408635685292E+03   -0.25565E+02   -0.30793E+01 49088   0.216E+01    0.247E+01
DAV:   3     0.433460535617E+03    0.24825E+02   -0.21621E+01 40960   0.106E+01    0.244E+01
DAV:   4     0.420323380883E+03   -0.13137E+02   -0.92270E+01 41344   0.120E+01    0.184E+01
DAV:   5     0.427190177089E+03    0.68668E+01   -0.37395E+00 36160   0.348E+00    0.162E+01
DAV:   6     0.432785363589E+03    0.55952E+01   -0.57927E-01 34432   0.196E+00    0.123E+01
DAV:   7     0.434453871776E+03    0.16685E+01   -0.52451E-02 37568   0.700E-01    0.977E+00
DAV:   8     0.435108308675E+03    0.65444E+00   -0.10676E-01 35968   0.667E-01    0.925E+00
DAV:   9     0.436100051418E+03    0.99174E+00   -0.11467E+00 37760   0.143E+00    0.352E+00
DAV:  10     0.436089043268E+03   -0.11008E-01   -0.57751E-01 37952   0.858E-01    0.421E+00
DAV:  11     0.436260512255E+03    0.17147E+00   -0.40104E-02 36352   0.448E-01    0.159E+00
DAV:  12     0.436217077908E+03   -0.43434E-01   -0.15019E-01 34368   0.691E-01    0.274E+00
DAV:  13     0.436236225882E+03    0.19148E-01   -0.77207E-03 31616   0.194E-01    0.242E+00
DAV:  14     0.436248609953E+03    0.12384E-01   -0.18892E-03 35968   0.890E-02    0.198E+00
DAV:  15     0.436278991997E+03    0.30382E-01   -0.10972E-02 37824   0.173E-01    0.535E-01
DAV:  16     0.436268967064E+03   -0.10025E-01   -0.13157E-03 36800   0.881E-02    0.123E+00
DAV:  17     0.436281419647E+03    0.12453E-01   -0.53147E-03 37888   0.151E-01    0.983E-02
DAV:  18     0.436281629812E+03    0.21016E-03   -0.20348E-04 28800   0.396E-02    0.397E-02
DAV:  19     0.436281614393E+03   -0.15419E-04   -0.11457E-05 33408   0.738E-03    0.644E-02
DAV:  20     0.436281641221E+03    0.26829E-04   -0.10865E-05 39040   0.854E-03    0.155E-02
DAV:  21     0.436281638410E+03   -0.28113E-05   -0.37699E-06 38080   0.465E-03    0.307E-02
DAV:  22     0.436281644795E+03    0.63853E-05   -0.47196E-07 32064   0.190E-03    0.158E-02
DAV:  23     0.436281647783E+03    0.29881E-05   -0.65195E-07 35904   0.183E-03    0.413E-03
DAV:  24     0.436281648269E+03    0.48588E-06    0.54128E-08 16192   0.733E-04
   3 F= 0.43628165E+03 E0= 0.43623515E+03  d E =0.139497E+00
       N       E                     dE             d eps       ncg     rms          rms(c)
DAV:   1     0.435517477256E+03   -0.76417E+00   -0.42525E+01 32960   0.276E+01    0.136E+01
DAV:   2     0.264543967645E+03   -0.17097E+03   -0.85773E+01 38656   0.229E+01    0.139E+02
DAV:   3     0.423050427857E+03    0.15851E+03   -0.95514E+02 38912   0.229E+01    0.178E+01
DAV:   4     0.420050795773E+03   -0.29996E+01   -0.39305E+00 38144   0.443E+00    0.170E+01
DAV:   5     0.426161312304E+03    0.61105E+01   -0.51267E-01 39552   0.191E+00    0.157E+01
DAV:   6     0.434126026632E+03    0.79647E+01   -0.54511E-01 38336   0.170E+00    0.102E+01
DAV:   7     0.436276009593E+03    0.21500E+01   -0.31640E-01 36864   0.136E+00    0.515E+00
DAV:   8     0.436280286749E+03    0.42772E-02   -0.11089E-02 28544   0.208E-01    0.511E+00
DAV:   9     0.436374770640E+03    0.94484E-01   -0.32652E-03 38400   0.109E-01    0.476E+00
DAV:  10     0.436894877647E+03    0.52011E+00   -0.29498E-01 33152   0.919E-01    0.349E+00
DAV:  11     0.437170556327E+03    0.27568E+00   -0.37234E-01 33920   0.116E+00    0.362E+00
DAV:  12     0.437154363348E+03   -0.16193E-01   -0.30107E-01 32448   0.105E+00    0.543E+00
DAV:  13     0.437150850333E+03   -0.35130E-02   -0.55568E-03 30848   0.199E-01    0.545E+00
DAV:  14     0.437085273467E+03   -0.65577E-01   -0.25975E-02 33088   0.261E-01    0.629E+00
DAV:  15     0.437197716323E+03    0.11244E+00   -0.88301E-02 33856   0.627E-01    0.470E+00
DAV:  16     0.437268593318E+03    0.70877E-01   -0.47122E-02 39424   0.345E-01    0.321E+00
DAV:  17     0.437329180329E+03    0.60587E-01   -0.76310E-02 38528   0.413E-01    0.819E-01
DAV:  18     0.437331746714E+03    0.25664E-02   -0.36470E-03 29120   0.130E-01    0.753E-01
DAV:  19     0.437107527500E+03   -0.22422E+00   -0.21636E-01 37696   0.663E-01    0.580E+00
DAV:  20     0.437318801564E+03    0.21127E+00   -0.11280E-01 38208   0.470E-01    0.126E+00
DAV:  21     0.437323727237E+03    0.49257E-02   -0.41854E-03 31488   0.151E-01    0.893E-01
DAV:  22     0.437318639736E+03   -0.50875E-02   -0.33104E-02 37632   0.302E-01    0.136E+00
DAV:  23     0.437326953639E+03    0.83139E-02   -0.20488E-02 38656   0.242E-01    0.706E-01
DAV:  24     0.437332692395E+03    0.57388E-02   -0.48455E-03 36160   0.134E-01    0.215E-01
DAV:  25     0.437332771434E+03    0.79040E-04   -0.37518E-04 30080   0.392E-02    0.219E-01
DAV:  26     0.437333074803E+03    0.30337E-03   -0.21605E-04 36928   0.317E-02    0.113E-01
DAV:  27     0.437333175255E+03    0.10045E-03   -0.68608E-05 33344   0.206E-02    0.837E-03
DAV:  28     0.437333164536E+03   -0.10719E-04   -0.90019E-06 38208   0.645E-03    0.359E-02
DAV:  29     0.437333174866E+03    0.10330E-04   -0.70683E-06 38592   0.578E-03    0.124E-02
DAV:  30     0.437333175715E+03    0.84896E-06   -0.44161E-07 28160   0.170E-03
   4 F= 0.43733318E+03 E0= 0.43728310E+03  d E =0.150231E+00
       N       E                     dE             d eps       ncg     rms          rms(c)
DAV:   1     0.434191174524E+03   -0.31420E+01   -0.48005E+01 31616   0.290E+01    0.131E+01
DAV:   2     0.408469467036E+03   -0.25722E+02   -0.31247E+01 49280   0.217E+01    0.247E+01
DAV:   3     0.433502030282E+03    0.25033E+02   -0.21789E+01 40768   0.106E+01    0.243E+01
DAV:   4     0.420211293750E+03   -0.13291E+02   -0.91932E+01 41088   0.120E+01    0.184E+01
DAV:   5     0.427152931890E+03    0.69416E+01   -0.38315E+00 36672   0.349E+00    0.162E+01
DAV:   6     0.432790721070E+03    0.56378E+01   -0.58423E-01 34304   0.196E+00    0.123E+01
DAV:   7     0.434445630545E+03    0.16549E+01   -0.51919E-02 37824   0.694E-01    0.980E+00
DAV:   8     0.435303762979E+03    0.85813E+00   -0.13287E-01 35136   0.735E-01    0.856E+00
DAV:   9     0.436058752769E+03    0.75499E+00   -0.11695E+00 37824   0.139E+00    0.428E+00
DAV:  10     0.436129602731E+03    0.70850E-01   -0.64320E-01 37888   0.856E-01    0.370E+00
DAV:  11     0.436231882258E+03    0.10228E+00   -0.16435E-02 33088   0.334E-01    0.237E+00
DAV:  12     0.436216212787E+03   -0.15669E-01   -0.21875E-01 35520   0.790E-01    0.292E+00
DAV:  13     0.436242396683E+03    0.26184E-01   -0.81000E-03 30080   0.200E-01    0.206E+00
DAV:  14     0.436275157991E+03    0.32761E-01   -0.15998E-02 36608   0.194E-01    0.783E-01
DAV:  15     0.436270607882E+03   -0.45501E-02   -0.39505E-05 36160   0.777E-02    0.113E+00
DAV:  16     0.436280898046E+03    0.10290E-01   -0.40920E-03 37696   0.143E-01    0.182E-01
DAV:  17     0.436281148272E+03    0.25023E-03   -0.79391E-04 35840   0.683E-02    0.244E-01
DAV:  18     0.436281620359E+03    0.47209E-03   -0.27500E-04 37120   0.366E-02    0.513E-02
DAV:  19     0.436281640971E+03    0.20613E-04   -0.12751E-05 28096   0.841E-03    0.288E-02
DAV:  20     0.436281618989E+03   -0.21983E-04   -0.29189E-06 38976   0.408E-03    0.590E-02
DAV:  21     0.436281646272E+03    0.27284E-04   -0.75386E-06 38464   0.621E-03    0.929E-03
DAV:  22     0.436281645966E+03   -0.30619E-06   -0.39340E-07 25600   0.131E-03
   5 F= 0.43628165E+03 E0= 0.43623506E+03  d E =0.139771E+00
       N       E                     dE             d eps       ncg     rms          rms(c)
DAV:   1     0.434973895521E+03   -0.13078E+01   -0.39856E+01 22272   0.260E+01    0.158E+01
DAV:   2     0.144807352048E+03   -0.29017E+03   -0.13374E+02 23680   0.278E+01    0.161E+02
DAV:   3     0.417768530733E+03    0.27296E+03   -0.13806E+03 26752   0.289E+01    0.182E+01
DAV:   4     0.417572814014E+03   -0.19572E+00   -0.18561E+00 22656   0.281E+00    0.172E+01
DAV:   5     0.426422976174E+03    0.88502E+01   -0.83591E-01 23296   0.207E+00    0.152E+01
DAV:   6     0.434581503792E+03    0.81585E+01   -0.58161E-01 23232   0.187E+00    0.814E+00
DAV:   7     0.435518494168E+03    0.93699E+00   -0.85796E-02 19264   0.781E-01    0.633E+00
DAV:   8     0.435532414993E+03    0.13921E-01   -0.90262E-03 19328   0.214E-01    0.656E+00
DAV:   9     0.436374768645E+03    0.84235E+00   -0.16241E+00 20992   0.198E+00    0.105E+01
DAV:  10     0.436658182999E+03    0.28341E+00   -0.93470E-01 23168   0.142E+00    0.391E+00
DAV:  11     0.437200219202E+03    0.54204E+00   -0.55874E-01 18048   0.148E+00    0.200E+00
DAV:  12     0.437088141432E+03   -0.11208E+00   -0.24845E-02 21248   0.383E-01    0.336E+00
DAV:  13     0.437077639133E+03   -0.10502E-01   -0.10098E+00 17600   0.185E+00    0.344E+00
DAV:  14     0.437090206624E+03    0.12567E-01   -0.19610E-02 19520   0.313E-01    0.326E+00
DAV:  15     0.437080047507E+03   -0.10159E-01   -0.77770E-02 23040   0.329E-01    0.386E+00
DAV:  16     0.436779805143E+03   -0.30024E+00   -0.33798E-01 20288   0.774E-01    0.689E+00
DAV:  17     0.437074237579E+03    0.29443E+00   -0.13694E-01 20160   0.582E-01    0.479E+00
DAV:  18     0.437268623010E+03    0.19439E+00   -0.37811E-01 22912   0.543E-01    0.206E+00
DAV:  19     0.437290424611E+03    0.21802E-01   -0.11816E-02 22016   0.221E-01    0.119E+00
DAV:  20     0.437312135676E+03    0.21711E-01    0.39953E-03 22592   0.113E-01    0.689E-01
DAV:  21     0.437311711218E+03   -0.42446E-03   -0.41404E-03 22656   0.137E-01    0.117E+00
DAV:  22     0.437322255576E+03    0.10544E-01   -0.15436E-03 23552   0.120E-01    0.338E-01
DAV:  23     0.437317466495E+03   -0.47891E-02   -0.19278E-03 22528   0.115E-01    0.101E+00
DAV:  24     0.437322801694E+03    0.53352E-02   -0.12184E-03 21312   0.867E-02    0.560E-01
DAV:  25     0.437322653058E+03   -0.14864E-03   -0.84055E-04 17600   0.533E-02    0.600E-01
DAV:  26     0.437325686086E+03    0.30330E-02   -0.35318E-04 23360   0.682E-02    0.209E-01
DAV:  27     0.437326020642E+03    0.33456E-03   -0.38796E-05 19328   0.211E-02    0.190E-01
DAV:  28     0.437326499563E+03    0.47892E-03    0.23674E-05 20480   0.230E-02    0.970E-02
DAV:  29     0.437326683824E+03    0.18426E-03    0.32907E-05 20672   0.107E-02    0.415E-02
DAV:  30     0.437326707778E+03    0.23954E-04    0.56929E-06 22592   0.427E-03    0.431E-02
DAV:  31     0.437326720855E+03    0.13077E-04    0.39571E-07 21120   0.207E-03    0.295E-02
DAV:  32     0.437326727942E+03    0.70865E-05   -0.41637E-07 21504   0.187E-03    0.161E-02
DAV:  33     0.437326730467E+03    0.25250E-05    0.59838E-09 19456   0.111E-03    0.867E-03
DAV:  34     0.437326731192E+03    0.72537E-06   -0.11705E-07 15424   0.970E-04
   6 F= 0.43732673E+03 E0= 0.43727488E+03  d E =0.155540E+00
       N       E                     dE             d eps       ncg     rms          rms(c)
DAV:   1     0.433315291740E+03   -0.40114E+01   -0.53986E+01 18176   0.312E+01    0.179E+01
DAV:   2     0.361137162464E+03   -0.72178E+02   -0.28865E+02 29568   0.424E+01    0.318E+01
DAV:   3     0.417920946137E+03    0.56784E+02   -0.74524E+01 24896   0.184E+01    0.194E+01
DAV:   4     0.423274465266E+03    0.53535E+01   -0.95942E+00 21440   0.417E+00    0.177E+01
DAV:   5     0.420848627537E+03   -0.24258E+01   -0.63279E-01 19712   0.242E+00    0.189E+01
DAV:   6     0.432877561996E+03    0.12029E+02   -0.13419E+01 20288   0.848E+00    0.215E+01
DAV:   7     0.432660004426E+03   -0.21756E+00   -0.99717E+00 19648   0.266E+00    0.247E+01
DAV:   8     0.435065603728E+03    0.24056E+01   -0.10848E+01 22464   0.287E+00    0.114E+01
DAV:   9     0.426114562621E+03   -0.89510E+01   -0.91215E+00 23360   0.418E+00    0.454E+01
DAV:  10     0.434480381356E+03    0.83658E+01   -0.57024E+00 21696   0.281E+00    0.182E+01
DAV:  11     0.435728365823E+03    0.12480E+01   -0.66937E+00 23168   0.324E+00    0.772E+00
DAV:  12     0.434520343676E+03   -0.12080E+01   -0.13074E+00 21312   0.272E+00    0.105E+01
DAV:  13     0.433981381594E+03   -0.53896E+00   -0.56642E-02 24064   0.542E-01    0.114E+01
DAV:  14     0.434994830213E+03    0.10134E+01   -0.27371E-02 22528   0.531E-01    0.909E+00
DAV:  15     0.435537666116E+03    0.54284E+00   -0.72178E-02 20544   0.609E-01    0.736E+00
DAV:  16     0.435846756058E+03    0.30909E+00   -0.13423E-02 22912   0.266E-01    0.574E+00
DAV:  17     0.435896532948E+03    0.49777E-01   -0.14891E-03 22848   0.102E-01    0.541E+00
DAV:  18     0.436142535301E+03    0.24600E+00   -0.35433E-02 21440   0.364E-01    0.322E+00
DAV:  19     0.436188373172E+03    0.45838E-01   -0.70018E-03 21248   0.182E-01    0.260E+00
DAV:  20     0.436210124316E+03    0.21751E-01   -0.38703E-03 20480   0.137E-01    0.228E+00
DAV:  21     0.436259373872E+03    0.49250E-01   -0.15180E-02 20352   0.248E-01    0.935E-01
DAV:  22     0.436252251854E+03   -0.71220E-02   -0.68547E-04 20480   0.751E-02    0.126E+00
DAV:  23     0.436262218721E+03    0.99669E-02   -0.99206E-04 20672   0.736E-02    0.853E-01
DAV:  24     0.436268124562E+03    0.59058E-02   -0.17307E-03 20160   0.797E-02    0.491E-01
DAV:  25     0.436270880107E+03    0.27555E-02   -0.20506E-03 20032   0.919E-02    0.492E-02
DAV:  26     0.436270903723E+03    0.23616E-04   -0.10071E-04 18432   0.233E-02    0.375E-02
DAV:  27     0.436270892100E+03   -0.11624E-04   -0.71136E-05 20544   0.185E-02    0.646E-02
DAV:  28     0.436270926107E+03    0.34007E-04   -0.99404E-06 22208   0.791E-03    0.248E-02
DAV:  29     0.436270934039E+03    0.79323E-05   -0.79901E-06 18752   0.649E-03    0.142E-02
DAV:  30     0.436270938865E+03    0.48264E-05    0.45834E-07 20928   0.184E-03    0.846E-03
DAV:  31     0.436270937610E+03   -0.12553E-05   -0.28231E-07 22208   0.246E-03    0.196E-02
DAV:  32     0.436270940879E+03    0.32693E-05   -0.15425E-06 21696   0.286E-03    0.289E-03
DAV:  33     0.436270940871E+03   -0.84692E-08   -0.17202E-07  8704   0.932E-04
   7 F= 0.43627094E+03 E0= 0.43622477E+03  d E =0.138515E+00
       N       E                     dE             d eps       ncg     rms          rms(c)
DAV:   1     0.435972865157E+03   -0.29808E+00   -0.17095E+01 45440   0.182E+01    0.882E+00
DAV:   2     0.293455662569E+03   -0.14252E+03   -0.72989E+01 66048   0.172E+01    0.133E+02
DAV:   3     0.429089129708E+03    0.13563E+03   -0.60722E+02 60160   0.188E+01    0.163E+01
DAV:   4     0.424146132868E+03   -0.49430E+01   -0.42776E+00 65984   0.483E+00    0.162E+01
DAV:   5     0.428871912127E+03    0.47258E+01   -0.50565E-01 58880   0.209E+00    0.147E+01
DAV:   6     0.434270242319E+03    0.53983E+01   -0.41658E-01 63040   0.169E+00    0.835E+00
DAV:   7     0.435113225858E+03    0.84298E+00   -0.70275E-02 56704   0.653E-01    0.690E+00
DAV:   8     0.435592635178E+03    0.47941E+00   -0.50026E-02 57664   0.443E-01    0.593E+00
DAV:   9     0.436270296209E+03    0.67766E+00   -0.14648E-01 53888   0.755E-01    0.423E+00
DAV:  10     0.436569732632E+03    0.29944E+00   -0.38214E-01 54400   0.988E-01    0.370E+00
DAV:  11     0.436747350091E+03    0.17762E+00   -0.29269E-01 58752   0.131E+00    0.142E+00
DAV:  12     0.436741691145E+03   -0.56589E-02   -0.17833E-02 58880   0.284E-01    0.131E+00
DAV:  13     0.436605997509E+03   -0.13569E+00   -0.67237E-02 58368   0.355E-01    0.407E+00
DAV:  14     0.436507301347E+03   -0.98696E-01   -0.22333E-02 57472   0.261E-01    0.603E+00
DAV:  15     0.436749913212E+03    0.24261E+00   -0.30442E-01 62656   0.457E-01    0.115E+00
DAV:  16     0.436660357445E+03   -0.89556E-01   -0.12950E-01 61952   0.608E-01    0.307E+00
DAV:  17     0.436757225514E+03    0.96868E-01   -0.11955E-02 60160   0.243E-01    0.142E+00
DAV:  18     0.436759459331E+03    0.22338E-02   -0.22500E-03 51264   0.104E-01    0.134E+00
DAV:  19     0.436766938535E+03    0.74792E-02   -0.73276E-04 67456   0.666E-02    0.891E-01
DAV:  20     0.436763454558E+03   -0.34840E-02   -0.37892E-04 57088   0.436E-02    0.102E+00
DAV:  21     0.436765502001E+03    0.20474E-02   -0.60899E-05 54208   0.289E-02    0.103E+00
DAV:  22     0.436775214587E+03    0.97126E-02    0.64985E-05 61696   0.512E-02    0.624E-01
DAV:  23     0.436773423945E+03   -0.17906E-02   -0.10970E-04 59712   0.240E-02    0.756E-01
DAV:  24     0.436777796642E+03    0.43727E-02    0.68967E-05 61568   0.314E-02    0.526E-01
DAV:  25     0.436778973231E+03    0.11766E-02    0.46242E-05 52992   0.120E-02    0.482E-01
DAV:  26     0.436780971227E+03    0.19980E-02    0.14552E-04 51712   0.194E-02    0.338E-01
DAV:  27     0.436781776072E+03    0.80484E-03    0.31552E-05 55552   0.110E-02    0.267E-01
DAV:  28     0.436782623426E+03    0.84735E-03    0.11621E-04 55616   0.165E-02    0.137E-01
DAV:  29     0.436782835596E+03    0.21217E-03   -0.63430E-06 58368   0.114E-02    0.553E-02
DAV:  30     0.436782859810E+03    0.24214E-04    0.85347E-07 54592   0.335E-03    0.339E-02
DAV:  31     0.436782869601E+03    0.97903E-05   -0.27376E-06 59968   0.392E-03    0.657E-03
DAV:  32     0.436782870009E+03    0.40835E-06   -0.27662E-07 33984   0.138E-03
   8 F= 0.43678287E+03 E0= 0.43673465E+03  d E =0.144661E+00
       N       E                     dE             d eps       ncg     rms          rms(c)
DAV:   1     0.436537480955E+03   -0.24539E+00   -0.74306E+00 49920   0.980E+00    0.379E+00
DAV:   2     0.436701550686E+03    0.16407E+00   -0.23598E-01 52160   0.184E+00    0.226E+00
DAV:   3     0.432964292031E+03   -0.37373E+01   -0.28778E+00 67200   0.382E+00    0.147E+01
DAV:   4     0.436650394252E+03    0.36861E+01   -0.63913E-01 61376   0.247E+00    0.196E+00
DAV:   5     0.436774285498E+03    0.12389E+00    0.23567E-02 47872   0.552E-01    0.941E-01
DAV:   6     0.436759391060E+03   -0.14894E-01   -0.29405E-02 63872   0.344E-01    0.177E+00
DAV:   7     0.436782784936E+03    0.23394E-01   -0.12571E-02 64640   0.226E-01    0.951E-02
DAV:   8     0.436782711821E+03   -0.73115E-04   -0.41530E-04 48512   0.536E-02    0.142E-01
DAV:   9     0.436782805216E+03    0.93395E-04   -0.80416E-05 68096   0.345E-02    0.841E-02
DAV:  10     0.436782863541E+03    0.58325E-04   -0.19928E-05 63424   0.154E-02    0.295E-02
DAV:  11     0.436782852609E+03   -0.10932E-04   -0.34886E-06 55680   0.496E-03    0.467E-02
DAV:  12     0.436782870239E+03    0.17631E-04   -0.60255E-06 63104   0.625E-03    0.117E-03
DAV:  13     0.436782870206E+03   -0.33422E-07   -0.36354E-07 39808   0.143E-03
   9 F= 0.43678287E+03 E0= 0.43673465E+03  d E =0.144651E+00
       N       E                     dE             d eps       ncg     rms          rms(c)
DAV:   1     0.436670021886E+03   -0.11285E+00   -0.74867E+00 36288   0.119E+01    0.255E+00
DAV:   2     0.436743114030E+03    0.73092E-01   -0.28561E-01 46208   0.194E+00    0.147E+00
DAV:   3     0.436443341117E+03   -0.29977E+00   -0.85138E-03 52160   0.118E+00    0.575E+00
DAV:   4     0.436295539273E+03   -0.14780E+00   -0.11737E+00 56256   0.137E+00    0.647E+00
DAV:   5     0.436781463909E+03    0.48592E+00   -0.98558E-02 51776   0.858E-01    0.133E+00
DAV:   6     0.436794588851E+03    0.13125E-01   -0.21006E-02 49024   0.321E-01    0.554E-01
DAV:   7     0.436792961059E+03   -0.16278E-02   -0.20777E-03 50240   0.157E-01    0.852E-01
DAV:   8     0.436797683854E+03    0.47228E-02   -0.49125E-03 54080   0.154E-01    0.318E-01
DAV:   9     0.436798493750E+03    0.80990E-03   -0.54865E-04 54080   0.832E-02    0.185E-01
DAV:  10     0.436798592078E+03    0.98328E-04    0.91227E-07 44224   0.168E-02    0.158E-01
DAV:  11     0.436798787732E+03    0.19565E-03   -0.58858E-05 54784   0.175E-02    0.163E-02
DAV:  12     0.436798791632E+03    0.39000E-05   -0.36871E-06 45760   0.579E-03    0.826E-03
DAV:  13     0.436798791902E+03    0.26969E-06   -0.20804E-07 33408   0.150E-03
  10 F= 0.43679879E+03 E0= 0.43674997E+03  d E =0.146472E+00
       N       E                     dE             d eps       ncg     rms          rms(c)
DAV:   1     0.436477018773E+03   -0.32177E+00   -0.11368E+01 37376   0.134E+01    0.413E+00
DAV:   2     0.436662307576E+03    0.18529E+00   -0.54393E-01 47104   0.254E+00    0.260E+00
DAV:   3     0.433169749313E+03   -0.34926E+01   -0.33058E+00 54912   0.368E+00    0.142E+01
DAV:   4     0.435942686920E+03    0.27729E+01   -0.87452E-01 51456   0.244E+00    0.761E+00
DAV:   5     0.436397968056E+03    0.45528E+00   -0.20258E+00 54208   0.149E+00    0.589E+00
DAV:   6     0.436778664444E+03    0.38070E+00   -0.12070E-01 53696   0.676E-01    0.127E+00
DAV:   7     0.436775731423E+03   -0.29330E-02   -0.14103E-03 42048   0.205E-01    0.151E+00
DAV:   8     0.436798297776E+03    0.22566E-01   -0.76428E-03 54144   0.195E-01    0.147E-01
DAV:   9     0.436795651847E+03   -0.26459E-02   -0.18914E-03 50368   0.131E-01    0.632E-01
DAV:  10     0.436798705071E+03    0.30532E-02   -0.12457E-03 53632   0.805E-02    0.586E-02
DAV:  11     0.436798752741E+03    0.47671E-04   -0.32788E-05 42368   0.188E-02    0.397E-02
DAV:  12     0.436798738392E+03   -0.14349E-04   -0.10163E-06 50752   0.117E-02    0.806E-02
DAV:  13     0.436798791513E+03    0.53121E-04   -0.16386E-05 54336   0.102E-02    0.704E-03
DAV:  14     0.436798791757E+03    0.24455E-06   -0.11998E-06 40768   0.248E-03
  11 F= 0.43679879E+03 E0= 0.43674994E+03  d E =0.146549E+00
       N       E                     dE             d eps       ncg     rms          rms(c)
DAV:   1     0.436649853833E+03   -0.14894E+00   -0.60519E+00 41472   0.903E+00    0.257E+00
DAV:   2     0.436731336795E+03    0.81483E-01   -0.28315E-01 47936   0.179E+00    0.170E+00
DAV:   3     0.434957605741E+03   -0.17737E+01   -0.15251E+00 55488   0.246E+00    0.115E+01
DAV:   4     0.436494209923E+03    0.15366E+01   -0.78092E-01 53184   0.186E+00    0.422E+00
DAV:   5     0.436753074367E+03    0.25886E+00   -0.34168E-01 53952   0.802E-01    0.218E+00
DAV:   6     0.436794087523E+03    0.41013E-01   -0.39944E-02 53696   0.408E-01    0.793E-01
DAV:   7     0.436793475441E+03   -0.61208E-03   -0.25652E-03 42048   0.181E-01    0.845E-01
DAV:   8     0.436797824328E+03    0.43489E-02   -0.53141E-03 54080   0.155E-01    0.328E-01
DAV:   9     0.436798533631E+03    0.70930E-03   -0.80411E-04 52544   0.915E-02    0.202E-01
DAV:  10     0.436798798820E+03    0.26519E-03   -0.37752E-05 52288   0.259E-02    0.504E-02
DAV:  11     0.436798813321E+03    0.14501E-04   -0.18374E-05 50240   0.981E-03    0.197E-02
DAV:  12     0.436798807294E+03   -0.60271E-05   -0.17194E-06 49472   0.421E-03    0.485E-03
DAV:  13     0.436798802528E+03   -0.47657E-05   -0.21683E-07 21248   0.147E-03    0.412E-03
DAV:  14     0.436798802133E+03   -0.39503E-06   -0.33659E-08 19264   0.586E-04
  12 F= 0.43679880E+03 E0= 0.43674994E+03  d E =0.146597E+00
       N       E                     dE             d eps       ncg     rms          rms(c)
DAV:   1     0.436474927759E+03   -0.32387E+00   -0.10834E+01 38400   0.130E+01    0.413E+00
DAV:   2     0.436661018072E+03    0.18609E+00   -0.53339E-01 48576   0.252E+00    0.260E+00
DAV:   3     0.433265266808E+03   -0.33958E+01   -0.32447E+00 54272   0.364E+00    0.141E+01
DAV:   4     0.435915541484E+03    0.26503E+01   -0.94742E-01 51264   0.242E+00    0.791E+00
DAV:   5     0.436377800040E+03    0.46226E+00   -0.22093E+00 54016   0.154E+00    0.602E+00
DAV:   6     0.436775190381E+03    0.39739E+00   -0.12113E-01 53440   0.679E-01    0.140E+00
DAV:   7     0.436774925119E+03   -0.26526E-03   -0.16866E-03 42176   0.205E-01    0.154E+00
DAV:   8     0.436798236613E+03    0.23311E-01   -0.78046E-03 54336   0.194E-01    0.158E-01
DAV:   9     0.436795784510E+03   -0.24521E-02   -0.19922E-03 50432   0.133E-01    0.620E-01
DAV:  10     0.436798697788E+03    0.29133E-02   -0.11336E-03 53760   0.800E-02    0.638E-02
DAV:  11     0.436798748593E+03    0.50805E-04   -0.25758E-05 41088   0.183E-02    0.520E-02
DAV:  12     0.436798738480E+03   -0.10112E-04    0.38769E-06 49408   0.108E-02    0.877E-02
DAV:  13     0.436798801911E+03    0.63430E-04   -0.17284E-05 54144   0.103E-02    0.235E-03
DAV:  14     0.436798801732E+03   -0.17899E-06   -0.18354E-06 43008   0.263E-03
  13 F= 0.43679880E+03 E0= 0.43674997E+03  d E =0.146487E+00
       N       E                     dE             d eps       ncg     rms          rms(c)
DAV:   1     0.436717475551E+03   -0.81326E-01   -0.46637E+00 25920   0.110E+01    0.156E+00
DAV:   2     0.436367564857E+03   -0.34991E+00   -0.14252E-01 34624   0.196E+00    0.100E+01
DAV:   3     0.436710763324E+03    0.34320E+00   -0.24785E-01 38272   0.901E-01    0.247E+00
DAV:   4     0.434855504114E+03   -0.18553E+01   -0.11721E+00 34432   0.160E+00    0.286E+01
DAV:   5     0.436654534709E+03    0.17990E+01   -0.65671E+00 37760   0.240E+00    0.367E+00
DAV:   6     0.436601858888E+03   -0.52676E-01   -0.49739E-02 31168   0.820E-01    0.431E+00
DAV:   7     0.436603486805E+03    0.16279E-02   -0.86187E-03 34496   0.438E-01    0.481E+00
DAV:   8     0.436652575452E+03    0.49089E-01   -0.35410E-03 37568   0.259E-01    0.438E+00
DAV:   9     0.436744168491E+03    0.91593E-01    0.99497E-03 32640   0.286E-01    0.224E+00
DAV:  10     0.436763381056E+03    0.19213E-01    0.95627E-04 31680   0.152E-01    0.141E+00
DAV:  11     0.436771690264E+03    0.83092E-02    0.63414E-04 32640   0.828E-02    0.942E-01
DAV:  12     0.436776462520E+03    0.47723E-02    0.38472E-04 31872   0.728E-02    0.505E-01
DAV:  13     0.436777769491E+03    0.13070E-02    0.21609E-03 30144   0.113E-01    0.425E-01
DAV:  14     0.436777878920E+03    0.10943E-03   -0.10360E-04 34816   0.667E-02    0.410E-01
DAV:  15     0.436778624752E+03    0.74583E-03    0.23966E-04 33408   0.608E-02    0.185E-01
DAV:  16     0.436778773041E+03    0.14829E-03    0.10265E-04 31296   0.351E-02    0.929E-02
DAV:  17     0.436778745475E+03   -0.27566E-04    0.30203E-05 35072   0.219E-02    0.128E-01
DAV:  18     0.436778757003E+03    0.11527E-04   -0.58466E-06 35328   0.194E-02    0.132E-01
DAV:  19     0.436778825831E+03    0.68828E-04   -0.10230E-05 37184   0.169E-02    0.571E-02
DAV:  20     0.436778836231E+03    0.10400E-04    0.52787E-06 33024   0.923E-03    0.358E-02
DAV:  21     0.436778840357E+03    0.41260E-05   -0.82781E-07 31296   0.392E-03    0.285E-02
DAV:  22     0.436778842977E+03    0.26207E-05   -0.24697E-07 29952   0.338E-03    0.153E-02
DAV:  23     0.436778842551E+03   -0.42662E-06    0.28348E-06 31360   0.282E-03
  14 F= 0.43677884E+03 E0= 0.43673010E+03  d E =0.146233E+00
       N       E                     dE             d eps       ncg     rms          rms(c)
DAV:   1     0.436782628361E+03    0.37854E-02   -0.26696E+00 25600   0.113E+01    0.468E-01
DAV:   2     0.435233914720E+03   -0.15487E+01    0.10235E-01 33408   0.159E+00    0.219E+01
DAV:   3     0.436674533451E+03    0.14406E+01   -0.30765E+00 38144   0.139E+00    0.349E+00
DAV:   4     0.436755949592E+03    0.81416E-01   -0.49927E-02 35776   0.555E-01    0.225E+00
DAV:   5     0.436751419667E+03   -0.45299E-02   -0.13647E-02 38656   0.362E-01    0.176E+00
DAV:   6     0.436764662115E+03    0.13242E-01   -0.16802E-03 39616   0.231E-01    0.131E+00
DAV:   7     0.436775017871E+03    0.10356E-01   -0.21826E-03 38912   0.182E-01    0.700E-01
DAV:   8     0.436777712578E+03    0.26947E-02    0.65879E-04 33344   0.819E-02    0.310E-01
DAV:   9     0.436778039669E+03    0.32709E-03    0.64297E-05 35840   0.456E-02    0.255E-01
DAV:  10     0.436778568575E+03    0.52891E-03   -0.68550E-06 38400   0.499E-02    0.159E-01
DAV:  11     0.436775293019E+03   -0.32756E-02   -0.17909E-03 37696   0.117E-01    0.690E-01
DAV:  12     0.436776390453E+03    0.10974E-02   -0.37405E-05 28288   0.528E-02    0.549E-01
DAV:  13     0.436778537560E+03    0.21471E-02   -0.23473E-04 37824   0.523E-02    0.188E-01
DAV:  14     0.436778756048E+03    0.21849E-03   -0.64233E-05 37760   0.250E-02    0.108E-01
DAV:  15     0.436778792381E+03    0.36333E-04   -0.38422E-06 32320   0.126E-02    0.851E-02
DAV:  16     0.436778838658E+03    0.46277E-04    0.35481E-06 37696   0.108E-02    0.223E-02
DAV:  17     0.436778842353E+03    0.36945E-05   -0.56672E-07 33216   0.557E-03    0.815E-03
DAV:  18     0.436778842963E+03    0.61038E-06   -0.35976E-07 27200   0.273E-03
  15 F= 0.43677884E+03 E0= 0.43673008E+03  d E =0.146289E+00
       N       E                     dE             d eps       ncg     rms          rms(c)
DAV:   1     0.436780402110E+03    0.15598E-02   -0.16466E+00 15360   0.912E+00    0.386E-01
DAV:   2     0.435380842132E+03   -0.13996E+01   -0.27934E-01 22656   0.141E+00    0.202E+01
DAV:   3     0.436698542619E+03    0.13177E+01   -0.19944E+00 23168   0.131E+00    0.308E+00
DAV:   4     0.436757533381E+03    0.58991E-01   -0.69901E-02 22272   0.511E-01    0.229E+00
DAV:   5     0.436759124494E+03    0.15911E-02   -0.20091E-02 22912   0.292E-01    0.151E+00
DAV:   6     0.436772333850E+03    0.13209E-01   -0.15642E-03 22976   0.166E-01    0.833E-01
DAV:   7     0.436777381830E+03    0.50480E-02   -0.12089E-03 23104   0.125E-01    0.329E-01
DAV:   8     0.436777745185E+03    0.36336E-03   -0.54498E-05 20672   0.460E-02    0.320E-01
DAV:   9     0.436778008342E+03    0.26316E-03   -0.32148E-05 23936   0.312E-02    0.272E-01
DAV:  10     0.436778229877E+03    0.22153E-03   -0.60593E-04 24000   0.890E-02    0.173E-01
DAV:  11     0.436777543178E+03   -0.68670E-03   -0.24649E-04 23936   0.661E-02    0.351E-01
DAV:  12     0.436778450350E+03    0.90717E-03   -0.23406E-04 23168   0.384E-02    0.922E-02
DAV:  13     0.436778513636E+03    0.63286E-04   -0.51601E-05 23296   0.224E-02    0.500E-02
DAV:  14     0.436778521025E+03    0.73889E-05   -0.25667E-06 21952   0.105E-02    0.366E-02
DAV:  15     0.436778525294E+03    0.42690E-05   -0.21393E-06 18880   0.521E-03    0.216E-02
DAV:  16     0.436778530013E+03    0.47190E-05   -0.64721E-07 22400   0.437E-03    0.750E-03
DAV:  17     0.436778530307E+03    0.29359E-06   -0.24958E-07 11904   0.200E-03
  16 F= 0.43677853E+03 E0= 0.43672980E+03  d E =0.146188E+00
       N       E                     dE             d eps       ncg     rms          rms(c)
DAV:   1     0.436783095937E+03    0.45659E-02   -0.32567E+00 15552   0.130E+01    0.730E-01
DAV:   2     0.431260983110E+03   -0.55221E+01   -0.16083E+00 22976   0.262E+00    0.429E+01
DAV:   3     0.436211838809E+03    0.49509E+01   -0.11608E+01 22656   0.283E+00    0.738E+00
DAV:   4     0.436702913454E+03    0.49107E+00   -0.26941E-01 21824   0.113E+00    0.435E+00
DAV:   5     0.436602380255E+03   -0.10053E+00   -0.16174E-01 22976   0.673E-01    0.419E+00
DAV:   6     0.436690055821E+03    0.87676E-01   -0.10872E-02 23040   0.380E-01    0.325E+00
DAV:   7     0.436720741687E+03    0.30686E-01   -0.47564E-03 21952   0.305E-01    0.271E+00
DAV:   8     0.436749753738E+03    0.29012E-01   -0.22078E-03 22144   0.232E-01    0.163E+00
DAV:   9     0.436756266195E+03    0.65125E-02   -0.24520E-04 18624   0.859E-02    0.146E+00
DAV:  10     0.436758512499E+03    0.22463E-02   -0.53641E-05 24000   0.238E-02    0.139E+00
DAV:  11     0.436769815782E+03    0.11303E-01   -0.16113E-03 23104   0.984E-02    0.898E-01
DAV:  12     0.436774517369E+03    0.47016E-02   -0.99344E-04 23232   0.101E-01    0.689E-01
DAV:  13     0.436778007863E+03    0.34905E-02    0.56075E-05 21312   0.913E-02    0.217E-01
DAV:  14     0.436778141188E+03    0.13333E-03   -0.33689E-04 22336   0.792E-02    0.278E-01
DAV:  15     0.436778074693E+03   -0.66495E-04   -0.63282E-05 19840   0.333E-02    0.269E-01
DAV:  16     0.436778297559E+03    0.22287E-03   -0.11315E-05 22784   0.213E-02    0.185E-01
DAV:  17     0.436778530669E+03    0.23311E-03   -0.34514E-05 22784   0.232E-02    0.124E-02
DAV:  18     0.436778523475E+03   -0.71937E-05   -0.77933E-06 20032   0.149E-02    0.323E-02
DAV:  19     0.436778528564E+03    0.50886E-05   -0.52048E-07 21504   0.900E-03    0.163E-02
DAV:  20     0.436778530059E+03    0.14947E-05   -0.18594E-07 14912   0.301E-03    0.116E-02
DAV:  21     0.436778531220E+03    0.11619E-05   -0.39749E-07 17408   0.183E-03    0.240E-03
DAV:  22     0.436778531236E+03    0.15203E-07   -0.47559E-08  8384   0.546E-04
  17 F= 0.43677853E+03 E0= 0.43672978E+03  d E =0.146253E+00
       N       E                     dE             d eps       ncg     rms          rms(c)
DAV:   1     0.253830384873E+04    0.21015E+04   -0.85408E-01 26176   0.659E+00    0.415E-01
DAV:   2     0.253722547463E+04   -0.10784E+01   -0.24100E-01 35392   0.151E+00    0.162E+01
DAV:   3     0.253821155285E+04    0.98608E+00   -0.19991E+00 37568   0.120E+00    0.361E+00
DAV:   4     0.253827850521E+04    0.66952E-01    0.10440E-02 33088   0.455E-01    0.221E+00
DAV:   5     0.253825844480E+04   -0.20060E-01    0.27905E-03 36224   0.386E-01    0.304E+00
DAV:   6     0.253827005285E+04    0.11608E-01   -0.27664E-02 36352   0.650E-01    0.241E+00
DAV:   7     0.253828981558E+04    0.19763E-01    0.44656E-02 35072   0.258E-01    0.132E+00
DAV:   8     0.253829015598E+04    0.34040E-03    0.10068E-02 38720   0.384E-01    0.142E+00
DAV:   9     0.253829613053E+04    0.59746E-02    0.66178E-03 35200   0.108E-01    0.939E-01
DAV:  10     0.253829295437E+04   -0.31762E-02    0.51519E-03 30976   0.108E-01    0.127E+00
DAV:  11     0.253830113222E+04    0.81779E-02    0.38139E-03 37504   0.121E-01    0.349E-01
DAV:  12     0.253829936588E+04   -0.17663E-02    0.17265E-03 32064   0.577E-02    0.701E-01
DAV:  13     0.253830142806E+04    0.20622E-02    0.14807E-03 34240   0.496E-02    0.251E-01
DAV:  14     0.253830023747E+04   -0.11906E-02    0.99691E-04 34304   0.424E-02    0.588E-01
DAV:  15     0.253830165856E+04    0.14211E-02    0.10128E-03 36736   0.420E-02    0.138E-01
DAV:  16     0.253830160032E+04   -0.58243E-04   -0.14034E-05 31552   0.155E-02    0.195E-01
DAV:  17     0.253830174571E+04    0.14539E-03    0.20330E-05 33024   0.851E-03    0.975E-02
DAV:  18     0.253830179794E+04    0.52234E-04    0.12971E-06 36480   0.700E-03    0.410E-02
DAV:  19     0.253830180694E+04    0.89979E-05   -0.14670E-07 35840   0.393E-03    0.253E-02
DAV:  20     0.253830180946E+04    0.25188E-05    0.11281E-06 33088   0.211E-03    0.141E-02
DAV:  21     0.253830180924E+04   -0.21992E-06   -0.29214E-07 29056   0.183E-03
  18 F= 0.25383018E+04 E0= 0.25382531E+04  d E =0.146235E+00
       N       E                     dE             d eps       ncg     rms          rms(c)
DAV:   1     0.253830048019E+04   -0.13293E-02   -0.19033E-01 25600   0.786E-01    0.271E-01
DAV:   2     0.253829671014E+04   -0.37700E-02   -0.16440E-02 43712   0.873E-01    0.655E-01
DAV:   3     0.253825074182E+04   -0.45968E-01    0.17411E-02 40320   0.634E-01    0.391E+00
DAV:   4     0.253829889540E+04    0.48154E-01   -0.50099E-02 37568   0.302E-01    0.821E-01
DAV:   5     0.253829822372E+04   -0.67168E-03   -0.95625E-04 36224   0.112E-01    0.930E-01
DAV:   6     0.253827823674E+04   -0.19987E-01    0.12791E-02 34496   0.199E-01    0.233E+00
DAV:   7     0.253830132761E+04    0.23091E-01    0.15721E-02 37504   0.165E-01    0.334E-01
DAV:   8     0.253830001506E+04   -0.13125E-02    0.38934E-04 31616   0.650E-02    0.582E-01
DAV:   9     0.253829745729E+04   -0.25578E-02    0.32541E-03 32000   0.873E-02    0.812E-01
DAV:  10     0.253830140966E+04    0.39524E-02    0.10732E-03 38016   0.837E-02    0.291E-01
DAV:  11     0.253830168075E+04    0.27109E-03    0.58550E-04 32192   0.305E-02    0.155E-01
DAV:  12     0.253830150919E+04   -0.17156E-03    0.26568E-04 32064   0.197E-02    0.241E-01
DAV:  13     0.253830170268E+04    0.19349E-03    0.29774E-04 33792   0.174E-02    0.136E-01
DAV:  14     0.253830175516E+04    0.52478E-04   -0.20239E-06 32576   0.880E-03    0.106E-01
DAV:  15     0.253830167339E+04   -0.81766E-04    0.65276E-05 32192   0.110E-02    0.172E-01
DAV:  16     0.253830180681E+04    0.13342E-03    0.46169E-05 36672   0.113E-02    0.256E-02
DAV:  17     0.253830180907E+04    0.22592E-05    0.78169E-07 27968   0.266E-03    0.131E-02
DAV:  18     0.253830180985E+04    0.77888E-06    0.45301E-07 16512   0.111E-03
  19 F= 0.25383018E+04 E0= 0.25382530E+04  d E =0.146489E+00
       N       E                     dE             d eps       ncg     rms          rms(c)
DAV:   1     0.253830095813E+04   -0.85094E-03   -0.11982E-01 15360   0.635E-01    0.166E-01
DAV:   2     0.253829503254E+04   -0.59256E-02   -0.61627E-03 25664   0.348E-01    0.973E-01
DAV:   3     0.253824450355E+04   -0.50529E-01    0.34681E-02 18304   0.288E-01    0.462E+00
DAV:   4     0.253829471550E+04    0.50212E-01   -0.96951E-02 21376   0.305E-01    0.117E+00
DAV:   5     0.253830037085E+04    0.56554E-02    0.71289E-03 18176   0.116E-01    0.484E-01
DAV:   6     0.253829558491E+04   -0.47859E-02   -0.90852E-04 22784   0.126E-01    0.956E-01
DAV:   7     0.253829832527E+04    0.27404E-02    0.25434E-03 22848   0.137E-01    0.890E-01
DAV:   8     0.253830151975E+04    0.31945E-02    0.29362E-03 21056   0.652E-02    0.181E-01
DAV:   9     0.253829973867E+04   -0.17811E-02    0.21109E-03 19328   0.536E-02    0.640E-01
DAV:  10     0.253830157676E+04    0.18381E-02    0.11922E-03 22912   0.510E-02    0.221E-01
DAV:  11     0.253830160959E+04    0.32822E-04    0.27524E-04 18816   0.268E-02    0.195E-01
DAV:  12     0.253830182051E+04    0.21093E-03    0.16839E-04 19136   0.266E-02    0.102E-01
DAV:  13     0.253830183343E+04    0.12914E-04    0.21381E-05 19904   0.132E-02    0.107E-01
DAV:  14     0.253830187416E+04    0.40734E-04    0.25593E-06 23232   0.932E-03    0.780E-02
DAV:  15     0.253830190357E+04    0.29411E-04    0.13813E-05 17856   0.584E-03    0.294E-02
DAV:  16     0.253830190759E+04    0.40168E-05    0.16259E-06 18432   0.273E-03    0.166E-02
DAV:  17     0.253830191030E+04    0.27113E-05    0.26108E-06 18880   0.444E-03    0.950E-03
DAV:  18     0.253830191037E+04    0.65982E-07    0.42959E-07 20352   0.525E-03
  20 F= 0.25383019E+04 E0= 0.25382532E+04  d E =0.146230E+00
       N       E                     dE             d eps       ncg     rms          rms(c)
DAV:   1     0.253830064436E+04   -0.12659E-02   -0.24137E-01 15360   0.896E-01    0.235E-01
DAV:   2     0.253829221237E+04   -0.84320E-02   -0.26917E-02 24896   0.560E-01    0.791E-01
DAV:   3     0.253828105101E+04   -0.11161E-01   -0.31427E-04 24000   0.426E-01    0.195E+00
DAV:   4     0.253830062595E+04    0.19575E-01    0.11725E-02 22976   0.161E-01    0.518E-01
DAV:   5     0.253829724778E+04   -0.33782E-02   -0.25574E-04 20608   0.969E-02    0.107E+00
DAV:   6     0.253828560791E+04   -0.11640E-01   -0.22678E-03 22464   0.168E-01    0.168E+00
DAV:   7     0.253829441986E+04    0.88119E-02    0.65681E-03 21632   0.188E-01    0.121E+00
DAV:   8     0.253830171369E+04    0.72938E-02    0.48493E-03 21376   0.976E-02    0.209E-01
DAV:   9     0.253830043412E+04   -0.12796E-02    0.11806E-03 17920   0.504E-02    0.547E-01
DAV:  10     0.253830160711E+04    0.11730E-02    0.91709E-04 20288   0.458E-02    0.254E-01
DAV:  11     0.253830184268E+04    0.23557E-03    0.37444E-04 19328   0.201E-02    0.128E-01
DAV:  12     0.253830188235E+04    0.39663E-04    0.48590E-05 22848   0.124E-02    0.692E-02
DAV:  13     0.253830190181E+04    0.19464E-04    0.15045E-08 18816   0.546E-03    0.465E-02
DAV:  14     0.253830190621E+04    0.44018E-05    0.34509E-06 21760   0.496E-03    0.307E-02
DAV:  15     0.253830191038E+04    0.41659E-05    0.21207E-08 17152   0.224E-03    0.161E-02
DAV:  16     0.253830191139E+04    0.10107E-05    0.67904E-07 17792   0.164E-03    0.816E-03
DAV:  17     0.253830191169E+04    0.30156E-06   -0.12152E-08  8192   0.778E-04
  21 F= 0.25383019E+04 E0= 0.25382531E+04  d E =0.146348E+00
       N       E                     dE             d eps       ncg     rms          rms(c)
DAV:   1     0.253830078722E+04   -0.11242E-02   -0.49737E-01 25600   0.115E+00    0.140E-01
DAV:   2     0.253830022035E+04   -0.56687E-03   -0.13898E-03 25856   0.109E-01    0.316E-01
DAV:   3     0.253829903492E+04   -0.11854E-02    0.47276E-04 41344   0.642E-02    0.620E-01
DAV:   4     0.253829654183E+04   -0.24931E-02    0.12269E-03 38464   0.122E-01    0.964E-01
DAV:   5     0.253830033191E+04    0.37901E-02    0.47212E-03 36480   0.846E-02    0.252E-01
DAV:   6     0.253829390379E+04   -0.64281E-02    0.62555E-03 32640   0.118E-01    0.113E+00
DAV:   7     0.253829983028E+04    0.59265E-02    0.59122E-03 37632   0.141E-01    0.384E-01
DAV:   8     0.253830062986E+04    0.79958E-03    0.87097E-05 38080   0.509E-02    0.223E-01
DAV:   9     0.253830030734E+04   -0.32252E-03    0.60541E-04 35072   0.452E-02    0.338E-01
DAV:  10     0.253830087249E+04    0.56515E-03    0.17928E-04 41152   0.662E-02    0.860E-02
DAV:  11     0.253830072494E+04   -0.14754E-03    0.24811E-04 33408   0.197E-02    0.195E-01
DAV:  12     0.253830090737E+04    0.18242E-03    0.14401E-04 38272   0.298E-02    0.553E-02
DAV:  13     0.253830090761E+04    0.24686E-06    0.28187E-05 33152   0.723E-03    0.569E-02
DAV:  14     0.253830092576E+04    0.18142E-04    0.14741E-05 33280   0.744E-03    0.334E-02
DAV:  15     0.253830092721E+04    0.14541E-05    0.41222E-06 32128   0.331E-03    0.302E-02
DAV:  16     0.253830094057E+04    0.13365E-04   -0.11059E-06 37120   0.674E-03    0.100E-02
DAV:  17     0.253830094666E+04    0.60861E-05   -0.81062E-07 34688   0.473E-03    0.764E-03
DAV:  18     0.253830095308E+04    0.64193E-05   -0.25883E-06 36992   0.677E-03    0.722E-03
DAV:  19     0.253830095536E+04    0.22836E-05   -0.63022E-07 29952   0.377E-03    0.406E-03
DAV:  20     0.253830095638E+04    0.10181E-05   -0.30021E-07 21632   0.257E-03    0.332E-03
DAV:  21     0.253830095709E+04    0.71248E-06   -0.36412E-07 25792   0.267E-03
  22 F= 0.25383010E+04 E0= 0.25382522E+04  d E =0.146392E+00
       N       E                     dE             d eps       ncg     rms          rms(c)
DAV:   1     0.253830151383E+04    0.55744E-03   -0.13771E+00 25600   0.178E+00    0.231E-01
DAV:   2     0.253830033832E+04   -0.11755E-02   -0.17714E-03 25600   0.156E-01    0.450E-01
DAV:   3     0.253829767196E+04   -0.26664E-02    0.20013E-03 34304   0.940E-02    0.851E-01
DAV:   4     0.253828282658E+04   -0.14845E-01    0.21438E-03 39872   0.296E-01    0.204E+00
DAV:   5     0.253829961996E+04    0.16793E-01    0.85629E-03 37952   0.183E-01    0.471E-01
DAV:   6     0.253828771079E+04   -0.11909E-01    0.66664E-03 37632   0.202E-01    0.161E+00
DAV:   7     0.253829745152E+04    0.97407E-02    0.11321E-02 38016   0.219E-01    0.798E-01
DAV:   8     0.253830047675E+04    0.30252E-02    0.60774E-04 38144   0.969E-02    0.316E-01
DAV:   9     0.253830032981E+04   -0.14694E-03    0.13627E-03 33536   0.450E-02    0.331E-01
DAV:  10     0.253830052189E+04    0.19207E-03    0.40255E-04 38208   0.469E-02    0.310E-01
DAV:  11     0.253830090909E+04    0.38720E-03    0.15271E-04 33920   0.197E-02    0.988E-02
DAV:  12     0.253830084838E+04   -0.60703E-04    0.68503E-05 33024   0.130E-02    0.151E-01
DAV:  13     0.253830094628E+04    0.97895E-04    0.89497E-05 34560   0.108E-02    0.420E-02
DAV:  14     0.253830095096E+04    0.46860E-05    0.34777E-06 29760   0.498E-03    0.365E-02
DAV:  15     0.253830095453E+04    0.35636E-05    0.58911E-06 33088   0.297E-03    0.238E-02
DAV:  16     0.253830095718E+04    0.26554E-05    0.12342E-06 32192   0.208E-03    0.435E-03
DAV:  17     0.253830095684E+04   -0.34293E-06   -0.10021E-07 14912   0.110E-03
  23 F= 0.25383010E+04 E0= 0.25382522E+04  d E =0.146311E+00
       N       E                     dE             d eps       ncg     rms          rms(c)
DAV:   1     0.253830087514E+04   -0.82046E-04   -0.87542E-01 15360   0.143E+00    0.151E-01
DAV:   2     0.253829942183E+04   -0.14533E-02   -0.14342E-03 15360   0.113E-01    0.517E-01
DAV:   3     0.253829981924E+04    0.39741E-03    0.11257E-03 22528   0.600E-02    0.466E-01
DAV:   4     0.253829362884E+04   -0.61904E-02    0.22644E-03 21632   0.114E-01    0.120E+00
DAV:   5     0.253830012138E+04    0.64925E-02    0.57923E-03 21952   0.102E-01    0.327E-01
DAV:   6     0.253829649341E+04   -0.36280E-02    0.32712E-03 18304   0.875E-02    0.866E-01
DAV:   7     0.253829889606E+04    0.24026E-02    0.31722E-03 22016   0.112E-01    0.524E-01
DAV:   8     0.253830019228E+04    0.12962E-02    0.82049E-04 23040   0.642E-02    0.338E-01
DAV:   9     0.253830009846E+04   -0.93818E-04    0.10008E-03 22464   0.481E-02    0.354E-01
DAV:  10     0.253830080021E+04    0.70175E-03    0.20650E-04 23232   0.502E-02    0.979E-02
DAV:  11     0.253830073659E+04   -0.63620E-04    0.28842E-04 19968   0.172E-02    0.150E-01
DAV:  12     0.253830084338E+04    0.10679E-03    0.15923E-04 22016   0.161E-02    0.339E-02
DAV:  13     0.253830085047E+04    0.70836E-05    0.31334E-06 17856   0.376E-03    0.229E-02
DAV:  14     0.253830085345E+04    0.29817E-05    0.40894E-07 18688   0.267E-03    0.796E-03
DAV:  15     0.253830085382E+04    0.36567E-06    0.24173E-07  8640   0.112E-03
  24 F= 0.25383009E+04 E0= 0.25382521E+04  d E =0.146320E+00
       N       E                     dE             d eps       ncg     rms          rms(c)
DAV:   1     0.253830148261E+04    0.62916E-03   -0.17463E+00 15360   0.202E+00    0.174E-01
DAV:   2     0.253829987195E+04   -0.16107E-02   -0.21226E-03 15360   0.156E-01    0.521E-01
DAV:   3     0.253829957288E+04   -0.29907E-03    0.27901E-03 19200   0.729E-02    0.547E-01
DAV:   4     0.253829594589E+04   -0.36270E-02    0.25994E-03 21376   0.148E-01    0.982E-01
DAV:   5     0.253829922470E+04    0.32788E-02    0.78131E-03 21376   0.105E-01    0.574E-01
DAV:   6     0.253828995469E+04   -0.92700E-02    0.45169E-04 21504   0.132E-01    0.156E+00
DAV:   7     0.253829781813E+04    0.78634E-02    0.15816E-03 22720   0.135E-01    0.765E-01
DAV:   8     0.253830029378E+04    0.24757E-02    0.11120E-03 21760   0.765E-02    0.343E-01
DAV:   9     0.253830046796E+04    0.17419E-03    0.79505E-04 20992   0.454E-02    0.250E-01
DAV:  10     0.253829846205E+04   -0.20059E-02    0.19473E-03 18496   0.569E-02    0.679E-01
DAV:  11     0.253830081892E+04    0.23569E-02    0.21357E-03 20992   0.489E-02    0.849E-02
DAV:  12     0.253830084150E+04    0.22574E-04   -0.42542E-06 15424   0.109E-02    0.418E-02
DAV:  13     0.253830085060E+04    0.91093E-05    0.42988E-06 20928   0.431E-03    0.245E-02
DAV:  14     0.253830085313E+04    0.25203E-05    0.55595E-07 19456   0.249E-03    0.909E-03
DAV:  15     0.253830085293E+04   -0.19570E-06    0.62306E-07 10752   0.118E-03
  25 F= 0.25383009E+04 E0= 0.25382521E+04  d E =0.146257E+00
