<?xml version="1.0" encoding="ISO-8859-1"?>
<modeling>
 <generator>
  <i name="program" type="string">vasp </i>
  <i name="version" type="string">6.5.0  </i>
  <i name="subversion" type="string">16Dec24 (build Apr 17 2025 17:55:45) complex                          parallel </i>
  <i name="platform" type="string">LinuxIFC </i>
  <i name="date" type="string">2025 06 06 </i>
  <i name="time" type="string">14:18:55 </i>
 </generator>
 <incar>
  <i type="int" name="ISTART">     0</i>
  <i type="string" name="PREC">N</i>
  <i type="string" name="ALGO">N</i>
  <i type="int" name="ICHARG">     2</i>
  <i type="int" name="NELM">   500</i>
  <i type="int" name="IBRION">     6</i>
  <i type="int" name="NFREE">     2</i>
  <i name="EDIFF">      0.00000100</i>
  <i name="EDIFFG">     -0.00100000</i>
  <i type="int" name="NSW">     1</i>
  <i type="int" name="ISIF">     3</i>
  <i name="SYMPREC">      0.00000100</i>
  <i name="ENCUT">    600.00000000</i>
  <i name="POTIM">      0.01500000</i>
  <v name="VCA">      1.00000000      0.94000000      0.06000000</v>
  <i type="logical" name="LREAL"> F  </i>
  <i type="int" name="ISMEAR">     1</i>
  <i name="SIGMA">      0.20000000</i>
  <i type="int" name="LMAXMIX">     4</i>
 </incar>
 <primitive_cell>
  <structure name="primitive_cell" >
   <crystal>
    <varray name="basis" >
     <v>       2.78574814       0.00000000       0.00000000 </v>
     <v>       0.00000000       2.78574814       0.00000000 </v>
     <v>       0.00000000       0.00000000       3.99962943 </v>
    </varray>
    <i name="volume">     31.03869508 </i>
    <varray name="rec_basis" >
     <v>       0.35897000       0.00000000       0.00000000 </v>
     <v>       0.00000000       0.35897000       0.00000000 </v>
     <v>       0.00000000       0.00000000       0.25002316 </v>
    </varray>
   </crystal>
   <varray name="positions" >
    <v>       0.00000000       0.00000000       0.00000000 </v>
    <v>       0.50000000       0.50000000       0.50000000 </v>
    <v>       0.50000000       0.50000000       0.50000000 </v>
   </varray>
  </structure>
  <varray name="primitive_index" >
   <v type="int" >        1 </v>
   <v type="int" >        9 </v>
   <v type="int" >       17 </v>
  </varray>
 </primitive_cell>
 <kpoints>
  <generation param="Gamma">
   <v type="int" name="divisions">       9        9        6 </v>
   <v name="usershift">      0.00000000       0.00000000       0.00000000 </v>
   <v name="genvec1">      0.11111111       0.00000000       0.00000000 </v>
   <v name="genvec2">      0.00000000       0.11111111       0.00000000 </v>
   <v name="genvec3">      0.00000000       0.00000000       0.16666667 </v>
   <v name="shift">      0.00000000       0.00000000       0.00000000 </v>
  </generation>
  <varray name="kpointlist" >
   <v>       0.00000000       0.00000000       0.00000000 </v>
   <v>       0.11111111       0.00000000       0.00000000 </v>
   <v>       0.22222222       0.00000000       0.00000000 </v>
   <v>       0.33333333       0.00000000       0.00000000 </v>
   <v>       0.44444444       0.00000000       0.00000000 </v>
   <v>       0.11111111       0.11111111       0.00000000 </v>
   <v>       0.22222222       0.11111111       0.00000000 </v>
   <v>       0.33333333       0.11111111       0.00000000 </v>
   <v>       0.44444444       0.11111111       0.00000000 </v>
   <v>       0.22222222       0.22222222       0.00000000 </v>
   <v>       0.33333333       0.22222222       0.00000000 </v>
   <v>       0.44444444       0.22222222       0.00000000 </v>
   <v>       0.33333333       0.33333333       0.00000000 </v>
   <v>       0.44444444       0.33333333       0.00000000 </v>
   <v>       0.44444444       0.44444444       0.00000000 </v>
   <v>       0.00000000       0.00000000       0.16666667 </v>
   <v>       0.11111111       0.00000000       0.16666667 </v>
   <v>       0.22222222       0.00000000       0.16666667 </v>
   <v>       0.33333333       0.00000000       0.16666667 </v>
   <v>       0.44444444       0.00000000       0.16666667 </v>
   <v>       0.11111111       0.11111111       0.16666667 </v>
   <v>       0.22222222       0.11111111       0.16666667 </v>
   <v>       0.33333333       0.11111111       0.16666667 </v>
   <v>       0.44444444       0.11111111       0.16666667 </v>
   <v>       0.22222222       0.22222222       0.16666667 </v>
   <v>       0.33333333       0.22222222       0.16666667 </v>
   <v>       0.44444444       0.22222222       0.16666667 </v>
   <v>       0.33333333       0.33333333       0.16666667 </v>
   <v>       0.44444444       0.33333333       0.16666667 </v>
   <v>       0.44444444       0.44444444       0.16666667 </v>
   <v>       0.00000000       0.00000000       0.33333333 </v>
   <v>       0.11111111       0.00000000       0.33333333 </v>
   <v>       0.22222222       0.00000000       0.33333333 </v>
   <v>       0.33333333       0.00000000       0.33333333 </v>
   <v>       0.44444444       0.00000000       0.33333333 </v>
   <v>       0.11111111       0.11111111       0.33333333 </v>
   <v>       0.22222222       0.11111111       0.33333333 </v>
   <v>       0.33333333       0.11111111       0.33333333 </v>
   <v>       0.44444444       0.11111111       0.33333333 </v>
   <v>       0.22222222       0.22222222       0.33333333 </v>
   <v>       0.33333333       0.22222222       0.33333333 </v>
   <v>       0.44444444       0.22222222       0.33333333 </v>
   <v>       0.33333333       0.33333333       0.33333333 </v>
   <v>       0.44444444       0.33333333       0.33333333 </v>
   <v>       0.44444444       0.44444444       0.33333333 </v>
   <v>       0.00000000       0.00000000       0.50000000 </v>
   <v>       0.11111111       0.00000000       0.50000000 </v>
   <v>       0.22222222       0.00000000       0.50000000 </v>
   <v>       0.33333333       0.00000000       0.50000000 </v>
   <v>       0.44444444       0.00000000       0.50000000 </v>
   <v>       0.11111111       0.11111111       0.50000000 </v>
   <v>       0.22222222       0.11111111       0.50000000 </v>
   <v>       0.33333333       0.11111111       0.50000000 </v>
   <v>       0.44444444       0.11111111       0.50000000 </v>
   <v>       0.22222222       0.22222222       0.50000000 </v>
   <v>       0.33333333       0.22222222       0.50000000 </v>
   <v>       0.44444444       0.22222222       0.50000000 </v>
   <v>       0.33333333       0.33333333       0.50000000 </v>
   <v>       0.44444444       0.33333333       0.50000000 </v>
   <v>       0.44444444       0.44444444       0.50000000 </v>
  </varray>
  <varray name="weights" >
   <v>       0.00205761 </v>
   <v>       0.00823045 </v>
   <v>       0.00823045 </v>
   <v>       0.00823045 </v>
   <v>       0.00823045 </v>
   <v>       0.00823045 </v>
   <v>       0.01646091 </v>
   <v>       0.01646091 </v>
   <v>       0.01646091 </v>
   <v>       0.00823045 </v>
   <v>       0.01646091 </v>
   <v>       0.01646091 </v>
   <v>       0.00823045 </v>
   <v>       0.01646091 </v>
   <v>       0.00823045 </v>
   <v>       0.00411523 </v>
   <v>       0.01646091 </v>
   <v>       0.01646091 </v>
   <v>       0.01646091 </v>
   <v>       0.01646091 </v>
   <v>       0.01646091 </v>
   <v>       0.03292181 </v>
   <v>       0.03292181 </v>
   <v>       0.03292181 </v>
   <v>       0.01646091 </v>
   <v>       0.03292181 </v>
   <v>       0.03292181 </v>
   <v>       0.01646091 </v>
   <v>       0.03292181 </v>
   <v>       0.01646091 </v>
   <v>       0.00411523 </v>
   <v>       0.01646091 </v>
   <v>       0.01646091 </v>
   <v>       0.01646091 </v>
   <v>       0.01646091 </v>
   <v>       0.01646091 </v>
   <v>       0.03292181 </v>
   <v>       0.03292181 </v>
   <v>       0.03292181 </v>
   <v>       0.01646091 </v>
   <v>       0.03292181 </v>
   <v>       0.03292181 </v>
   <v>       0.01646091 </v>
   <v>       0.03292181 </v>
   <v>       0.01646091 </v>
   <v>       0.00205761 </v>
   <v>       0.00823045 </v>
   <v>       0.00823045 </v>
   <v>       0.00823045 </v>
   <v>       0.00823045 </v>
   <v>       0.00823045 </v>
   <v>       0.01646091 </v>
   <v>       0.01646091 </v>
   <v>       0.01646091 </v>
   <v>       0.00823045 </v>
   <v>       0.01646091 </v>
   <v>       0.01646091 </v>
   <v>       0.00823045 </v>
   <v>       0.01646091 </v>
   <v>       0.00823045 </v>
  </varray>
 </kpoints>
 <parameters>
  <separator name="general" >
   <i type="string" name="SYSTEM">unknown system</i>
   <i type="logical" name="LCOMPAT"> F  </i>
  </separator>
  <separator name="electronic" >
   <i type="string" name="PREC">n</i>
   <i name="ENMAX">    600.00000000</i>
   <i name="ENAUG">    490.69000000</i>
   <i name="EDIFF">      0.00000100</i>
   <i type="int" name="IALGO">    38</i>
   <i type="int" name="IWAVPR">    11</i>
   <i type="int" name="NBANDS">   128</i>
   <i type="int" name="NBANDSLOW">    -1</i>
   <i type="int" name="NBANDSHIGH">    -1</i>
   <i name="NELECT">    124.80000000</i>
   <i type="int" name="TURBO">     0</i>
   <i type="int" name="IRESTART">     0</i>
   <i type="int" name="NREBOOT">     0</i>
   <i type="int" name="NMIN">     0</i>
   <i name="EREF">      0.00000000</i>
   <separator name="electronic smearing" >
    <i type="int" name="ISMEAR">     1</i>
    <i name="SIGMA">      0.20000000</i>
    <i name="KSPACING">      0.50000000</i>
    <i type="logical" name="KGAMMA"> T  </i>
    <i type="logical" name="KBLOWUP"> T  </i>
   </separator>
   <separator name="electronic projectors" >
    <i type="logical" name="LREAL"> F  </i>
    <v name="ROPT">      0.00000000      0.00000000      0.00000000</v>
    <i type="int" name="LMAXPAW">  -100</i>
    <i type="int" name="LMAXMIX">     4</i>
    <i type="logical" name="NLSPLINE"> F  </i>
   </separator>
   <separator name="electronic startup" >
    <i type="int" name="ISTART">     0</i>
    <i type="int" name="ICHARG">     2</i>
    <i type="int" name="INIWAV">     1</i>
   </separator>
   <separator name="electronic spin" >
    <i type="int" name="ISPIN">     1</i>
    <i type="logical" name="LNONCOLLINEAR"> F  </i>
    <v name="MAGMOM">      1.00000000      1.00000000      1.00000000      1.00000000      1.00000000      1.00000000      1.00000000      1.00000000      1.00000000      1.00000000      1.00000000      1.00000000      1.00000000      1.00000000      1.00000000      1.00000000      1.00000000      1.00000000      1.00000000      1.00000000
      1.00000000      1.00000000      1.00000000      1.00000000</v>
    <i name="NUPDOWN">     -1.00000000</i>
    <i type="logical" name="LSORBIT"> F  </i>
    <v name="SAXIS">      0.00000000      0.00000000      1.00000000</v>
    <i type="logical" name="LSPIRAL"> F  </i>
    <v name="QSPIRAL">      0.00000000      0.00000000      0.00000000</v>
    <i type="logical" name="LZEROZ"> F  </i>
   </separator>
   <separator name="electronic exchange-correlation" >
    <i type="logical" name="LASPH"> F  </i>
   </separator>
   <separator name="electronic convergence" >
    <i type="int" name="NELM">   500</i>
    <i type="int" name="NELMDL">    -5</i>
    <i type="int" name="NELMIN">     2</i>
    <i name="ENINI">    600.00000000</i>
    <separator name="electronic convergence detail" >
     <i type="logical" name="LDIAG"> T  </i>
     <i type="logical" name="LSUBROT"> F  </i>
     <i name="WEIMIN">      0.00100000</i>
     <i name="EBREAK">      0.00000000</i>
     <i name="DEPER">      0.30000000</i>
     <i type="int" name="NRMM">     4</i>
     <i name="TIME">      0.40000000</i>
    </separator>
   </separator>
   <separator name="electronic mixer" >
    <i name="AMIX">      0.40000000</i>
    <i name="BMIX">      1.00000000</i>
    <i name="AMIN">      0.10000000</i>
    <i name="AMIX_MAG">      1.60000000</i>
    <i name="BMIX_MAG">      1.00000000</i>
    <separator name="electronic mixer details" >
     <i type="int" name="IMIX">     4</i>
     <i type="logical" name="MIXFIRST"> F  </i>
     <i type="int" name="MAXMIX">   -45</i>
     <i name="WC">    100.00000000</i>
     <i type="int" name="INIMIX">     1</i>
     <i type="int" name="MIXPRE">     1</i>
     <i type="int" name="MREMOVE">     5</i>
    </separator>
   </separator>
   <separator name="electronic dipolcorrection" >
    <i type="logical" name="LDIPOL"> F  </i>
    <i type="logical" name="LMONO"> F  </i>
    <i type="int" name="IDIPOL">     0</i>
    <i name="EPSILON">      1.00000000</i>
    <v name="DIPOL">   -100.00000000   -100.00000000   -100.00000000</v>
    <i name="EFIELD">      0.00000000</i>
    <i type="logical" name="LVACPOTAV"> F  </i>
   </separator>
  </separator>
  <separator name="grids" >
   <i type="int" name="NGX">    36</i>
   <i type="int" name="NGY">    36</i>
   <i type="int" name="NGZ">    48</i>
   <i type="int" name="NGXF">    72</i>
   <i type="int" name="NGYF">    72</i>
   <i type="int" name="NGZF">    96</i>
   <i type="logical" name="ADDGRID"> F  </i>
  </separator>
  <separator name="ionic" >
   <i type="int" name="NSW">   325</i>
   <i type="int" name="IBRION">     6</i>
   <i type="int" name="MDALGO">     0</i>
   <i type="int" name="ISIF">     3</i>
   <i name="PSTRESS">      0.00000000</i>
   <i name="EDIFFG">     -0.00100000</i>
   <i type="int" name="NFREE">     2</i>
   <i name="POTIM">      0.01500000</i>
   <i name="SMASS">     -3.00000000</i>
   <i name="SCALEE">      1.00000000</i>
  </separator>
  <separator name="ionic md" >
   <i name="TEBEG">      0.00010000</i>
   <i name="TEEND">      0.00010000</i>
   <i type="int" name="NBLOCK">     1</i>
   <i type="int" name="KBLOCK">   325</i>
   <i type="int" name="NPACO">   256</i>
   <i name="APACO">     10.00000000</i>
  </separator>
  <separator name="symmetry" >
   <i type="int" name="ISYM">     2</i>
   <i name="SYMPREC">      0.00000100</i>
  </separator>
  <separator name="dos" >
   <i type="int" name="LORBIT">     0</i>
   <v name="RWIGS">     -1.00000000     -1.00000000     -1.00000000</v>
   <i type="int" name="NEDOS">   301</i>
   <i name="EMIN">     10.00000000</i>
   <i name="EMAX">    -10.00000000</i>
   <i name="EFERMI">      0.00000000</i>
  </separator>
  <separator name="writing" >
   <i type="int" name="NWRITE">     2</i>
   <i type="logical" name="LWAVE"> T  </i>
   <i type="logical" name="LDOWNSAMPLE"> F  </i>
   <i type="logical" name="LCHARG"> T  </i>
   <i type="logical" name="LPARD"> F  </i>
   <i type="logical" name="LVTOT"> F  </i>
   <i type="logical" name="LVHAR"> F  </i>
   <i type="logical" name="LELF"> F  </i>
   <i type="logical" name="LOPTICS"> F  </i>
   <v name="STM">      0.00000000      0.00000000      0.00000000      0.00000000      0.00000000      0.00000000      0.00000000</v>
  </separator>
  <separator name="performance" >
   <i type="int" name="NPAR">    64</i>
   <i type="int" name="NSIM">     4</i>
   <i type="int" name="NBLK">    -1</i>
   <i type="logical" name="LPLANE"> T  </i>
   <i type="logical" name="LSCALAPACK"> T  </i>
   <i type="logical" name="LSCAAWARE"> F  </i>
   <i type="logical" name="LSCALU"> F  </i>
   <i type="logical" name="LASYNC"> F  </i>
   <i type="logical" name="LORBITALREAL"> F  </i>
  </separator>
  <separator name="miscellaneous" >
   <i type="int" name="IDIOT">     3</i>
   <i type="int" name="PHON_NSTRUCT">    -1</i>
   <i type="logical" name="LMUSIC"> F  </i>
   <v name="POMASS">     47.88000000     26.98100000     69.72300000</v>
   <v name="DARWINR">      0.00000000      0.00000000      0.00000000</v>
   <v name="DARWINV">      1.00000000      1.00000000      1.00000000</v>
   <i type="logical" name="LCORR"> T  </i>
  </separator>
  <i type="logical" name="GGA_COMPAT"> T  </i>
  <i type="logical" name="LBERRY"> F  </i>
  <i type="int" name="ICORELEVEL">     0</i>
  <i type="logical" name="LDAU"> F  </i>
  <i type="int" name="I_CONSTRAINED_M">     0</i>
  <separator name="electronic exchange-correlation" >
   <i type="string" name="GGA    ">PE</i>
   <i type="string" name="XC_C">1</i>
   <i type="int" name="VOSKOWN">     0</i>
   <i type="logical" name="LHFCALC"> F  </i>
   <i type="string" name="PRECFOCK"></i>
   <i type="logical" name="LSYMGRAD"> F  </i>
   <i type="logical" name="LHFONE"> F  </i>
   <i type="logical" name="LRHFCALC"> F  </i>
   <i type="logical" name="LTHOMAS"> F  </i>
   <i type="logical" name="LMODELHF"> F  </i>
   <i type="logical" name="LFOCKACE"> F  </i>
   <i name="ENCUT4O">     -1.00000000</i>
   <i type="int" name="EXXOEP">     0</i>
   <i type="int" name="FOURORBIT">     0</i>
   <i name="AEXX">      0.00000000</i>
   <i name="HFALPHA">      0.00000000</i>
   <i name="MCALPHA">      0.00000000</i>
   <i name="ALDAX">      1.00000000</i>
   <i name="AGGAX">      1.00000000</i>
   <i name="AMGGAX">      1.00000000</i>
   <i name="ALDAC">      1.00000000</i>
   <i name="AGGAC">      1.00000000</i>
   <i name="AMGGAC">      1.00000000</i>
   <i type="int" name="NKREDX">     1</i>
   <i type="int" name="NKREDY">     1</i>
   <i type="int" name="NKREDZ">     1</i>
   <i type="logical" name="SHIFTRED"> F  </i>
   <i type="logical" name="ODDONLY"> F  </i>
   <i type="logical" name="EVENONLY"> F  </i>
   <i type="int" name="LMAXFOCK">     0</i>
   <i type="int" name="NMAXFOCKAE">     0</i>
   <i type="logical" name="LFOCKAEDFT"> F  </i>
   <i name="HFSCREEN">      0.00000000</i>
   <i name="HFSCREENC">      0.00000000</i>
   <i type="int" name="NBANDSGWLOW">     0</i>
  </separator>
  <separator name="vdW DFT" >
   <i type="logical" name="LUSE_VDW"> F  </i>
   <i type="int" name="IVDW_NL">    -1</i>
   <i type="logical" name="LSPIN_VDW"> F  </i>
   <i name="ZAB_VDW">     -0.84910000</i>
   <i name="GAMMA_VDW">      1.39626340</i>
   <i name="ALPHA_VDW">      0.00000000</i>
   <i name="PARAM1">      0.12340000</i>
   <i name="PARAM2">      1.00000000</i>
   <i name="BPARAM">      6.30000000</i>
   <i name="CPARAM">      0.00930000</i>
  </separator>
  <separator name="model GW" >
   <i type="int" name="MODEL_GW">     0</i>
   <i name="MODEL_EPS0">      6.20773902</i>
   <i name="MODEL_ALPHA">      1.00000000</i>
  </separator>
  <separator name="linear response parameters" >
   <i type="logical" name="LEPSILON"> F  </i>
   <i type="logical" name="LRPA"> F  </i>
   <i type="logical" name="LNABLA"> F  </i>
   <i type="logical" name="LVEL"> F  </i>
   <i name="CSHIFT">      0.10000000</i>
   <i name="OMEGAMAX">     -1.00000000</i>
   <i name="DEG_THRESHOLD">      0.00200000</i>
   <i name="RTIME">     -0.10000000</i>
   <i name="WPLASMAI">      0.00000000</i>
   <v name="DFIELD">      0.00000000      0.00000000      0.00000000</v>
   <v name="WPLASMA">      0.00000000      0.00000000      0.00000000      0.00000000      0.00000000      0.00000000      0.00000000      0.00000000      0.00000000</v>
  </separator>
  <separator name="orbital magnetization" >
   <i type="logical" name="NUCIND"> F  </i>
   <v name="MAGPOS">      0.00000000      0.00000000      0.00000000</v>
   <i type="logical" name="LNICSALL"> T  </i>
   <i type="logical" name="ORBITALMAG"> F  </i>
   <i type="logical" name="LMAGBLOCH"> F  </i>
   <i type="logical" name="LCHIMAG"> F  </i>
   <i type="logical" name="LGAUGE"> T  </i>
   <i type="int" name="MAGATOM">     0</i>
   <v name="MAGDIPOL">      0.00000000      0.00000000      0.00000000</v>
   <v name="AVECCONST">      0.00000000      0.00000000      0.00000000</v>
  </separator>
  <separator name="response functions" >
   <i type="logical" name="LALL_IN_ONE"> F  </i>
   <i type="int" name="IALL_IN_ONE">    -1</i>
   <i type="int" name="NBANDS_WAVE">    -1</i>
   <i type="logical" name="LFINITE_TEMPERATURE"> F  </i>
   <i type="logical" name="LADDER"> F  </i>
   <i type="logical" name="LRPAFORCE"> F  </i>
   <i type="logical" name="LFXC"> F  </i>
   <i type="logical" name="LHARTREE"> T  </i>
   <i type="int" name="IBSE">     2</i>
   <v type="int" name="KPOINT">    -1     0     0     0</v>
   <i type="logical" name="LTCTC"> F  </i>
   <i type="logical" name="LTCTE"> F  </i>
   <i type="logical" name="LTETE"> F  </i>
   <i type="logical" name="LTRIPLET"> F  </i>
   <i type="logical" name="LFXCEPS"> F  </i>
   <i type="logical" name="LFXHEG"> F  </i>
   <i type="int" name="NATURALO">     2</i>
   <i type="logical" name="LHOLEGF"> F  </i>
   <i type="logical" name="L2ORDER"> F  </i>
   <i type="logical" name="LDMP1"> F  </i>
   <i type="logical" name="LMP2LT"> F  </i>
   <i type="logical" name="LSMP2LT"> F  </i>
   <i type="logical" name="LGWLF"> F  </i>
   <i name="ENCUTGW">     -1.60000002</i>
   <i name="ENCUTGWSOFT">     -1.60000002</i>
   <i name="ENCUTLF">     -1.00000000</i>
   <i type="logical" name="ESF_SPLINES"> F  </i>
   <i name="ESF_CONV">      0.01000000</i>
   <i type="int" name="ESF_NINTER">    15</i>
   <i type="int" name="LMAXMP2">    -1</i>
   <i name="SCISSOR">      0.00000000</i>
   <i type="int" name="NOMEGA">     0</i>
   <i type="int" name="NOMEGAR">     0</i>
   <i type="int" name="NBANDSGW">    -1</i>
   <i type="int" name="NBANDSO">    -1</i>
   <i type="int" name="NBANDSV">    -1</i>
   <i type="int" name="NELMGW">     1</i>
   <i type="int" name="NELMHF">     1</i>
   <i type="int" name="DIM">     3</i>
   <i type="int" name="IESPILON">     4</i>
   <i type="int" name="ANTIRES">     0</i>
   <i name="OMEGAMAX">    -30.00000000</i>
   <i name="OMEGAMIN">    -30.00000000</i>
   <i name="OMEGATL">   -200.00000000</i>
   <i type="int" name="OMEGAGRID">     0</i>
   <i name="CSHIFT">     -0.10000000</i>
   <i type="logical" name="LSELFENERGY"> F  </i>
   <i type="logical" name="LSPECTRAL"> F  </i>
   <i type="logical" name="LSPECTRALGW"> F  </i>
   <i type="logical" name="LSINGLES"> F  </i>
   <i type="logical" name="LFERMIGW"> F  </i>
   <i type="logical" name="ODDONLYGW"> F  </i>
   <i type="logical" name="EVENONLYGW"> F  </i>
   <i type="int" name="NKREDLFX">     1</i>
   <i type="int" name="NKREDLFY">     1</i>
   <i type="int" name="NKREDLFZ">     1</i>
   <i type="int" name="MAXMEM">  2800</i>
   <i type="int" name="TELESCOPE">     0</i>
   <i type="int" name="NTAUPAR">    -1</i>
   <i type="int" name="NOMEGAPAR">    -1</i>
   <i name="DAMP_NEWTON">      0.80000001</i>
   <i name="LAMBDA">      1.00000000</i>
  </separator>
  <separator name="External order field" >
   <i name="OFIELD_KAPPA">      0.00000000</i>
   <v name="OFIELD_K">      0.00000000      0.00000000      0.00000000</v>
   <i name="OFIELD_Q6_NEAR">      0.00000000</i>
   <i name="OFIELD_Q6_FAR">      0.00000000</i>
   <i name="OFIELD_A">      0.00000000</i>
  </separator>
  <separator name="optional k-points parameters" >
   <i type="int" name="KPOINTS_OPT_MODE">     1</i>
   <i type="logical" name="LKPOINTS_OPT"> F  </i>
  </separator>
 </parameters>
 <atominfo>
  <atoms>      24 </atoms>
  <types>       3 </types>
  <array name="atoms" >
   <dimension dim="1">ion</dimension>
   <field type="string">element</field>
   <field type="int">atomtype</field>
   <set>
    <rc><c>Ti</c><c>   1</c></rc>
    <rc><c>Ti</c><c>   1</c></rc>
    <rc><c>Ti</c><c>   1</c></rc>
    <rc><c>Ti</c><c>   1</c></rc>
    <rc><c>Ti</c><c>   1</c></rc>
    <rc><c>Ti</c><c>   1</c></rc>
    <rc><c>Ti</c><c>   1</c></rc>
    <rc><c>Ti</c><c>   1</c></rc>
    <rc><c>Al</c><c>   2</c></rc>
    <rc><c>Al</c><c>   2</c></rc>
    <rc><c>Al</c><c>   2</c></rc>
    <rc><c>Al</c><c>   2</c></rc>
    <rc><c>Al</c><c>   2</c></rc>
    <rc><c>Al</c><c>   2</c></rc>
    <rc><c>Al</c><c>   2</c></rc>
    <rc><c>Al</c><c>   2</c></rc>
    <rc><c>Ga</c><c>   3</c></rc>
    <rc><c>Ga</c><c>   3</c></rc>
    <rc><c>Ga</c><c>   3</c></rc>
    <rc><c>Ga</c><c>   3</c></rc>
    <rc><c>Ga</c><c>   3</c></rc>
    <rc><c>Ga</c><c>   3</c></rc>
    <rc><c>Ga</c><c>   3</c></rc>
    <rc><c>Ga</c><c>   3</c></rc>
   </set>
  </array>
  <array name="atomtypes" >
   <dimension dim="1">type</dimension>
   <field type="int">atomspertype</field>
   <field type="string">element</field>
   <field>mass</field>
   <field>valence</field>
   <field type="string">pseudopotential</field>
   <set>
    <rc><c>   8</c><c>Ti</c><c>     47.88000000</c><c>     12.00000000</c><c>  PAW_PBE Ti_sv 26Sep2005               </c></rc>
    <rc><c>   8</c><c>Al</c><c>     26.98100000</c><c>      3.00000000</c><c>  PAW_PBE Al 04Jan2001                  </c></rc>
    <rc><c>   8</c><c>Ga</c><c>     69.72300000</c><c>     13.00000000</c><c>  PAW_PBE Ga_d 06Jul2010                </c></rc>
   </set>
  </array>
 </atominfo>
 <structure name="initialpos" >
  <crystal>
   <varray name="basis" >
    <v>       5.57149629       0.00000000       0.00000000 </v>
    <v>       0.00000000       5.57149629       0.00000000 </v>
    <v>       0.00000000       0.00000000       7.99925885 </v>
   </varray>
   <i name="volume">    248.30956067 </i>
   <varray name="rec_basis" >
    <v>       0.17948500       0.00000000       0.00000000 </v>
    <v>       0.00000000       0.17948500       0.00000000 </v>
    <v>       0.00000000       0.00000000       0.12501158 </v>
   </varray>
  </crystal>
  <varray name="positions" >
   <v>       0.00000000       0.00000000       0.00000000 </v>
   <v>       0.00000000       0.00000000       0.50000000 </v>
   <v>       0.00000000       0.50000000       0.00000000 </v>
   <v>       0.00000000       0.50000000       0.50000000 </v>
   <v>       0.50000000       0.00000000       0.00000000 </v>
   <v>       0.50000000       0.00000000       0.50000000 </v>
   <v>       0.50000000       0.50000000       0.00000000 </v>
   <v>       0.50000000       0.50000000       0.50000000 </v>
   <v>       0.25000000       0.25000000       0.25000000 </v>
   <v>       0.25000000       0.25000000       0.75000000 </v>
   <v>       0.25000000       0.75000000       0.25000000 </v>
   <v>       0.25000000       0.75000000       0.75000000 </v>
   <v>       0.75000000       0.25000000       0.25000000 </v>
   <v>       0.75000000       0.25000000       0.75000000 </v>
   <v>       0.75000000       0.75000000       0.25000000 </v>
   <v>       0.75000000       0.75000000       0.75000000 </v>
   <v>       0.25000000       0.25000000       0.25000000 </v>
   <v>       0.25000000       0.25000000       0.75000000 </v>
   <v>       0.25000000       0.75000000       0.25000000 </v>
   <v>       0.25000000       0.75000000       0.75000000 </v>
   <v>       0.75000000       0.25000000       0.25000000 </v>
   <v>       0.75000000       0.25000000       0.75000000 </v>
   <v>       0.75000000       0.75000000       0.25000000 </v>
   <v>       0.75000000       0.75000000       0.75000000 </v>
  </varray>
 </structure>
 <calculation>
  <scstep>
   <time name="dav">    8.50    8.50</time>
   <time name="total">    8.51    8.51</time>
   <energy>
    <i name="alphaZ">    353.95361257 </i>
    <i name="ewald">  -9361.10593735 </i>
    <i name="hartreedc">  -3946.20138166 </i>
    <i name="XCdc">    303.68151613 </i>
    <i name="pawpsdc">  11383.86145551 </i>
    <i name="pawaedc"> -11146.98969109 </i>
    <i name="eentropy">     -0.00128567 </i>
    <i name="bandstr">   -204.73185215 </i>
    <i name="atom">  14138.73922761 </i>
    <i name="e_fr_energy">   1521.20566390 </i>
    <i name="e_wo_entrp">   1521.20694957 </i>
    <i name="e_0_energy">   1521.20609245 </i>
   </energy>
  </scstep>
  <scstep>
   <time name="dav">    8.62    8.62</time>
   <time name="total">    8.62    8.62</time>
   <energy>
    <i name="e_fr_energy">    493.75285015 </i>
    <i name="e_wo_entrp">    493.75211043 </i>
    <i name="e_0_energy">    493.75260358 </i>
   </energy>
  </scstep>
  <scstep>
   <time name="dav">   24.22   24.22</time>
   <time name="total">   24.22   24.23</time>
   <energy>
    <i name="e_fr_energy">    409.44587404 </i>
    <i name="e_wo_entrp">    409.45637909 </i>
    <i name="e_0_energy">    409.44937572 </i>
   </energy>
  </scstep>
  <scstep>
   <time name="dav">    8.54    8.54</time>
   <time name="total">    8.54    8.54</time>
   <energy>
    <i name="e_fr_energy">    406.26629413 </i>
    <i name="e_wo_entrp">    406.27745916 </i>
    <i name="e_0_energy">    406.27001581 </i>
   </energy>
  </scstep>
  <scstep>
   <time name="dav">   19.24   19.24</time>
   <time name="total">   19.33   19.33</time>
   <energy>
    <i name="e_fr_energy">    406.08316842 </i>
    <i name="e_wo_entrp">    406.09430701 </i>
    <i name="e_0_energy">    406.08688128 </i>
   </energy>
  </scstep>
  <scstep>
   <time name="dav">   12.97   12.97</time>
   <time name="total">   13.08   13.08</time>
   <energy>
    <i name="e_fr_energy">   -114.53439092 </i>
    <i name="e_wo_entrp">   -113.20781867 </i>
    <i name="e_0_energy">   -114.09220017 </i>
   </energy>
  </scstep>
  <scstep>
   <time name="dav">   13.80   13.80</time>
   <time name="total">   13.90   13.90</time>
   <energy>
    <i name="e_fr_energy">    437.53595275 </i>
    <i name="e_wo_entrp">    437.42873109 </i>
    <i name="e_0_energy">    437.50021219 </i>
   </energy>
  </scstep>
  <scstep>
   <time name="dav">   10.54   10.54</time>
   <time name="total">   10.64   10.64</time>
   <energy>
    <i name="e_fr_energy">    433.40797382 </i>
    <i name="e_wo_entrp">    433.51407547 </i>
    <i name="e_0_energy">    433.44334104 </i>
   </energy>
  </scstep>
  <scstep>
   <time name="dav">   10.75   10.75</time>
   <time name="total">   10.86   10.86</time>
   <energy>
    <i name="e_fr_energy">    407.23117418 </i>
    <i name="e_wo_entrp">    407.66059511 </i>
    <i name="e_0_energy">    407.37431449 </i>
   </energy>
  </scstep>
  <scstep>
   <time name="dav">   13.51   13.51</time>
   <time name="total">   13.61   13.61</time>
   <energy>
    <i name="e_fr_energy">    413.45441397 </i>
    <i name="e_wo_entrp">    413.85164020 </i>
    <i name="e_0_energy">    413.58682272 </i>
   </energy>
  </scstep>
  <scstep>
   <time name="dav">   12.36   12.36</time>
   <time name="total">   12.47   12.47</time>
   <energy>
    <i name="e_fr_energy">    416.21068469 </i>
    <i name="e_wo_entrp">    416.98678755 </i>
    <i name="e_0_energy">    416.46938564 </i>
   </energy>
  </scstep>
  <scstep>
   <time name="dav">   14.27   14.27</time>
   <time name="total">   14.38   14.38</time>
   <energy>
    <i name="e_fr_energy">    429.32390202 </i>
    <i name="e_wo_entrp">    429.53429776 </i>
    <i name="e_0_energy">    429.39403393 </i>
   </energy>
  </scstep>
  <scstep>
   <time name="dav">   18.08   18.08</time>
   <time name="total">   18.19   18.19</time>
   <energy>
    <i name="e_fr_energy">    412.59480929 </i>
    <i name="e_wo_entrp">    412.57765581 </i>
    <i name="e_0_energy">    412.58909147 </i>
   </energy>
  </scstep>
  <scstep>
   <time name="dav">   12.18   12.18</time>
   <time name="total">   12.28   12.28</time>
   <energy>
    <i name="e_fr_energy">    424.83091539 </i>
    <i name="e_wo_entrp">    424.83078813 </i>
    <i name="e_0_energy">    424.83087297 </i>
   </energy>
  </scstep>
  <scstep>
   <time name="dav">   13.54   13.55</time>
   <time name="total">   13.65   13.65</time>
   <energy>
    <i name="e_fr_energy">    431.26814539 </i>
    <i name="e_wo_entrp">    431.26226414 </i>
    <i name="e_0_energy">    431.26618497 </i>
   </energy>
  </scstep>
  <scstep>
   <time name="dav">   13.70   13.70</time>
   <time name="total">   13.80   13.80</time>
   <energy>
    <i name="e_fr_energy">    430.05431331 </i>
    <i name="e_wo_entrp">    430.30959976 </i>
    <i name="e_0_energy">    430.13940880 </i>
   </energy>
  </scstep>
  <scstep>
   <time name="dav">   14.08   14.08</time>
   <time name="total">   14.19   14.19</time>
   <energy>
    <i name="e_fr_energy">    436.27306994 </i>
    <i name="e_wo_entrp">    436.13488662 </i>
    <i name="e_0_energy">    436.22700883 </i>
   </energy>
  </scstep>
  <scstep>
   <time name="dav">   13.54   13.54</time>
   <time name="total">   13.64   13.64</time>
   <energy>
    <i name="e_fr_energy">    436.40130205 </i>
    <i name="e_wo_entrp">    436.35563760 </i>
    <i name="e_0_energy">    436.38608057 </i>
   </energy>
  </scstep>
  <scstep>
   <time name="dav">   14.41   14.41</time>
   <time name="total">   14.52   14.52</time>
   <energy>
    <i name="e_fr_energy">    436.75821912 </i>
    <i name="e_wo_entrp">    436.61662249 </i>
    <i name="e_0_energy">    436.71102024 </i>
   </energy>
  </scstep>
  <scstep>
   <time name="dav">   11.95   11.95</time>
   <time name="total">   12.05   12.05</time>
   <energy>
    <i name="e_fr_energy">    436.75654975 </i>
    <i name="e_wo_entrp">    436.59878882 </i>
    <i name="e_0_energy">    436.70396278 </i>
   </energy>
  </scstep>
  <scstep>
   <time name="dav">   14.00   14.00</time>
   <time name="total">   14.10   14.10</time>
   <energy>
    <i name="e_fr_energy">    436.76218521 </i>
    <i name="e_wo_entrp">    436.61013461 </i>
    <i name="e_0_energy">    436.71150168 </i>
   </energy>
  </scstep>
  <scstep>
   <time name="dav">   10.96   10.96</time>
   <time name="total">   11.06   11.06</time>
   <energy>
    <i name="e_fr_energy">    436.62915660 </i>
    <i name="e_wo_entrp">    436.47418188 </i>
    <i name="e_0_energy">    436.57749836 </i>
   </energy>
  </scstep>
  <scstep>
   <time name="dav">   14.50   14.50</time>
   <time name="total">   14.60   14.60</time>
   <energy>
    <i name="e_fr_energy">    436.61001460 </i>
    <i name="e_wo_entrp">    436.45353906 </i>
    <i name="e_0_energy">    436.55785608 </i>
   </energy>
  </scstep>
  <scstep>
   <time name="dav">   14.76   14.76</time>
   <time name="total">   14.87   14.87</time>
   <energy>
    <i name="e_fr_energy">    436.71586899 </i>
    <i name="e_wo_entrp">    436.54246696 </i>
    <i name="e_0_energy">    436.65806832 </i>
   </energy>
  </scstep>
  <scstep>
   <time name="dav">   14.11   14.11</time>
   <time name="total">   14.21   14.21</time>
   <energy>
    <i name="e_fr_energy">    436.73648260 </i>
    <i name="e_wo_entrp">    436.57007327 </i>
    <i name="e_0_energy">    436.68101282 </i>
   </energy>
  </scstep>
  <scstep>
   <time name="dav">   12.86   12.86</time>
   <time name="total">   12.96   12.96</time>
   <energy>
    <i name="e_fr_energy">    436.74283530 </i>
    <i name="e_wo_entrp">    436.57921492 </i>
    <i name="e_0_energy">    436.68829517 </i>
   </energy>
  </scstep>
  <scstep>
   <time name="dav">   12.41   12.42</time>
   <time name="total">   12.52   12.52</time>
   <energy>
    <i name="e_fr_energy">    436.76246014 </i>
    <i name="e_wo_entrp">    436.60438580 </i>
    <i name="e_0_energy">    436.70976870 </i>
   </energy>
  </scstep>
  <scstep>
   <time name="dav">   13.90   13.90</time>
   <time name="total">   14.00   14.01</time>
   <energy>
    <i name="e_fr_energy">    436.76583723 </i>
    <i name="e_wo_entrp">    436.60895824 </i>
    <i name="e_0_energy">    436.71354423 </i>
   </energy>
  </scstep>
  <scstep>
   <time name="dav">   14.50   14.51</time>
   <time name="total">   14.61   14.61</time>
   <energy>
    <i name="e_fr_energy">    436.76814776 </i>
    <i name="e_wo_entrp">    436.61173811 </i>
    <i name="e_0_energy">    436.71601121 </i>
   </energy>
  </scstep>
  <scstep>
   <time name="dav">   13.16   13.16</time>
   <time name="total">   13.27   13.27</time>
   <energy>
    <i name="e_fr_energy">    436.77203557 </i>
    <i name="e_wo_entrp">    436.61473096 </i>
    <i name="e_0_energy">    436.71960070 </i>
   </energy>
  </scstep>
  <scstep>
   <time name="dav">   12.04   12.04</time>
   <time name="total">   12.14   12.14</time>
   <energy>
    <i name="e_fr_energy">    436.77541814 </i>
    <i name="e_wo_entrp">    436.61975082 </i>
    <i name="e_0_energy">    436.72352904 </i>
   </energy>
  </scstep>
  <scstep>
   <time name="dav">   11.97   11.97</time>
   <time name="total">   12.07   12.07</time>
   <energy>
    <i name="e_fr_energy">    436.77719638 </i>
    <i name="e_wo_entrp">    436.62438071 </i>
    <i name="e_0_energy">    436.72625782 </i>
   </energy>
  </scstep>
  <scstep>
   <time name="dav">   12.97   12.97</time>
   <time name="total">   13.07   13.07</time>
   <energy>
    <i name="e_fr_energy">    436.77760606 </i>
    <i name="e_wo_entrp">    436.62729127 </i>
    <i name="e_0_energy">    436.72750113 </i>
   </energy>
  </scstep>
  <scstep>
   <time name="dav">   14.30   14.31</time>
   <time name="total">   14.41   14.41</time>
   <energy>
    <i name="e_fr_energy">    436.77768491 </i>
    <i name="e_wo_entrp">    436.62872687 </i>
    <i name="e_0_energy">    436.72803223 </i>
   </energy>
  </scstep>
  <scstep>
   <time name="dav">   14.30   14.30</time>
   <time name="total">   14.41   14.41</time>
   <energy>
    <i name="e_fr_energy">    436.77771638 </i>
    <i name="e_wo_entrp">    436.62976619 </i>
    <i name="e_0_energy">    436.72839965 </i>
   </energy>
  </scstep>
  <scstep>
   <time name="dav">   14.85   14.85</time>
   <time name="total">   14.96   14.96</time>
   <energy>
    <i name="e_fr_energy">    436.77774241 </i>
    <i name="e_wo_entrp">    436.63018565 </i>
    <i name="e_0_energy">    436.72855682 </i>
   </energy>
  </scstep>
  <scstep>
   <time name="dav">   13.21   13.21</time>
   <time name="total">   13.32   13.32</time>
   <energy>
    <i name="e_fr_energy">    436.77777590 </i>
    <i name="e_wo_entrp">    436.63053194 </i>
    <i name="e_0_energy">    436.72869458 </i>
   </energy>
  </scstep>
  <scstep>
   <time name="dav">   14.95   14.95</time>
   <time name="total">   15.06   15.06</time>
   <energy>
    <i name="e_fr_energy">    436.77781293 </i>
    <i name="e_wo_entrp">    436.63086702 </i>
    <i name="e_0_energy">    436.72883096 </i>
   </energy>
  </scstep>
  <scstep>
   <time name="dav">   13.66   13.67</time>
   <time name="total">   13.77   13.77</time>
   <energy>
    <i name="e_fr_energy">    436.77783761 </i>
    <i name="e_wo_entrp">    436.63141839 </i>
    <i name="e_0_energy">    436.72903120 </i>
   </energy>
  </scstep>
  <scstep>
   <time name="dav">   13.78   13.78</time>
   <time name="total">   13.89   13.89</time>
   <energy>
    <i name="e_fr_energy">    436.77783947 </i>
    <i name="e_wo_entrp">    436.63168816 </i>
    <i name="e_0_energy">    436.72912236 </i>
   </energy>
  </scstep>
  <scstep>
   <time name="dav">    5.20    5.20</time>
   <time name="total">    5.22    5.22</time>
   <energy>
    <i name="alphaZ">    353.95361257 </i>
    <i name="ewald">  -9361.10593735 </i>
    <i name="hartreedc">  -3717.09961323 </i>
    <i name="XCdc">    293.95861648 </i>
    <i name="pawpsdc">  14082.96972328 </i>
    <i name="pawaedc"> -13772.12660226 </i>
    <i name="eentropy">      0.14613662 </i>
    <i name="bandstr">  -1582.65732431 </i>
    <i name="atom">  14138.73922761 </i>
    <i name="e_fr_energy">    436.77783941 </i>
    <i name="e_wo_entrp">    436.63170279 </i>
    <i name="e_0_energy">    436.72912721 </i>
   </energy>
  </scstep>
  <structure>
   <crystal>
    <varray name="basis" >
     <v>       5.57149629       0.00000000       0.00000000 </v>
     <v>       0.00000000       5.57149629       0.00000000 </v>
     <v>       0.00000000       0.00000000       7.99925885 </v>
    </varray>
    <i name="volume">    248.30956067 </i>
    <varray name="rec_basis" >
     <v>       0.17948500       0.00000000       0.00000000 </v>
     <v>       0.00000000       0.17948500       0.00000000 </v>
     <v>       0.00000000       0.00000000       0.12501158 </v>
    </varray>
   </crystal>
   <varray name="positions" >
    <v>       0.00000000       0.00000000       0.00000000 </v>
    <v>       0.00000000       0.00000000       0.50000000 </v>
    <v>       0.00000000       0.50000000       0.00000000 </v>
    <v>       0.00000000       0.50000000       0.50000000 </v>
    <v>       0.50000000       0.00000000       0.00000000 </v>
    <v>       0.50000000       0.00000000       0.50000000 </v>
    <v>       0.50000000       0.50000000       0.00000000 </v>
    <v>       0.50000000       0.50000000       0.50000000 </v>
    <v>       0.25000000       0.25000000       0.25000000 </v>
    <v>       0.25000000       0.25000000       0.75000000 </v>
    <v>       0.25000000       0.75000000       0.25000000 </v>
    <v>       0.25000000       0.75000000       0.75000000 </v>
    <v>       0.75000000       0.25000000       0.25000000 </v>
    <v>       0.75000000       0.25000000       0.75000000 </v>
    <v>       0.75000000       0.75000000       0.25000000 </v>
    <v>       0.75000000       0.75000000       0.75000000 </v>
    <v>       0.25000000       0.25000000       0.25000000 </v>
    <v>       0.25000000       0.25000000       0.75000000 </v>
    <v>       0.25000000       0.75000000       0.25000000 </v>
    <v>       0.25000000       0.75000000       0.75000000 </v>
    <v>       0.75000000       0.25000000       0.25000000 </v>
    <v>       0.75000000       0.25000000       0.75000000 </v>
    <v>       0.75000000       0.75000000       0.25000000 </v>
    <v>       0.75000000       0.75000000       0.75000000 </v>
   </varray>
  </structure>
  <varray name="forces" >
   <v>       0.00000000      -0.00000000      -0.00000000 </v>
   <v>       0.00000000      -0.00000000      -0.00000000 </v>
   <v>      -0.00000000       0.00000000       0.00000000 </v>
   <v>      -0.00000000       0.00000000       0.00000000 </v>
   <v>       0.00000000       0.00000000      -0.00000000 </v>
   <v>      -0.00000000      -0.00000000       0.00000000 </v>
   <v>       0.00000000       0.00000000      -0.00000000 </v>
   <v>      -0.00000000      -0.00000000       0.00000000 </v>
   <v>       0.00000000      -0.00000000      -0.00000000 </v>
   <v>       0.00000000       0.00000000      -0.00000000 </v>
   <v>      -0.00000000      -0.00000000      -0.00000000 </v>
   <v>       0.00000000      -0.00000000       0.00000000 </v>
   <v>      -0.00000000       0.00000000       0.00000000 </v>
   <v>      -0.00000000       0.00000000       0.00000000 </v>
   <v>      -0.00000000      -0.00000000      -0.00000000 </v>
   <v>       0.00000000      -0.00000000       0.00000000 </v>
   <v>       0.00000000       0.00000000       0.00000000 </v>
   <v>       0.00000000       0.00000000      -0.00000000 </v>
   <v>       0.00000000       0.00000000       0.00000000 </v>
   <v>       0.00000000       0.00000000      -0.00000000 </v>
   <v>       0.00000000       0.00000000       0.00000000 </v>
   <v>       0.00000000       0.00000000      -0.00000000 </v>
   <v>       0.00000000       0.00000000       0.00000000 </v>
   <v>       0.00000000       0.00000000      -0.00000000 </v>
  </varray>
  <varray name="stress" >
   <v>      -4.69533968       0.00000000       0.00000000 </v>
   <v>       0.00000000      -4.69533968       0.00000000 </v>
   <v>       0.00000000       0.00000000      -5.28019295 </v>
  </varray>
  <energy>
   <i name="e_fr_energy">    436.77783941 </i>
   <i name="e_wo_entrp">    436.63170279 </i>
   <i name="e_0_energy">    436.72912721 </i>
  </energy>
  <kpoints>
   <generation param="Gamma">
    <v type="int" name="divisions">       9        9        6 </v>
    <v name="usershift">      0.00000000       0.00000000       0.00000000 </v>
    <v name="genvec1">      0.11111111       0.00000000       0.00000000 </v>
    <v name="genvec2">      0.00000000       0.11111111       0.00000000 </v>
    <v name="genvec3">      0.00000000       0.00000000       0.16666667 </v>
    <v name="shift">      0.00000000       0.00000000       0.00000000 </v>
   </generation>
   <varray name="kpointlist" >
    <v>       0.00000000       0.00000000       0.00000000 </v>
    <v>       0.11111111       0.00000000       0.00000000 </v>
    <v>       0.22222222       0.00000000       0.00000000 </v>
    <v>       0.33333333       0.00000000       0.00000000 </v>
    <v>       0.44444444       0.00000000       0.00000000 </v>
    <v>       0.00000000       0.11111111       0.00000000 </v>
    <v>       0.11111111       0.11111111       0.00000000 </v>
    <v>       0.22222222       0.11111111       0.00000000 </v>
    <v>       0.33333333       0.11111111       0.00000000 </v>
    <v>       0.44444444       0.11111111       0.00000000 </v>
    <v>       0.00000000       0.22222222       0.00000000 </v>
    <v>       0.11111111       0.22222222       0.00000000 </v>
    <v>       0.22222222       0.22222222       0.00000000 </v>
    <v>       0.33333333       0.22222222       0.00000000 </v>
    <v>       0.44444444       0.22222222       0.00000000 </v>
    <v>       0.00000000       0.33333333       0.00000000 </v>
    <v>       0.11111111       0.33333333       0.00000000 </v>
    <v>       0.22222222       0.33333333       0.00000000 </v>
    <v>       0.33333333       0.33333333       0.00000000 </v>
    <v>       0.44444444       0.33333333       0.00000000 </v>
    <v>       0.00000000       0.44444444       0.00000000 </v>
    <v>       0.11111111       0.44444444       0.00000000 </v>
    <v>       0.22222222       0.44444444       0.00000000 </v>
    <v>       0.33333333       0.44444444       0.00000000 </v>
    <v>       0.44444444       0.44444444       0.00000000 </v>
    <v>       0.00000000       0.00000000       0.16666667 </v>
    <v>       0.11111111       0.00000000       0.16666667 </v>
    <v>       0.22222222       0.00000000       0.16666667 </v>
    <v>       0.33333333       0.00000000       0.16666667 </v>
    <v>       0.44444444       0.00000000       0.16666667 </v>
    <v>       0.00000000       0.11111111       0.16666667 </v>
    <v>       0.11111111       0.11111111       0.16666667 </v>
    <v>       0.22222222       0.11111111       0.16666667 </v>
    <v>       0.33333333       0.11111111       0.16666667 </v>
    <v>       0.44444444       0.11111111       0.16666667 </v>
    <v>       0.00000000       0.22222222       0.16666667 </v>
    <v>       0.11111111       0.22222222       0.16666667 </v>
    <v>       0.22222222       0.22222222       0.16666667 </v>
    <v>       0.33333333       0.22222222       0.16666667 </v>
    <v>       0.44444444       0.22222222       0.16666667 </v>
    <v>       0.00000000       0.33333333       0.16666667 </v>
    <v>       0.11111111       0.33333333       0.16666667 </v>
    <v>       0.22222222       0.33333333       0.16666667 </v>
    <v>       0.33333333       0.33333333       0.16666667 </v>
    <v>       0.44444444       0.33333333       0.16666667 </v>
    <v>       0.00000000       0.44444444       0.16666667 </v>
    <v>       0.11111111       0.44444444       0.16666667 </v>
    <v>       0.22222222       0.44444444       0.16666667 </v>
    <v>       0.33333333       0.44444444       0.16666667 </v>
    <v>       0.44444444       0.44444444       0.16666667 </v>
    <v>       0.00000000       0.00000000       0.33333333 </v>
    <v>       0.11111111       0.00000000       0.33333333 </v>
    <v>       0.22222222       0.00000000       0.33333333 </v>
    <v>       0.33333333       0.00000000       0.33333333 </v>
    <v>       0.44444444       0.00000000       0.33333333 </v>
    <v>       0.00000000       0.11111111       0.33333333 </v>
    <v>       0.11111111       0.11111111       0.33333333 </v>
    <v>       0.22222222       0.11111111       0.33333333 </v>
    <v>       0.33333333       0.11111111       0.33333333 </v>
    <v>       0.44444444       0.11111111       0.33333333 </v>
    <v>       0.00000000       0.22222222       0.33333333 </v>
    <v>       0.11111111       0.22222222       0.33333333 </v>
    <v>       0.22222222       0.22222222       0.33333333 </v>
    <v>       0.33333333       0.22222222       0.33333333 </v>
    <v>       0.44444444       0.22222222       0.33333333 </v>
    <v>       0.00000000       0.33333333       0.33333333 </v>
    <v>       0.11111111       0.33333333       0.33333333 </v>
    <v>       0.22222222       0.33333333       0.33333333 </v>
    <v>       0.33333333       0.33333333       0.33333333 </v>
    <v>       0.44444444       0.33333333       0.33333333 </v>
    <v>       0.00000000       0.44444444       0.33333333 </v>
    <v>       0.11111111       0.44444444       0.33333333 </v>
    <v>       0.22222222       0.44444444       0.33333333 </v>
    <v>       0.33333333       0.44444444       0.33333333 </v>
    <v>       0.44444444       0.44444444       0.33333333 </v>
    <v>       0.00000000       0.00000000       0.50000000 </v>
    <v>       0.11111111       0.00000000       0.50000000 </v>
    <v>       0.22222222       0.00000000       0.50000000 </v>
    <v>       0.33333333       0.00000000       0.50000000 </v>
    <v>       0.44444444       0.00000000       0.50000000 </v>
    <v>       0.00000000       0.11111111       0.50000000 </v>
    <v>       0.11111111       0.11111111       0.50000000 </v>
    <v>       0.22222222       0.11111111       0.50000000 </v>
    <v>       0.33333333       0.11111111       0.50000000 </v>
    <v>       0.44444444       0.11111111       0.50000000 </v>
    <v>       0.00000000       0.22222222       0.50000000 </v>
    <v>       0.11111111       0.22222222       0.50000000 </v>
    <v>       0.22222222       0.22222222       0.50000000 </v>
    <v>       0.33333333       0.22222222       0.50000000 </v>
    <v>       0.44444444       0.22222222       0.50000000 </v>
    <v>       0.00000000       0.33333333       0.50000000 </v>
    <v>       0.11111111       0.33333333       0.50000000 </v>
    <v>       0.22222222       0.33333333       0.50000000 </v>
    <v>       0.33333333       0.33333333       0.50000000 </v>
    <v>       0.44444444       0.33333333       0.50000000 </v>
    <v>       0.00000000       0.44444444       0.50000000 </v>
    <v>       0.11111111       0.44444444       0.50000000 </v>
    <v>       0.22222222       0.44444444       0.50000000 </v>
    <v>       0.33333333       0.44444444       0.50000000 </v>
    <v>       0.44444444       0.44444444       0.50000000 </v>
   </varray>
   <varray name="weights" >
    <v>       0.00205761 </v>
    <v>       0.00411523 </v>
    <v>       0.00411523 </v>
    <v>       0.00411523 </v>
    <v>       0.00411523 </v>
    <v>       0.00411523 </v>
    <v>       0.00823045 </v>
    <v>       0.00823045 </v>
    <v>       0.00823045 </v>
    <v>       0.00823045 </v>
    <v>       0.00411523 </v>
    <v>       0.00823045 </v>
    <v>       0.00823045 </v>
    <v>       0.00823045 </v>
    <v>       0.00823045 </v>
    <v>       0.00411523 </v>
    <v>       0.00823045 </v>
    <v>       0.00823045 </v>
    <v>       0.00823045 </v>
    <v>       0.00823045 </v>
    <v>       0.00411523 </v>
    <v>       0.00823045 </v>
    <v>       0.00823045 </v>
    <v>       0.00823045 </v>
    <v>       0.00823045 </v>
    <v>       0.00411523 </v>
    <v>       0.00823045 </v>
    <v>       0.00823045 </v>
    <v>       0.00823045 </v>
    <v>       0.00823045 </v>
    <v>       0.00823045 </v>
    <v>       0.01646091 </v>
    <v>       0.01646091 </v>
    <v>       0.01646091 </v>
    <v>       0.01646091 </v>
    <v>       0.00823045 </v>
    <v>       0.01646091 </v>
    <v>       0.01646091 </v>
    <v>       0.01646091 </v>
    <v>       0.01646091 </v>
    <v>       0.00823045 </v>
    <v>       0.01646091 </v>
    <v>       0.01646091 </v>
    <v>       0.01646091 </v>
    <v>       0.01646091 </v>
    <v>       0.00823045 </v>
    <v>       0.01646091 </v>
    <v>       0.01646091 </v>
    <v>       0.01646091 </v>
    <v>       0.01646091 </v>
    <v>       0.00411523 </v>
    <v>       0.00823045 </v>
    <v>       0.00823045 </v>
    <v>       0.00823045 </v>
    <v>       0.00823045 </v>
    <v>       0.00823045 </v>
    <v>       0.01646091 </v>
    <v>       0.01646091 </v>
    <v>       0.01646091 </v>
    <v>       0.01646091 </v>
    <v>       0.00823045 </v>
    <v>       0.01646091 </v>
    <v>       0.01646091 </v>
    <v>       0.01646091 </v>
    <v>       0.01646091 </v>
    <v>       0.00823045 </v>
    <v>       0.01646091 </v>
    <v>       0.01646091 </v>
    <v>       0.01646091 </v>
    <v>       0.01646091 </v>
    <v>       0.00823045 </v>
    <v>       0.01646091 </v>
    <v>       0.01646091 </v>
    <v>       0.01646091 </v>
    <v>       0.01646091 </v>
    <v>       0.00205761 </v>
    <v>       0.00411523 </v>
    <v>       0.00411523 </v>
    <v>       0.00411523 </v>
    <v>       0.00411523 </v>
    <v>       0.00411523 </v>
    <v>       0.00823045 </v>
    <v>       0.00823045 </v>
    <v>       0.00823045 </v>
    <v>       0.00823045 </v>
    <v>       0.00411523 </v>
    <v>       0.00823045 </v>
    <v>       0.00823045 </v>
    <v>       0.00823045 </v>
    <v>       0.00823045 </v>
    <v>       0.00411523 </v>
    <v>       0.00823045 </v>
    <v>       0.00823045 </v>
    <v>       0.00823045 </v>
    <v>       0.00823045 </v>
    <v>       0.00411523 </v>
    <v>       0.00823045 </v>
    <v>       0.00823045 </v>
    <v>       0.00823045 </v>
    <v>       0.00823045 </v>
   </varray>
  </kpoints>
  <time name="totalsc">  560.01  560.05</time>
 </calculation>
 <calculation>
  <scstep>
   <time name="dav">   15.05   15.05</time>
   <time name="total">   15.20   15.20</time>
   <energy>
    <i name="alphaZ">    348.72277100 </i>
    <i name="ewald">  -9321.86734871 </i>
    <i name="hartreedc">  -3692.43220669 </i>
    <i name="XCdc">    291.45638693 </i>
    <i name="pawpsdc">  14082.97486269 </i>
    <i name="pawaedc"> -13772.13202947 </i>
    <i name="eentropy">      0.12720374 </i>
    <i name="bandstr">  -1638.79641243 </i>
    <i name="atom">  14138.73922761 </i>
    <i name="e_fr_energy">    436.79245468 </i>
    <i name="e_wo_entrp">    436.66525094 </i>
    <i name="e_0_energy">    436.75005343 </i>
   </energy>
  </scstep>
  <scstep>
   <time name="dav">   27.79   27.79</time>
   <time name="total">   27.95   27.95</time>
   <energy>
    <i name="e_fr_energy">    387.99530314 </i>
    <i name="e_wo_entrp">    389.20935872 </i>
    <i name="e_0_energy">    388.39998833 </i>
   </energy>
  </scstep>
  <scstep>
   <time name="dav">   24.58   24.58</time>
   <time name="total">   24.73   24.73</time>
   <energy>
    <i name="e_fr_energy">    432.79539100 </i>
    <i name="e_wo_entrp">    432.79257063 </i>
    <i name="e_0_energy">    432.79445088 </i>
   </energy>
  </scstep>
  <scstep>
   <time name="dav">   29.65   29.65</time>
   <time name="total">   29.81   29.81</time>
   <energy>
    <i name="e_fr_energy">    428.59366791 </i>
    <i name="e_wo_entrp">    428.59823883 </i>
    <i name="e_0_energy">    428.59519155 </i>
   </energy>
  </scstep>
  <scstep>
   <time name="dav">   21.65   21.65</time>
   <time name="total">   21.80   21.81</time>
   <energy>
    <i name="e_fr_energy">    432.30838465 </i>
    <i name="e_wo_entrp">    432.31156398 </i>
    <i name="e_0_energy">    432.30944442 </i>
   </energy>
  </scstep>
  <scstep>
   <time name="dav">   22.23   22.23</time>
   <time name="total">   22.39   22.39</time>
   <energy>
    <i name="e_fr_energy">    436.64694528 </i>
    <i name="e_wo_entrp">    436.61716505 </i>
    <i name="e_0_energy">    436.63701854 </i>
   </energy>
  </scstep>
  <scstep>
   <time name="dav">   18.29   18.29</time>
   <time name="total">   18.45   18.45</time>
   <energy>
    <i name="e_fr_energy">    436.74487675 </i>
    <i name="e_wo_entrp">    436.71888200 </i>
    <i name="e_0_energy">    436.73621183 </i>
   </energy>
  </scstep>
  <scstep>
   <time name="dav">   25.31   25.31</time>
   <time name="total">   25.47   25.47</time>
   <energy>
    <i name="e_fr_energy">    437.08184170 </i>
    <i name="e_wo_entrp">    437.01496434 </i>
    <i name="e_0_energy">    437.05954925 </i>
   </energy>
  </scstep>
  <scstep>
   <time name="dav">   21.20   21.20</time>
   <time name="total">   21.36   21.36</time>
   <energy>
    <i name="e_fr_energy">    437.17452959 </i>
    <i name="e_wo_entrp">    437.09422856 </i>
    <i name="e_0_energy">    437.14776258 </i>
   </energy>
  </scstep>
  <scstep>
   <time name="dav">   18.78   18.78</time>
   <time name="total">   18.94   18.94</time>
   <energy>
    <i name="e_fr_energy">    437.08415691 </i>
    <i name="e_wo_entrp">    436.89630591 </i>
    <i name="e_0_energy">    437.02153991 </i>
   </energy>
  </scstep>
  <scstep>
   <time name="dav">   24.39   24.39</time>
   <time name="total">   24.55   24.55</time>
   <energy>
    <i name="e_fr_energy">    437.29756723 </i>
    <i name="e_wo_entrp">    437.12641829 </i>
    <i name="e_0_energy">    437.24051758 </i>
   </energy>
  </scstep>
  <scstep>
   <time name="dav">   25.62   25.63</time>
   <time name="total">   25.78   25.78</time>
   <energy>
    <i name="e_fr_energy">    437.32856604 </i>
    <i name="e_wo_entrp">    437.18886495 </i>
    <i name="e_0_energy">    437.28199901 </i>
   </energy>
  </scstep>
  <scstep>
   <time name="dav">   24.31   24.32</time>
   <time name="total">   24.47   24.48</time>
   <energy>
    <i name="e_fr_energy">    437.32876952 </i>
    <i name="e_wo_entrp">    437.16392060 </i>
    <i name="e_0_energy">    437.27381988 </i>
   </energy>
  </scstep>
  <scstep>
   <time name="dav">   25.96   25.97</time>
   <time name="total">   26.12   26.13</time>
   <energy>
    <i name="e_fr_energy">    437.33221276 </i>
    <i name="e_wo_entrp">    437.18376910 </i>
    <i name="e_0_energy">    437.28273154 </i>
   </energy>
  </scstep>
  <scstep>
   <time name="dav">   24.22   24.22</time>
   <time name="total">   24.37   24.38</time>
   <energy>
    <i name="e_fr_energy">    437.33240924 </i>
    <i name="e_wo_entrp">    437.18608948 </i>
    <i name="e_0_energy">    437.28363599 </i>
   </energy>
  </scstep>
  <scstep>
   <time name="dav">   26.05   26.05</time>
   <time name="total">   26.21   26.21</time>
   <energy>
    <i name="e_fr_energy">    437.33272561 </i>
    <i name="e_wo_entrp">    437.17686570 </i>
    <i name="e_0_energy">    437.28077231 </i>
   </energy>
  </scstep>
  <scstep>
   <time name="dav">   25.41   25.41</time>
   <time name="total">   25.56   25.57</time>
   <energy>
    <i name="e_fr_energy">    437.33310185 </i>
    <i name="e_wo_entrp">    437.18346491 </i>
    <i name="e_0_energy">    437.28322287 </i>
   </energy>
  </scstep>
  <scstep>
   <time name="dav">   21.64   21.65</time>
   <time name="total">   21.80   21.80</time>
   <energy>
    <i name="e_fr_energy">    437.33310726 </i>
    <i name="e_wo_entrp">    437.18436897 </i>
    <i name="e_0_energy">    437.28352783 </i>
   </energy>
  </scstep>
  <scstep>
   <time name="dav">   24.53   24.53</time>
   <time name="total">   24.69   24.69</time>
   <energy>
    <i name="e_fr_energy">    437.33317484 </i>
    <i name="e_wo_entrp">    437.18308194 </i>
    <i name="e_0_energy">    437.28314387 </i>
   </energy>
  </scstep>
  <scstep>
   <time name="dav">   24.30   24.30</time>
   <time name="total">   24.46   24.46</time>
   <energy>
    <i name="e_fr_energy">    437.33317073 </i>
    <i name="e_wo_entrp">    437.18352019 </i>
    <i name="e_0_energy">    437.28328722 </i>
   </energy>
  </scstep>
  <scstep>
   <time name="dav">   21.49   21.49</time>
   <time name="total">   21.65   21.65</time>
   <energy>
    <i name="e_fr_energy">    437.33317547 </i>
    <i name="e_wo_entrp">    437.18287654 </i>
    <i name="e_0_energy">    437.28307583 </i>
   </energy>
  </scstep>
  <scstep>
   <time name="dav">    9.78    9.78</time>
   <time name="total">    9.79    9.79</time>
   <energy>
    <i name="alphaZ">    348.72277100 </i>
    <i name="ewald">  -9321.86734871 </i>
    <i name="hartreedc">  -3727.81684645 </i>
    <i name="XCdc">    293.17268078 </i>
    <i name="pawpsdc">  13960.58277242 </i>
    <i name="pawaedc"> -13651.62566302 </i>
    <i name="eentropy">      0.15023514 </i>
    <i name="bandstr">  -1602.72465328 </i>
    <i name="atom">  14138.73922761 </i>
    <i name="e_fr_energy">    437.33317549 </i>
    <i name="e_wo_entrp">    437.18294035 </i>
    <i name="e_0_energy">    437.28309711 </i>
   </energy>
  </scstep>
  <structure>
   <crystal>
    <varray name="basis" >
     <v>       5.65506873       0.00000000       0.00000000 </v>
     <v>       0.00000000       5.57149629       0.00000000 </v>
     <v>       0.00000000       0.00000000       7.99925885 </v>
    </varray>
    <i name="volume">    252.03420408 </i>
    <varray name="rec_basis" >
     <v>       0.17683251       0.00000000       0.00000000 </v>
     <v>       0.00000000       0.17948500       0.00000000 </v>
     <v>       0.00000000       0.00000000       0.12501158 </v>
    </varray>
   </crystal>
   <varray name="positions" >
    <v>       0.00000000       0.00000000       0.00000000 </v>
    <v>       0.00000000       0.00000000       0.50000000 </v>
    <v>       0.00000000       0.50000000       0.00000000 </v>
    <v>       0.00000000       0.50000000       0.50000000 </v>
    <v>       0.50000000       0.00000000       0.00000000 </v>
    <v>       0.50000000       0.00000000       0.50000000 </v>
    <v>       0.50000000       0.50000000       0.00000000 </v>
    <v>       0.50000000       0.50000000       0.50000000 </v>
    <v>       0.25000000       0.25000000       0.25000000 </v>
    <v>       0.25000000       0.25000000       0.75000000 </v>
    <v>       0.25000000       0.75000000       0.25000000 </v>
    <v>       0.25000000       0.75000000       0.75000000 </v>
    <v>       0.75000000       0.25000000       0.25000000 </v>
    <v>       0.75000000       0.25000000       0.75000000 </v>
    <v>       0.75000000       0.75000000       0.25000000 </v>
    <v>       0.75000000       0.75000000       0.75000000 </v>
    <v>       0.25000000       0.25000000       0.25000000 </v>
    <v>       0.25000000       0.25000000       0.75000000 </v>
    <v>       0.25000000       0.75000000       0.25000000 </v>
    <v>       0.25000000       0.75000000       0.75000000 </v>
    <v>       0.75000000       0.25000000       0.25000000 </v>
    <v>       0.75000000       0.25000000       0.75000000 </v>
    <v>       0.75000000       0.75000000       0.25000000 </v>
    <v>       0.75000000       0.75000000       0.75000000 </v>
   </varray>
  </structure>
  <varray name="forces" >
   <v>       0.00000000      -0.00000000       0.00000000 </v>
   <v>      -0.00000000      -0.00000000       0.00000000 </v>
   <v>      -0.00000000       0.00000000       0.00000000 </v>
   <v>       0.00000000       0.00000000      -0.00000000 </v>
   <v>       0.00000000      -0.00000000      -0.00000000 </v>
   <v>       0.00000000       0.00000000      -0.00000000 </v>
   <v>       0.00000000       0.00000000       0.00000000 </v>
   <v>       0.00000000      -0.00000000       0.00000000 </v>
   <v>       0.00000000       0.00000000      -0.00000000 </v>
   <v>       0.00000000       0.00000000      -0.00000000 </v>
   <v>       0.00000000       0.00000000      -0.00000000 </v>
   <v>       0.00000000      -0.00000000       0.00000000 </v>
   <v>       0.00000000       0.00000000      -0.00000000 </v>
   <v>      -0.00000000       0.00000000       0.00000000 </v>
   <v>      -0.00000000       0.00000000       0.00000000 </v>
   <v>      -0.00000000      -0.00000000      -0.00000000 </v>
   <v>       0.00000000       0.00000000       0.00000000 </v>
   <v>       0.00000000       0.00000000       0.00000000 </v>
   <v>       0.00000000       0.00000000      -0.00000000 </v>
   <v>       0.00000000       0.00000000      -0.00000000 </v>
   <v>       0.00000000       0.00000000      -0.00000000 </v>
   <v>       0.00000000       0.00000000      -0.00000000 </v>
   <v>       0.00000000       0.00000000       0.00000000 </v>
   <v>       0.00000000       0.00000000       0.00000000 </v>
  </varray>
  <varray name="stress" >
   <v>     -32.76639788       0.00000000       0.00000000 </v>
   <v>      -0.00000000     -12.48367227       0.00000000 </v>
   <v>       0.00000000       0.00000000     -19.65977457 </v>
  </varray>
  <energy>
   <i name="e_fr_energy">    437.33317549 </i>
   <i name="e_wo_entrp">    437.18294035 </i>
   <i name="e_0_energy">    437.28309711 </i>
  </energy>
  <kpoints>
   <generation param="Gamma">
    <v type="int" name="divisions">       9        9        6 </v>
    <v name="usershift">      0.00000000       0.00000000       0.00000000 </v>
    <v name="genvec1">      0.11111111       0.00000000       0.00000000 </v>
    <v name="genvec2">      0.00000000       0.11111111       0.00000000 </v>
    <v name="genvec3">      0.00000000       0.00000000       0.16666667 </v>
    <v name="shift">      0.00000000       0.00000000       0.00000000 </v>
   </generation>
   <varray name="kpointlist" >
    <v>       0.00000000       0.00000000       0.00000000 </v>
    <v>       0.11111111       0.00000000       0.00000000 </v>
    <v>       0.22222222       0.00000000       0.00000000 </v>
    <v>       0.33333333       0.00000000       0.00000000 </v>
    <v>       0.44444444       0.00000000       0.00000000 </v>
    <v>       0.00000000       0.11111111       0.00000000 </v>
    <v>       0.11111111       0.11111111       0.00000000 </v>
    <v>       0.22222222       0.11111111       0.00000000 </v>
    <v>       0.33333333       0.11111111       0.00000000 </v>
    <v>       0.44444444       0.11111111       0.00000000 </v>
    <v>       0.00000000       0.22222222       0.00000000 </v>
    <v>       0.11111111       0.22222222       0.00000000 </v>
    <v>       0.22222222       0.22222222       0.00000000 </v>
    <v>       0.33333333       0.22222222       0.00000000 </v>
    <v>       0.44444444       0.22222222       0.00000000 </v>
    <v>       0.00000000       0.33333333       0.00000000 </v>
    <v>       0.11111111       0.33333333       0.00000000 </v>
    <v>       0.22222222       0.33333333       0.00000000 </v>
    <v>       0.33333333       0.33333333       0.00000000 </v>
    <v>       0.44444444       0.33333333       0.00000000 </v>
    <v>       0.00000000       0.44444444       0.00000000 </v>
    <v>       0.11111111       0.44444444       0.00000000 </v>
    <v>       0.22222222       0.44444444       0.00000000 </v>
    <v>       0.33333333       0.44444444       0.00000000 </v>
    <v>       0.44444444       0.44444444       0.00000000 </v>
    <v>       0.00000000       0.00000000       0.16666667 </v>
    <v>       0.11111111       0.00000000       0.16666667 </v>
    <v>       0.22222222       0.00000000       0.16666667 </v>
    <v>       0.33333333       0.00000000       0.16666667 </v>
    <v>       0.44444444       0.00000000       0.16666667 </v>
    <v>       0.00000000       0.11111111       0.16666667 </v>
    <v>       0.11111111       0.11111111       0.16666667 </v>
    <v>       0.22222222       0.11111111       0.16666667 </v>
    <v>       0.33333333       0.11111111       0.16666667 </v>
    <v>       0.44444444       0.11111111       0.16666667 </v>
    <v>       0.00000000       0.22222222       0.16666667 </v>
    <v>       0.11111111       0.22222222       0.16666667 </v>
    <v>       0.22222222       0.22222222       0.16666667 </v>
    <v>       0.33333333       0.22222222       0.16666667 </v>
    <v>       0.44444444       0.22222222       0.16666667 </v>
    <v>       0.00000000       0.33333333       0.16666667 </v>
    <v>       0.11111111       0.33333333       0.16666667 </v>
    <v>       0.22222222       0.33333333       0.16666667 </v>
    <v>       0.33333333       0.33333333       0.16666667 </v>
    <v>       0.44444444       0.33333333       0.16666667 </v>
    <v>       0.00000000       0.44444444       0.16666667 </v>
    <v>       0.11111111       0.44444444       0.16666667 </v>
    <v>       0.22222222       0.44444444       0.16666667 </v>
    <v>       0.33333333       0.44444444       0.16666667 </v>
    <v>       0.44444444       0.44444444       0.16666667 </v>
    <v>       0.00000000       0.00000000       0.33333333 </v>
    <v>       0.11111111       0.00000000       0.33333333 </v>
    <v>       0.22222222       0.00000000       0.33333333 </v>
    <v>       0.33333333       0.00000000       0.33333333 </v>
    <v>       0.44444444       0.00000000       0.33333333 </v>
    <v>       0.00000000       0.11111111       0.33333333 </v>
    <v>       0.11111111       0.11111111       0.33333333 </v>
    <v>       0.22222222       0.11111111       0.33333333 </v>
    <v>       0.33333333       0.11111111       0.33333333 </v>
    <v>       0.44444444       0.11111111       0.33333333 </v>
    <v>       0.00000000       0.22222222       0.33333333 </v>
    <v>       0.11111111       0.22222222       0.33333333 </v>
    <v>       0.22222222       0.22222222       0.33333333 </v>
    <v>       0.33333333       0.22222222       0.33333333 </v>
    <v>       0.44444444       0.22222222       0.33333333 </v>
    <v>       0.00000000       0.33333333       0.33333333 </v>
    <v>       0.11111111       0.33333333       0.33333333 </v>
    <v>       0.22222222       0.33333333       0.33333333 </v>
    <v>       0.33333333       0.33333333       0.33333333 </v>
    <v>       0.44444444       0.33333333       0.33333333 </v>
    <v>       0.00000000       0.44444444       0.33333333 </v>
    <v>       0.11111111       0.44444444       0.33333333 </v>
    <v>       0.22222222       0.44444444       0.33333333 </v>
    <v>       0.33333333       0.44444444       0.33333333 </v>
    <v>       0.44444444       0.44444444       0.33333333 </v>
    <v>       0.00000000       0.00000000       0.50000000 </v>
    <v>       0.11111111       0.00000000       0.50000000 </v>
    <v>       0.22222222       0.00000000       0.50000000 </v>
    <v>       0.33333333       0.00000000       0.50000000 </v>
    <v>       0.44444444       0.00000000       0.50000000 </v>
    <v>       0.00000000       0.11111111       0.50000000 </v>
    <v>       0.11111111       0.11111111       0.50000000 </v>
    <v>       0.22222222       0.11111111       0.50000000 </v>
    <v>       0.33333333       0.11111111       0.50000000 </v>
    <v>       0.44444444       0.11111111       0.50000000 </v>
    <v>       0.00000000       0.22222222       0.50000000 </v>
    <v>       0.11111111       0.22222222       0.50000000 </v>
    <v>       0.22222222       0.22222222       0.50000000 </v>
    <v>       0.33333333       0.22222222       0.50000000 </v>
    <v>       0.44444444       0.22222222       0.50000000 </v>
    <v>       0.00000000       0.33333333       0.50000000 </v>
    <v>       0.11111111       0.33333333       0.50000000 </v>
    <v>       0.22222222       0.33333333       0.50000000 </v>
    <v>       0.33333333       0.33333333       0.50000000 </v>
    <v>       0.44444444       0.33333333       0.50000000 </v>
    <v>       0.00000000       0.44444444       0.50000000 </v>
    <v>       0.11111111       0.44444444       0.50000000 </v>
    <v>       0.22222222       0.44444444       0.50000000 </v>
    <v>       0.33333333       0.44444444       0.50000000 </v>
    <v>       0.44444444       0.44444444       0.50000000 </v>
   </varray>
   <varray name="weights" >
    <v>       0.00205761 </v>
    <v>       0.00411523 </v>
    <v>       0.00411523 </v>
    <v>       0.00411523 </v>
    <v>       0.00411523 </v>
    <v>       0.00411523 </v>
    <v>       0.00823045 </v>
    <v>       0.00823045 </v>
    <v>       0.00823045 </v>
    <v>       0.00823045 </v>
    <v>       0.00411523 </v>
    <v>       0.00823045 </v>
    <v>       0.00823045 </v>
    <v>       0.00823045 </v>
    <v>       0.00823045 </v>
    <v>       0.00411523 </v>
    <v>       0.00823045 </v>
    <v>       0.00823045 </v>
    <v>       0.00823045 </v>
    <v>       0.00823045 </v>
    <v>       0.00411523 </v>
    <v>       0.00823045 </v>
    <v>       0.00823045 </v>
    <v>       0.00823045 </v>
    <v>       0.00823045 </v>
    <v>       0.00411523 </v>
    <v>       0.00823045 </v>
    <v>       0.00823045 </v>
    <v>       0.00823045 </v>
    <v>       0.00823045 </v>
    <v>       0.00823045 </v>
    <v>       0.01646091 </v>
    <v>       0.01646091 </v>
    <v>       0.01646091 </v>
    <v>       0.01646091 </v>
    <v>       0.00823045 </v>
    <v>       0.01646091 </v>
    <v>       0.01646091 </v>
    <v>       0.01646091 </v>
    <v>       0.01646091 </v>
    <v>       0.00823045 </v>
    <v>       0.01646091 </v>
    <v>       0.01646091 </v>
    <v>       0.01646091 </v>
    <v>       0.01646091 </v>
    <v>       0.00823045 </v>
    <v>       0.01646091 </v>
    <v>       0.01646091 </v>
    <v>       0.01646091 </v>
    <v>       0.01646091 </v>
    <v>       0.00411523 </v>
    <v>       0.00823045 </v>
    <v>       0.00823045 </v>
    <v>       0.00823045 </v>
    <v>       0.00823045 </v>
    <v>       0.00823045 </v>
    <v>       0.01646091 </v>
    <v>       0.01646091 </v>
    <v>       0.01646091 </v>
    <v>       0.01646091 </v>
    <v>       0.00823045 </v>
    <v>       0.01646091 </v>
    <v>       0.01646091 </v>
    <v>       0.01646091 </v>
    <v>       0.01646091 </v>
    <v>       0.00823045 </v>
    <v>       0.01646091 </v>
    <v>       0.01646091 </v>
    <v>       0.01646091 </v>
    <v>       0.01646091 </v>
    <v>       0.00823045 </v>
    <v>       0.01646091 </v>
    <v>       0.01646091 </v>
    <v>       0.01646091 </v>
    <v>       0.01646091 </v>
    <v>       0.00205761 </v>
    <v>       0.00411523 </v>
    <v>       0.00411523 </v>
    <v>       0.00411523 </v>
    <v>       0.00411523 </v>
    <v>       0.00411523 </v>
    <v>       0.00823045 </v>
    <v>       0.00823045 </v>
    <v>       0.00823045 </v>
    <v>       0.00823045 </v>
    <v>       0.00411523 </v>
    <v>       0.00823045 </v>
    <v>       0.00823045 </v>
    <v>       0.00823045 </v>
    <v>       0.00823045 </v>
    <v>       0.00411523 </v>
    <v>       0.00823045 </v>
    <v>       0.00823045 </v>
    <v>       0.00823045 </v>
    <v>       0.00823045 </v>
    <v>       0.00411523 </v>
    <v>       0.00823045 </v>
    <v>       0.00823045 </v>
    <v>       0.00823045 </v>
    <v>       0.00823045 </v>
   </varray>
  </kpoints>
  <time name="totalsc">  521.87  521.91</time>
 </calculation>
 <calculation>
  <scstep>
   <time name="dav">   20.39   20.39</time>
   <time name="total">   20.54   20.55</time>
   <energy>
    <i name="alphaZ">    359.34376910 </i>
    <i name="ewald">  -9400.18485332 </i>
    <i name="hartreedc">  -3777.39618389 </i>
    <i name="XCdc">    298.24590176 </i>
    <i name="pawpsdc">  13960.56255929 </i>
    <i name="pawaedc"> -13651.60502898 </i>
    <i name="eentropy">      0.14518637 </i>
    <i name="bandstr">  -1493.64954713 </i>
    <i name="atom">  14138.73922761 </i>
    <i name="e_fr_energy">    434.20103081 </i>
    <i name="e_wo_entrp">    434.05584444 </i>
    <i name="e_0_energy">    434.15263536 </i>
   </energy>
  </scstep>
  <scstep>
   <time name="dav">   41.24   41.24</time>
   <time name="total">   41.40   41.41</time>
   <energy>
    <i name="e_fr_energy">    408.63568529 </i>
    <i name="e_wo_entrp">    408.64121402 </i>
    <i name="e_0_energy">    408.63752820 </i>
   </energy>
  </scstep>
  <scstep>
   <time name="dav">   29.70   29.71</time>
   <time name="total">   29.86   29.86</time>
   <energy>
    <i name="e_fr_energy">    433.46053562 </i>
    <i name="e_wo_entrp">    433.53992697 </i>
    <i name="e_0_energy">    433.48699940 </i>
   </energy>
  </scstep>
  <scstep>
   <time name="dav">   30.57   30.57</time>
   <time name="total">   30.72   30.73</time>
   <energy>
    <i name="e_fr_energy">    420.32338088 </i>
    <i name="e_wo_entrp">    420.31393931 </i>
    <i name="e_0_energy">    420.32023369 </i>
   </energy>
  </scstep>
  <scstep>
   <time name="dav">   24.90   24.90</time>
   <time name="total">   25.06   25.06</time>
   <energy>
    <i name="e_fr_energy">    427.19017709 </i>
    <i name="e_wo_entrp">    427.18347481 </i>
    <i name="e_0_energy">    427.18794300 </i>
   </energy>
  </scstep>
  <scstep>
   <time name="dav">   23.61   23.62</time>
   <time name="total">   23.77   23.77</time>
   <energy>
    <i name="e_fr_energy">    432.78536359 </i>
    <i name="e_wo_entrp">    432.78180971 </i>
    <i name="e_0_energy">    432.78417896 </i>
   </energy>
  </scstep>
  <scstep>
   <time name="dav">   27.51   27.51</time>
   <time name="total">   27.67   27.67</time>
   <energy>
    <i name="e_fr_energy">    434.45387178 </i>
    <i name="e_wo_entrp">    434.44663565 </i>
    <i name="e_0_energy">    434.45145973 </i>
   </energy>
  </scstep>
  <scstep>
   <time name="dav">   24.47   24.48</time>
   <time name="total">   24.63   24.64</time>
   <energy>
    <i name="e_fr_energy">    435.10830868 </i>
    <i name="e_wo_entrp">    435.09905257 </i>
    <i name="e_0_energy">    435.10522331 </i>
   </energy>
  </scstep>
  <scstep>
   <time name="dav">   25.98   25.98</time>
   <time name="total">   26.14   26.14</time>
   <energy>
    <i name="e_fr_energy">    436.10005142 </i>
    <i name="e_wo_entrp">    435.94716600 </i>
    <i name="e_0_energy">    436.04908961 </i>
   </energy>
  </scstep>
  <scstep>
   <time name="dav">   26.01   26.01</time>
   <time name="total">   26.17   26.17</time>
   <energy>
    <i name="e_fr_energy">    436.08904327 </i>
    <i name="e_wo_entrp">    436.03879573 </i>
    <i name="e_0_energy">    436.07229409 </i>
   </energy>
  </scstep>
  <scstep>
   <time name="dav">   24.63   24.64</time>
   <time name="total">   24.79   24.80</time>
   <energy>
    <i name="e_fr_energy">    436.26051225 </i>
    <i name="e_wo_entrp">    436.15846053 </i>
    <i name="e_0_energy">    436.22649501 </i>
   </energy>
  </scstep>
  <scstep>
   <time name="dav">   22.87   22.88</time>
   <time name="total">   23.04   23.05</time>
   <energy>
    <i name="e_fr_energy">    436.21707791 </i>
    <i name="e_wo_entrp">    436.03273211 </i>
    <i name="e_0_energy">    436.15562931 </i>
   </energy>
  </scstep>
  <scstep>
   <time name="dav">   20.32   20.32</time>
   <time name="total">   20.48   20.48</time>
   <energy>
    <i name="e_fr_energy">    436.23622588 </i>
    <i name="e_wo_entrp">    436.05220060 </i>
    <i name="e_0_energy">    436.17488412 </i>
   </energy>
  </scstep>
  <scstep>
   <time name="dav">   24.29   24.29</time>
   <time name="total">   24.45   24.45</time>
   <energy>
    <i name="e_fr_energy">    436.24860995 </i>
    <i name="e_wo_entrp">    436.06878498 </i>
    <i name="e_0_energy">    436.18866830 </i>
   </energy>
  </scstep>
  <scstep>
   <time name="dav">   25.65   25.66</time>
   <time name="total">   25.81   25.82</time>
   <energy>
    <i name="e_fr_energy">    436.27899200 </i>
    <i name="e_wo_entrp">    436.12535067 </i>
    <i name="e_0_energy">    436.22777822 </i>
   </energy>
  </scstep>
  <scstep>
   <time name="dav">   24.95   24.95</time>
   <time name="total">   25.12   25.12</time>
   <energy>
    <i name="e_fr_energy">    436.26896706 </i>
    <i name="e_wo_entrp">    436.10328759 </i>
    <i name="e_0_energy">    436.21374057 </i>
   </energy>
  </scstep>
  <scstep>
   <time name="dav">   25.75   25.75</time>
   <time name="total">   25.91   25.91</time>
   <energy>
    <i name="e_fr_energy">    436.28141965 </i>
    <i name="e_wo_entrp">    436.14129722 </i>
    <i name="e_0_energy">    436.23471217 </i>
   </energy>
  </scstep>
  <scstep>
   <time name="dav">   17.69   17.70</time>
   <time name="total">   17.85   17.85</time>
   <energy>
    <i name="e_fr_energy">    436.28162981 </i>
    <i name="e_wo_entrp">    436.14106207 </i>
    <i name="e_0_energy">    436.23477390 </i>
   </energy>
  </scstep>
  <scstep>
   <time name="dav">   22.15   22.15</time>
   <time name="total">   22.30   22.31</time>
   <energy>
    <i name="e_fr_energy">    436.28161439 </i>
    <i name="e_wo_entrp">    436.14069596 </i>
    <i name="e_0_energy">    436.23464158 </i>
   </energy>
  </scstep>
  <scstep>
   <time name="dav">   26.93   26.93</time>
   <time name="total">   27.09   27.09</time>
   <energy>
    <i name="e_fr_energy">    436.28164122 </i>
[...]
       <r>    8.0637    1.0281 </r>
       <r>    8.0639    1.0280 </r>
       <r>    8.1302    0.9595 </r>
       <r>    8.1303    0.9594 </r>
       <r>    8.1303    0.9593 </r>
       <r>    8.1304    0.9592 </r>
       <r>    8.4225    0.0202 </r>
       <r>    8.4225    0.0201 </r>
       <r>    8.4228    0.0198 </r>
       <r>    8.4228    0.0197 </r>
       <r>    8.4453   -0.0071 </r>
       <r>    8.4456   -0.0074 </r>
       <r>    8.4540   -0.0147 </r>
       <r>    8.4545   -0.0151 </r>
       <r>    8.6297   -0.0145 </r>
       <r>    8.6299   -0.0145 </r>
       <r>    8.6611   -0.0092 </r>
       <r>    8.6613   -0.0092 </r>
       <r>    8.6614   -0.0092 </r>
       <r>    8.6615   -0.0092 </r>
       <r>    8.6879   -0.0059 </r>
       <r>    8.6880   -0.0059 </r>
       <r>    8.8102   -0.0005 </r>
       <r>    8.8116   -0.0004 </r>
       <r>    8.8119   -0.0004 </r>
       <r>    8.8122   -0.0004 </r>
       <r>    8.8124   -0.0004 </r>
       <r>    8.8125   -0.0004 </r>
       <r>    8.8127   -0.0004 </r>
       <r>    8.8129   -0.0004 </r>
       <r>    9.1105   -0.0000 </r>
       <r>    9.1110   -0.0000 </r>
       <r>    9.1576   -0.0000 </r>
       <r>    9.1578   -0.0000 </r>
       <r>    9.1578   -0.0000 </r>
       <r>    9.1581   -0.0000 </r>
       <r>    9.1762   -0.0000 </r>
       <r>    9.1764   -0.0000 </r>
       <r>    9.3328   -0.0000 </r>
       <r>    9.3336   -0.0000 </r>
       <r>    9.3340   -0.0000 </r>
       <r>    9.3340   -0.0000 </r>
       <r>    9.3342   -0.0000 </r>
       <r>    9.3342   -0.0000 </r>
       <r>    9.4315   -0.0000 </r>
       <r>    9.4318   -0.0000 </r>
       <r>    9.6189   -0.0000 </r>
       <r>    9.6198   -0.0000 </r>
       <r>    9.6697   -0.0000 </r>
       <r>    9.6703   -0.0000 </r>
       <r>    9.6705   -0.0000 </r>
       <r>    9.6706   -0.0000 </r>
       <r>    9.7391   -0.0000 </r>
       <r>    9.7396   -0.0000 </r>
       <r>   10.1866   -0.0000 </r>
       <r>   10.1869   -0.0000 </r>
       <r>   10.2220   -0.0000 </r>
       <r>   10.2223   -0.0000 </r>
       <r>   10.2224   -0.0000 </r>
       <r>   10.2226   -0.0000 </r>
       <r>   10.2910   -0.0000 </r>
       <r>   10.2912   -0.0000 </r>
       <r>   12.0078   -0.0000 </r>
       <r>   12.0080   -0.0000 </r>
       <r>   12.2629   -0.0000 </r>
       <r>   12.2632   -0.0000 </r>
       <r>   12.2633   -0.0000 </r>
       <r>   12.2635   -0.0000 </r>
       <r>   12.5804    0.0000 </r>
       <r>   12.5809    0.0000 </r>
      </set>
     </set>
    </set>
   </array>
  </eigenvalues>
  <separator name="orbital magnetization" >
   <v name="MAGDIPOLOUT">      0.00000000      0.00000000      0.00000000</v>
  </separator>
  <dos>
   <i name="efermi">      8.27000953 </i>
   <total>
    <array>
     <dimension dim="1">gridpoints</dimension>
     <dimension dim="2">spin</dimension>
     <field>energy</field>
     <field>total</field>
     <field>integrated</field>
     <set>
      <set comment="spin 1">
       <r>   -51.3351     0.0000     0.0000 </r>
       <r>   -51.1092     0.0000     0.0000 </r>
       <r>   -50.8833     0.0000     0.0000 </r>
       <r>   -50.6574     0.0000     0.0000 </r>
       <r>   -50.4315     0.0000     0.0000 </r>
       <r>   -50.2056     0.0000     0.0000 </r>
       <r>   -49.9797    -0.0000    -0.0000 </r>
       <r>   -49.7539    -0.0000    -0.0000 </r>
       <r>   -49.5280    -0.0000    -0.0000 </r>
       <r>   -49.3021    -0.0000    -0.0000 </r>
       <r>   -49.0762    -0.0000    -0.0000 </r>
       <r>   -48.8503    -0.0016    -0.0004 </r>
       <r>   -48.6244    -0.3431    -0.0779 </r>
       <r>   -48.3985    -1.2423    -0.3585 </r>
       <r>   -48.1726    41.2782     8.9660 </r>
       <r>   -47.9467    33.3136    16.4914 </r>
       <r>   -47.7208    -1.9756    16.0451 </r>
       <r>   -47.4949    -0.1990    16.0001 </r>
       <r>   -47.2690    -0.0007    16.0000 </r>
       <r>   -47.0431    -0.0000    16.0000 </r>
       <r>   -46.8172    -0.0000    16.0000 </r>
       <r>   -46.5913     0.0000    16.0000 </r>
       <r>   -46.3654     0.0000    16.0000 </r>
       <r>   -46.1395     0.0000    16.0000 </r>
       <r>   -45.9136     0.0000    16.0000 </r>
       <r>   -45.6877     0.0000    16.0000 </r>
       <r>   -45.4619     0.0000    16.0000 </r>
       <r>   -45.2360     0.0000    16.0000 </r>
       <r>   -45.0101     0.0000    16.0000 </r>
       <r>   -44.7842     0.0000    16.0000 </r>
       <r>   -44.5583     0.0000    16.0000 </r>
       <r>   -44.3324     0.0000    16.0000 </r>
       <r>   -44.1065     0.0000    16.0000 </r>
       <r>   -43.8806     0.0000    16.0000 </r>
       <r>   -43.6547     0.0000    16.0000 </r>
       <r>   -43.4288     0.0000    16.0000 </r>
       <r>   -43.2029     0.0000    16.0000 </r>
       <r>   -42.9770     0.0000    16.0000 </r>
       <r>   -42.7511     0.0000    16.0000 </r>
       <r>   -42.5252     0.0000    16.0000 </r>
       <r>   -42.2993     0.0000    16.0000 </r>
       <r>   -42.0734     0.0000    16.0000 </r>
       <r>   -41.8475     0.0000    16.0000 </r>
       <r>   -41.6216     0.0000    16.0000 </r>
       <r>   -41.3957     0.0000    16.0000 </r>
       <r>   -41.1699     0.0000    16.0000 </r>
       <r>   -40.9440     0.0000    16.0000 </r>
       <r>   -40.7181     0.0000    16.0000 </r>
       <r>   -40.4922     0.0000    16.0000 </r>
       <r>   -40.2663     0.0000    16.0000 </r>
       <r>   -40.0404     0.0000    16.0000 </r>
       <r>   -39.8145     0.0000    16.0000 </r>
       <r>   -39.5886     0.0000    16.0000 </r>
       <r>   -39.3627     0.0000    16.0000 </r>
       <r>   -39.1368     0.0000    16.0000 </r>
       <r>   -38.9109     0.0000    16.0000 </r>
       <r>   -38.6850     0.0000    16.0000 </r>
       <r>   -38.4591     0.0000    16.0000 </r>
       <r>   -38.2332     0.0000    16.0000 </r>
       <r>   -38.0073     0.0000    16.0000 </r>
       <r>   -37.7814     0.0000    16.0000 </r>
       <r>   -37.5555     0.0000    16.0000 </r>
       <r>   -37.3296     0.0000    16.0000 </r>
       <r>   -37.1037     0.0000    16.0000 </r>
       <r>   -36.8779     0.0000    16.0000 </r>
       <r>   -36.6520     0.0000    16.0000 </r>
       <r>   -36.4261     0.0000    16.0000 </r>
       <r>   -36.2002     0.0000    16.0000 </r>
       <r>   -35.9743     0.0000    16.0000 </r>
       <r>   -35.7484     0.0000    16.0000 </r>
       <r>   -35.5225     0.0000    16.0000 </r>
       <r>   -35.2966     0.0000    16.0000 </r>
       <r>   -35.0707     0.0000    16.0000 </r>
       <r>   -34.8448     0.0000    16.0000 </r>
       <r>   -34.6189     0.0000    16.0000 </r>
       <r>   -34.3930     0.0000    16.0000 </r>
       <r>   -34.1671     0.0000    16.0000 </r>
       <r>   -33.9412     0.0000    16.0000 </r>
       <r>   -33.7153     0.0000    16.0000 </r>
       <r>   -33.4894     0.0000    16.0000 </r>
       <r>   -33.2635     0.0000    16.0000 </r>
       <r>   -33.0376     0.0000    16.0000 </r>
       <r>   -32.8117     0.0000    16.0000 </r>
       <r>   -32.5859     0.0000    16.0000 </r>
       <r>   -32.3600     0.0000    16.0000 </r>
       <r>   -32.1341     0.0000    16.0000 </r>
       <r>   -31.9082     0.0000    16.0000 </r>
       <r>   -31.6823     0.0000    16.0000 </r>
       <r>   -31.4564     0.0000    16.0000 </r>
       <r>   -31.2305     0.0000    16.0000 </r>
       <r>   -31.0046     0.0000    16.0000 </r>
       <r>   -30.7787     0.0000    16.0000 </r>
       <r>   -30.5528     0.0000    16.0000 </r>
       <r>   -30.3269     0.0000    16.0000 </r>
       <r>   -30.1010     0.0000    16.0000 </r>
       <r>   -29.8751     0.0000    16.0000 </r>
       <r>   -29.6492     0.0000    16.0000 </r>
       <r>   -29.4233     0.0000    16.0000 </r>
       <r>   -29.1974     0.0000    16.0000 </r>
       <r>   -28.9715     0.0000    16.0000 </r>
       <r>   -28.7456     0.0000    16.0000 </r>
       <r>   -28.5197     0.0000    16.0000 </r>
       <r>   -28.2939     0.0000    16.0000 </r>
       <r>   -28.0680     0.0000    16.0000 </r>
       <r>   -27.8421     0.0000    16.0000 </r>
       <r>   -27.6162     0.0000    16.0000 </r>
       <r>   -27.3903     0.0000    16.0000 </r>
       <r>   -27.1644     0.0000    16.0000 </r>
       <r>   -26.9385     0.0000    16.0000 </r>
       <r>   -26.7126     0.0000    16.0000 </r>
       <r>   -26.4867    -0.0000    16.0000 </r>
       <r>   -26.2608    -0.0000    16.0000 </r>
       <r>   -26.0349    -0.0000    16.0000 </r>
       <r>   -25.8090    -0.0000    16.0000 </r>
       <r>   -25.5831    -0.0000    16.0000 </r>
       <r>   -25.3572    -0.0004    15.9999 </r>
       <r>   -25.1313    -0.1268    15.9713 </r>
       <r>   -24.9054    -2.4439    15.4192 </r>
       <r>   -24.6795    23.7887    20.7930 </r>
       <r>   -24.4536   103.6191    44.2000 </r>
       <r>   -24.2277    63.9256    58.6404 </r>
       <r>   -24.0019    25.1536    64.3225 </r>
       <r>   -23.7760    -1.2024    64.0509 </r>
       <r>   -23.5501    -0.2241    64.0002 </r>
       <r>   -23.3242    -0.0011    64.0000 </r>
       <r>   -23.0983    -0.0000    64.0000 </r>
       <r>   -22.8724    -0.0000    64.0000 </r>
       <r>   -22.6465     0.0000    64.0000 </r>
       <r>   -22.4206     0.0000    64.0000 </r>
       <r>   -22.1947     0.0000    64.0000 </r>
       <r>   -21.9688     0.0000    64.0000 </r>
       <r>   -21.7429     0.0000    64.0000 </r>
       <r>   -21.5170     0.0000    64.0000 </r>
       <r>   -21.2911     0.0000    64.0000 </r>
       <r>   -21.0652     0.0000    64.0000 </r>
       <r>   -20.8393     0.0000    64.0000 </r>
       <r>   -20.6134     0.0000    64.0000 </r>
       <r>   -20.3875     0.0000    64.0000 </r>
       <r>   -20.1616     0.0000    64.0000 </r>
       <r>   -19.9357     0.0000    64.0000 </r>
       <r>   -19.7098     0.0000    64.0000 </r>
       <r>   -19.4840     0.0000    64.0000 </r>
       <r>   -19.2581     0.0000    64.0000 </r>
       <r>   -19.0322     0.0000    64.0000 </r>
       <r>   -18.8063     0.0000    64.0000 </r>
       <r>   -18.5804     0.0000    64.0000 </r>
       <r>   -18.3545     0.0000    64.0000 </r>
       <r>   -18.1286     0.0000    64.0000 </r>
       <r>   -17.9027     0.0000    64.0000 </r>
       <r>   -17.6768     0.0000    64.0000 </r>
       <r>   -17.4509     0.0000    64.0000 </r>
       <r>   -17.2250     0.0000    64.0000 </r>
       <r>   -16.9991     0.0000    64.0000 </r>
       <r>   -16.7732     0.0000    64.0000 </r>
       <r>   -16.5473     0.0000    64.0000 </r>
       <r>   -16.3214     0.0000    64.0000 </r>
       <r>   -16.0955     0.0000    64.0000 </r>
       <r>   -15.8696     0.0000    64.0000 </r>
       <r>   -15.6437     0.0000    64.0000 </r>
       <r>   -15.4178     0.0000    64.0000 </r>
       <r>   -15.1920     0.0000    64.0000 </r>
       <r>   -14.9661     0.0000    64.0000 </r>
       <r>   -14.7402     0.0000    64.0000 </r>
       <r>   -14.5143     0.0000    64.0000 </r>
       <r>   -14.2884     0.0000    64.0000 </r>
       <r>   -14.0625     0.0000    64.0000 </r>
       <r>   -13.8366     0.0000    64.0000 </r>
       <r>   -13.6107     0.0000    64.0000 </r>
       <r>   -13.3848     0.0000    64.0000 </r>
       <r>   -13.1589     0.0000    64.0000 </r>
       <r>   -12.9330     0.0000    64.0000 </r>
       <r>   -12.7071     0.0000    64.0000 </r>
       <r>   -12.4812     0.0000    64.0000 </r>
       <r>   -12.2553     0.0000    64.0000 </r>
       <r>   -12.0294     0.0000    64.0000 </r>
       <r>   -11.8035     0.0000    64.0000 </r>
       <r>   -11.5776     0.0000    64.0000 </r>
       <r>   -11.3517     0.0000    64.0000 </r>
       <r>   -11.1258     0.0000    64.0000 </r>
       <r>   -10.9000     0.0000    64.0000 </r>
       <r>   -10.6741     0.0000    64.0000 </r>
       <r>   -10.4482     0.0000    64.0000 </r>
       <r>   -10.2223     0.0000    64.0000 </r>
       <r>    -9.9964     0.0000    64.0000 </r>
       <r>    -9.7705     0.0000    64.0000 </r>
       <r>    -9.5446     0.0000    64.0000 </r>
       <r>    -9.3187     0.0000    64.0000 </r>
       <r>    -9.0928     0.0000    64.0000 </r>
       <r>    -8.8669     0.0000    64.0000 </r>
       <r>    -8.6410     0.0000    64.0000 </r>
       <r>    -8.4151     0.0000    64.0000 </r>
       <r>    -8.1892     0.0000    64.0000 </r>
       <r>    -7.9633     0.0000    64.0000 </r>
       <r>    -7.7374     0.0000    64.0000 </r>
       <r>    -7.5115     0.0000    64.0000 </r>
       <r>    -7.2856     0.0000    64.0000 </r>
       <r>    -7.0597     0.0000    64.0000 </r>
       <r>    -6.8338     0.0000    64.0000 </r>
       <r>    -6.6080     0.0000    64.0000 </r>
       <r>    -6.3821     0.0000    64.0000 </r>
       <r>    -6.1562     0.0000    64.0000 </r>
       <r>    -5.9303     0.0000    64.0000 </r>
       <r>    -5.7044     0.0000    64.0000 </r>
       <r>    -5.4785     0.0000    64.0000 </r>
       <r>    -5.2526     0.0000    64.0000 </r>
       <r>    -5.0267     0.0000    64.0000 </r>
       <r>    -4.8008     0.0000    64.0000 </r>
       <r>    -4.5749     0.0000    64.0000 </r>
       <r>    -4.3490     0.0000    64.0000 </r>
       <r>    -4.1231     0.0000    64.0000 </r>
       <r>    -3.8972     0.0000    64.0000 </r>
       <r>    -3.6713     0.0000    64.0000 </r>
       <r>    -3.4454     0.0000    64.0000 </r>
       <r>    -3.2195     0.0000    64.0000 </r>
       <r>    -2.9936     0.0000    64.0000 </r>
       <r>    -2.7677     0.0000    64.0000 </r>
       <r>    -2.5418     0.0000    64.0000 </r>
       <r>    -2.3160     0.0000    64.0000 </r>
       <r>    -2.0901     0.0000    64.0000 </r>
       <r>    -1.8642    -0.0000    64.0000 </r>
       <r>    -1.6383    -0.0000    64.0000 </r>
       <r>    -1.4124    -0.0000    64.0000 </r>
       <r>    -1.1865    -0.0000    64.0000 </r>
       <r>    -0.9606    -0.0000    64.0000 </r>
       <r>    -0.7347    -0.0001    64.0000 </r>
       <r>    -0.5088    -0.0044    63.9990 </r>
       <r>    -0.2829     0.0008    63.9992 </r>
       <r>    -0.0570     0.3395    64.0759 </r>
       <r>     0.1689     0.8701    64.2724 </r>
       <r>     0.3948     1.1828    64.5396 </r>
       <r>     0.6207     1.4877    64.8757 </r>
       <r>     0.8466     1.6863    65.2566 </r>
       <r>     1.0725     2.1222    65.7360 </r>
       <r>     1.2984     2.1328    66.2178 </r>
       <r>     1.5243     2.9634    66.8872 </r>
       <r>     1.7502     2.8905    67.5401 </r>
       <r>     1.9760     2.9748    68.2121 </r>
       <r>     2.2019     3.3251    68.9632 </r>
       <r>     2.4278     3.0657    69.6558 </r>
       <r>     2.6537     2.9756    70.3279 </r>
       <r>     2.8796     3.6524    71.1530 </r>
       <r>     3.1055     3.2780    71.8935 </r>
       <r>     3.3314     3.2879    72.6362 </r>
       <r>     3.5573     3.8641    73.5091 </r>
       <r>     3.7832     4.6311    74.5552 </r>
       <r>     4.0091     4.8730    75.6560 </r>
       <r>     4.2350     4.2218    76.6097 </r>
       <r>     4.4609     5.1101    77.7641 </r>
       <r>     4.6868     4.4339    78.7657 </r>
       <r>     4.9127     4.3433    79.7468 </r>
       <r>     5.1386     5.0392    80.8851 </r>
       <r>     5.3645     6.5941    82.3747 </r>
       <r>     5.5904     5.7312    83.6694 </r>
       <r>     5.8163     5.8489    84.9906 </r>
       <r>     6.0422     8.2776    86.8605 </r>
       <r>     6.2680    11.6709    89.4969 </r>
       <r>     6.4939    12.7469    92.3763 </r>
       <r>     6.7198    12.8789    95.2856 </r>
       <r>     6.9457    16.5858    99.0322 </r>
       <r>     7.1716    18.8076   103.2808 </r>
       <r>     7.3975    12.0691   106.0071 </r>
       <r>     7.6234    14.3149   109.2408 </r>
       <r>     7.8493    18.5196   113.4243 </r>
       <r>     8.0752    25.1811   119.1125 </r>
       <r>     8.3011    29.0807   125.6817 </r>
       <r>     8.5270    50.0642   136.9910 </r>
       <r>     8.7529   110.0017   161.8398 </r>
       <r>     8.9788   104.4488   185.4342 </r>
       <r>     9.2047    63.7416   199.8331 </r>
       <r>     9.4306    18.8440   204.0899 </r>
       <r>     9.6565     8.9431   206.1101 </r>
       <r>     9.8824    16.5603   209.8510 </r>
       <r>    10.1083    22.9250   215.0296 </r>
       <r>    10.3342    29.3881   221.6682 </r>
       <r>    10.5600    33.4081   229.2149 </r>
       <r>    10.7859    25.9437   235.0755 </r>
       <r>    11.0118    19.7007   239.5257 </r>
       <r>    11.2377    11.9196   242.2183 </r>
       <r>    11.4636     9.5116   244.3669 </r>
       <r>    11.6895     8.9173   246.3813 </r>
       <r>    11.9154     6.1352   247.7672 </r>
       <r>    12.1413     4.7035   248.8297 </r>
       <r>    12.3672     7.1675   250.4488 </r>
       <r>    12.5931    13.2544   253.4429 </r>
       <r>    12.8190     9.0548   255.4883 </r>
       <r>    13.0449     1.8456   255.9053 </r>
       <r>    13.2708     0.2638   255.9648 </r>
       <r>    13.4967     0.1589   256.0007 </r>
       <r>    13.7226    -0.0012   256.0005 </r>
       <r>    13.9485    -0.0021   256.0000 </r>
       <r>    14.1744    -0.0000   256.0000 </r>
       <r>    14.4003    -0.0000   256.0000 </r>
       <r>    14.6262    -0.0000   256.0000 </r>
       <r>    14.8520     0.0000   256.0000 </r>
       <r>    15.0779     0.0000   256.0000 </r>
       <r>    15.3038     0.0000   256.0000 </r>
       <r>    15.5297     0.0000   256.0000 </r>
       <r>    15.7556     0.0000   256.0000 </r>
       <r>    15.9815     0.0000   256.0000 </r>
       <r>    16.2074     0.0000   256.0000 </r>
       <r>    16.4333     0.0000   256.0000 </r>
      </set>
     </set>
    </array>
   </total>
  </dos>
 </calculation>
 <structure name="finalpos" >
  <crystal>
   <varray name="basis" >
    <v>       5.57149629       0.00000000       0.00000000 </v>
    <v>       0.00000000       5.57149629       0.00000000 </v>
    <v>       0.00000000       0.00000000       7.99925885 </v>
   </varray>
   <i name="volume">    248.30956067 </i>
   <varray name="rec_basis" >
    <v>       0.17948500       0.00000000       0.00000000 </v>
    <v>       0.00000000       0.17948500       0.00000000 </v>
    <v>       0.00000000       0.00000000       0.12501158 </v>
   </varray>
  </crystal>
  <varray name="positions" >
   <v>       0.00000000       0.00000000       0.00000000 </v>
   <v>       0.00000000       0.00000000       0.50000000 </v>
   <v>       0.00000000       0.50000000       0.00000000 </v>
   <v>       0.00000000       0.50000000       0.50000000 </v>
   <v>       0.50000000       0.00000000       0.00000000 </v>
   <v>       0.50000000       0.00000000       0.50000000 </v>
   <v>       0.50000000       0.50000000       0.00000000 </v>
   <v>       0.50000000       0.50000000       0.50000000 </v>
   <v>       0.25000000       0.25000000       0.25000000 </v>
   <v>       0.25000000       0.25000000       0.75000000 </v>
   <v>       0.25000000       0.75000000       0.25000000 </v>
   <v>       0.25000000       0.75000000       0.75000000 </v>
   <v>       0.75000000       0.25000000       0.25000000 </v>
   <v>       0.75000000       0.25000000       0.75000000 </v>
   <v>       0.75000000       0.75000000       0.25000000 </v>
   <v>       0.75000000       0.75000000       0.75000000 </v>
   <v>       0.25000000       0.25000000       0.24812483 </v>
   <v>       0.25000000       0.25000000       0.75000000 </v>
   <v>       0.25000000       0.75000000       0.25000000 </v>
   <v>       0.25000000       0.75000000       0.75000000 </v>
   <v>       0.75000000       0.25000000       0.25000000 </v>
   <v>       0.75000000       0.25000000       0.75000000 </v>
   <v>       0.75000000       0.75000000       0.25000000 </v>
   <v>       0.75000000       0.75000000       0.75000000 </v>
  </varray>
 </structure>
</modeling>
