  32  32   0   0
  0.4279450E+02  0.7929428E-09  0.8241707E-09  0.2095458E-08  0.5000000E-15
  1.000000000000000E-004
  CAR 
 unknown system                          
      8.56730526    -59.47133976  301      0.69400433      1.00000000
    -59.471  0.0000E+00  0.0000E+00
    -59.245  0.0000E+00  0.0000E+00
    -59.018  0.0000E+00  0.0000E+00
    -58.791  0.0000E+00  0.0000E+00
    -58.564  0.0000E+00  0.0000E+00
    -58.337  0.0000E+00  0.0000E+00
    -58.111  0.0000E+00  0.0000E+00
    -57.884  0.0000E+00  0.0000E+00
    -57.657  0.0000E+00  0.0000E+00
    -57.430  0.0000E+00  0.0000E+00
    -57.203 -0.1205E-27 -0.2733E-28
    -56.977 -0.1058E-13 -0.2400E-14
    -56.750 -0.2706E-04 -0.6137E-05
    -56.523 -0.1314E+01 -0.2980E+00
    -56.296  0.5716E+02  0.1267E+02
    -56.069  0.5675E+01  0.1395E+02
    -55.843  0.4462E+02  0.2407E+02
    -55.616  0.1764E+02  0.2807E+02
    -55.389 -0.3245E+00  0.2800E+02
    -55.162 -0.8112E-05  0.2800E+02
    -54.935  0.0000E+00  0.2800E+02
    -54.709  0.0000E+00  0.2800E+02
    -54.482  0.0000E+00  0.2800E+02
    -54.255  0.0000E+00  0.2800E+02
    -54.028  0.0000E+00  0.2800E+02
    -53.801  0.0000E+00  0.2800E+02
    -53.575  0.0000E+00  0.2800E+02
    -53.348  0.0000E+00  0.2800E+02
    -53.121  0.0000E+00  0.2800E+02
    -52.894  0.0000E+00  0.2800E+02
    -52.667  0.0000E+00  0.2800E+02
    -52.441  0.0000E+00  0.2800E+02
    -52.214  0.0000E+00  0.2800E+02
    -51.987  0.0000E+00  0.2800E+02
    -51.760  0.0000E+00  0.2800E+02
    -51.533  0.0000E+00  0.2800E+02
    -51.307  0.0000E+00  0.2800E+02
    -51.080  0.0000E+00  0.2800E+02
    -50.853  0.0000E+00  0.2800E+02
    -50.626  0.0000E+00  0.2800E+02
    -50.400  0.0000E+00  0.2800E+02
    -50.173  0.0000E+00  0.2800E+02
    -49.946  0.0000E+00  0.2800E+02
    -49.719  0.0000E+00  0.2800E+02
    -49.492  0.0000E+00  0.2800E+02
    -49.266  0.0000E+00  0.2800E+02
    -49.039  0.0000E+00  0.2800E+02
    -48.812  0.0000E+00  0.2800E+02
    -48.585  0.0000E+00  0.2800E+02
    -48.358  0.0000E+00  0.2800E+02
    -48.132  0.0000E+00  0.2800E+02
    -47.905  0.0000E+00  0.2800E+02
    -47.678  0.0000E+00  0.2800E+02
    -47.451  0.0000E+00  0.2800E+02
    -47.224  0.0000E+00  0.2800E+02
    -46.998  0.0000E+00  0.2800E+02
    -46.771  0.0000E+00  0.2800E+02
    -46.544  0.0000E+00  0.2800E+02
    -46.317  0.0000E+00  0.2800E+02
    -46.090  0.0000E+00  0.2800E+02
    -45.864  0.0000E+00  0.2800E+02
    -45.637  0.0000E+00  0.2800E+02
    -45.410  0.0000E+00  0.2800E+02
    -45.183  0.0000E+00  0.2800E+02
    -44.956  0.0000E+00  0.2800E+02
    -44.730  0.0000E+00  0.2800E+02
    -44.503  0.0000E+00  0.2800E+02
    -44.276  0.0000E+00  0.2800E+02
    -44.049  0.0000E+00  0.2800E+02
    -43.822  0.0000E+00  0.2800E+02
    -43.596  0.0000E+00  0.2800E+02
    -43.369  0.0000E+00  0.2800E+02
    -43.142  0.0000E+00  0.2800E+02
    -42.915  0.0000E+00  0.2800E+02
    -42.688  0.0000E+00  0.2800E+02
    -42.462  0.0000E+00  0.2800E+02
    -42.235  0.0000E+00  0.2800E+02
    -42.008  0.0000E+00  0.2800E+02
    -41.781  0.0000E+00  0.2800E+02
    -41.554  0.0000E+00  0.2800E+02
    -41.328  0.0000E+00  0.2800E+02
    -41.101  0.0000E+00  0.2800E+02
    -40.874  0.0000E+00  0.2800E+02
    -40.647  0.0000E+00  0.2800E+02
    -40.421  0.0000E+00  0.2800E+02
    -40.194  0.0000E+00  0.2800E+02
    -39.967  0.0000E+00  0.2800E+02
    -39.740  0.0000E+00  0.2800E+02
    -39.513  0.0000E+00  0.2800E+02
    -39.287  0.0000E+00  0.2800E+02
    -39.060  0.0000E+00  0.2800E+02
    -38.833  0.0000E+00  0.2800E+02
    -38.606  0.0000E+00  0.2800E+02
    -38.379  0.0000E+00  0.2800E+02
    -38.153  0.0000E+00  0.2800E+02
    -37.926  0.0000E+00  0.2800E+02
    -37.699  0.0000E+00  0.2800E+02
    -37.472  0.0000E+00  0.2800E+02
    -37.245  0.0000E+00  0.2800E+02
    -37.019  0.0000E+00  0.2800E+02
    -36.792  0.0000E+00  0.2800E+02
    -36.565  0.0000E+00  0.2800E+02
    -36.338  0.0000E+00  0.2800E+02
    -36.111  0.0000E+00  0.2800E+02
    -35.885  0.0000E+00  0.2800E+02
    -35.658  0.0000E+00  0.2800E+02
    -35.431  0.0000E+00  0.2800E+02
    -35.204  0.0000E+00  0.2800E+02
    -34.977  0.0000E+00  0.2800E+02
    -34.751  0.0000E+00  0.2800E+02
    -34.524  0.0000E+00  0.2800E+02
    -34.297  0.0000E+00  0.2800E+02
    -34.070  0.0000E+00  0.2800E+02
    -33.843  0.0000E+00  0.2800E+02
    -33.617 -0.8330E-27  0.2800E+02
    -33.390 -0.3476E-13  0.2800E+02
    -33.163 -0.4355E-04  0.2800E+02
    -32.936 -0.1117E+01  0.2775E+02
    -32.709  0.5050E+02  0.3920E+02
    -32.483  0.1335E+03  0.6949E+02
    -32.256  0.6458E+02  0.8413E+02
    -32.029  0.7219E+02  0.1005E+03
    -31.802  0.5209E+02  0.1123E+03
    -31.575 -0.1404E+01  0.1120E+03
    -31.349 -0.3008E-03  0.1120E+03
    -31.122 -0.1024E-11  0.1120E+03
    -30.895  0.0000E+00  0.1120E+03
    -30.668  0.0000E+00  0.1120E+03
    -30.442  0.0000E+00  0.1120E+03
    -30.215  0.0000E+00  0.1120E+03
    -29.988  0.0000E+00  0.1120E+03
    -29.761  0.0000E+00  0.1120E+03
    -29.534  0.0000E+00  0.1120E+03
    -29.308  0.0000E+00  0.1120E+03
    -29.081  0.0000E+00  0.1120E+03
    -28.854  0.0000E+00  0.1120E+03
    -28.627  0.0000E+00  0.1120E+03
    -28.400  0.0000E+00  0.1120E+03
    -28.174  0.0000E+00  0.1120E+03
    -27.947  0.0000E+00  0.1120E+03
    -27.720  0.0000E+00  0.1120E+03
    -27.493  0.0000E+00  0.1120E+03
    -27.266  0.0000E+00  0.1120E+03
    -27.040  0.0000E+00  0.1120E+03
    -26.813  0.0000E+00  0.1120E+03
    -26.586  0.0000E+00  0.1120E+03
    -26.359  0.0000E+00  0.1120E+03
    -26.132  0.0000E+00  0.1120E+03
    -25.906  0.0000E+00  0.1120E+03
    -25.679  0.0000E+00  0.1120E+03
    -25.452  0.0000E+00  0.1120E+03
    -25.225  0.0000E+00  0.1120E+03
    -24.998  0.0000E+00  0.1120E+03
    -24.772  0.0000E+00  0.1120E+03
    -24.545  0.0000E+00  0.1120E+03
    -24.318  0.0000E+00  0.1120E+03
    -24.091  0.0000E+00  0.1120E+03
    -23.864  0.0000E+00  0.1120E+03
    -23.638  0.0000E+00  0.1120E+03
    -23.411  0.0000E+00  0.1120E+03
    -23.184  0.0000E+00  0.1120E+03
    -22.957  0.0000E+00  0.1120E+03
    -22.730  0.0000E+00  0.1120E+03
    -22.504  0.0000E+00  0.1120E+03
    -22.277  0.0000E+00  0.1120E+03
    -22.050  0.0000E+00  0.1120E+03
    -21.823  0.0000E+00  0.1120E+03
    -21.596  0.0000E+00  0.1120E+03
    -21.370  0.0000E+00  0.1120E+03
    -21.143  0.0000E+00  0.1120E+03
    -20.916  0.0000E+00  0.1120E+03
    -20.689  0.0000E+00  0.1120E+03
    -20.463  0.0000E+00  0.1120E+03
    -20.236  0.0000E+00  0.1120E+03
    -20.009  0.0000E+00  0.1120E+03
    -19.782  0.0000E+00  0.1120E+03
    -19.555  0.0000E+00  0.1120E+03
    -19.329  0.0000E+00  0.1120E+03
    -19.102  0.0000E+00  0.1120E+03
    -18.875  0.0000E+00  0.1120E+03
    -18.648  0.0000E+00  0.1120E+03
    -18.421  0.0000E+00  0.1120E+03
    -18.195  0.0000E+00  0.1120E+03
    -17.968  0.0000E+00  0.1120E+03
    -17.741  0.0000E+00  0.1120E+03
    -17.514  0.0000E+00  0.1120E+03
    -17.287  0.0000E+00  0.1120E+03
    -17.061  0.0000E+00  0.1120E+03
    -16.834  0.0000E+00  0.1120E+03
    -16.607  0.0000E+00  0.1120E+03
    -16.380  0.0000E+00  0.1120E+03
    -16.153  0.0000E+00  0.1120E+03
    -15.927  0.0000E+00  0.1120E+03
    -15.700  0.0000E+00  0.1120E+03
    -15.473  0.0000E+00  0.1120E+03
    -15.246  0.0000E+00  0.1120E+03
    -15.019 -0.1149E-32  0.1120E+03
    -14.793 -0.2005E-17  0.1120E+03
    -14.566 -0.1058E-06  0.1120E+03
    -14.339 -0.1449E+00  0.1120E+03
    -14.112  0.2063E+02  0.1166E+03
    -13.885  0.6907E+02  0.1323E+03
    -13.659 -0.1377E+01  0.1320E+03
    -13.432 -0.3908E-03  0.1320E+03
    -13.205 -0.2126E-11  0.1320E+03
    -12.978  0.0000E+00  0.1320E+03
    -12.751  0.0000E+00  0.1320E+03
    -12.525  0.0000E+00  0.1320E+03
    -12.298  0.0000E+00  0.1320E+03
    -12.071  0.0000E+00  0.1320E+03
    -11.844  0.0000E+00  0.1320E+03
    -11.617  0.0000E+00  0.1320E+03
    -11.391  0.0000E+00  0.1320E+03
    -11.164  0.0000E+00  0.1320E+03
    -10.937  0.0000E+00  0.1320E+03
    -10.710  0.0000E+00  0.1320E+03
    -10.484  0.0000E+00  0.1320E+03
    -10.257  0.0000E+00  0.1320E+03
    -10.030  0.0000E+00  0.1320E+03
     -9.803  0.0000E+00  0.1320E+03
     -9.576  0.0000E+00  0.1320E+03
     -9.350 -0.3835E-35  0.1320E+03
     -9.123 -0.1125E-19  0.1320E+03
     -8.896 -0.9503E-09  0.1320E+03
     -8.669 -0.1865E-02  0.1320E+03
     -8.442  0.2106E+00  0.1320E+03
     -8.216  0.3808E+01  0.1329E+03
     -7.989  0.3819E+01  0.1338E+03
     -7.762  0.9898E+00  0.1340E+03
     -7.535  0.1500E+01  0.1343E+03
     -7.308  0.4542E+01  0.1354E+03
     -7.082  0.5332E+01  0.1366E+03
     -6.855  0.3369E+01  0.1373E+03
     -6.628  0.2858E+01  0.1380E+03
     -6.401  0.4754E+01  0.1391E+03
     -6.174  0.5482E+01  0.1403E+03
     -5.948  0.6834E+01  0.1419E+03
     -5.721  0.5389E+01  0.1431E+03
     -5.494  0.8304E+01  0.1450E+03
     -5.267  0.5236E+01  0.1462E+03
     -5.040  0.4427E+01  0.1472E+03
     -4.814  0.7431E+01  0.1488E+03
     -4.587  0.6585E+01  0.1503E+03
     -4.360  0.7862E+01  0.1521E+03
     -4.133  0.8009E+01  0.1539E+03
     -3.906  0.1063E+02  0.1564E+03
     -3.680  0.1268E+02  0.1592E+03
     -3.453  0.7914E+01  0.1610E+03
     -3.226  0.9469E+01  0.1632E+03
     -2.999  0.5428E+01  0.1644E+03
     -2.772  0.1008E+02  0.1667E+03
     -2.546  0.9981E+01  0.1690E+03
     -2.319  0.9612E+01  0.1711E+03
     -2.092  0.9936E+01  0.1734E+03
     -1.865  0.1299E+02  0.1763E+03
     -1.638  0.1620E+02  0.1800E+03
     -1.412  0.1775E+02  0.1840E+03
     -1.185  0.2142E+02  0.1889E+03
     -0.958  0.2047E+02  0.1935E+03
     -0.731  0.2333E+02  0.1988E+03
     -0.505  0.2820E+02  0.2052E+03
     -0.278  0.2152E+02  0.2101E+03
     -0.051  0.2387E+02  0.2155E+03
      0.176  0.4016E+02  0.2246E+03
      0.403  0.3226E+02  0.2319E+03
      0.629  0.3517E+02  0.2399E+03
      0.856  0.3750E+02  0.2484E+03
      1.083  0.2501E+02  0.2541E+03
      1.310  0.2011E+02  0.2587E+03
      1.537  0.3371E+02  0.2663E+03
      1.763  0.3772E+02  0.2749E+03
      1.990  0.4407E+02  0.2848E+03
      2.217  0.4262E+02  0.2945E+03
      2.444  0.4929E+02  0.3057E+03
      2.671  0.4272E+02  0.3154E+03
      2.897  0.3423E+02  0.3231E+03
      3.124  0.2829E+02  0.3296E+03
      3.351  0.2609E+02  0.3355E+03
      3.578  0.2723E+02  0.3417E+03
      3.805  0.2185E+02  0.3466E+03
      4.031  0.2229E+02  0.3517E+03
      4.258  0.2047E+02  0.3563E+03
      4.485  0.2560E+02  0.3621E+03
      4.712  0.2732E+02  0.3683E+03
      4.939  0.2096E+02  0.3731E+03
      5.165  0.2337E+02  0.3784E+03
      5.392  0.2178E+02  0.3833E+03
      5.619  0.3124E+01  0.3840E+03
      5.846 -0.5133E-01  0.3840E+03
      6.073 -0.1214E-05  0.3840E+03
      6.299  0.0000E+00  0.3840E+03
      6.526  0.0000E+00  0.3840E+03
      6.753  0.0000E+00  0.3840E+03
      6.980  0.0000E+00  0.3840E+03
      7.207  0.0000E+00  0.3840E+03
      7.433  0.0000E+00  0.3840E+03
      7.660  0.0000E+00  0.3840E+03
      7.887  0.0000E+00  0.3840E+03
      8.114  0.0000E+00  0.3840E+03
      8.341  0.0000E+00  0.3840E+03
      8.567  0.0000E+00  0.3840E+03
