   32   32    1    1
  0.4279450E+02  0.7929428E-09  0.8241707E-09  0.2095458E-08  0.5000000E-15
  1.000000000000000E-004
  CAR 
 unknown system                          
    242      9    192
 
  0.1276756E-14  0.1276756E-14  0.1276756E-14  0.6250000E-01
      1        -56.378673   1.000000
      2        -56.374671   1.000000
      3        -56.373177   1.000000
      4        -56.362097   1.000000
      5        -56.359875   1.000000
      6        -56.334840   1.000000
      7        -56.318942   1.000000
      8        -55.993912   1.000000
      9        -55.990746   1.000000
     10        -55.920846   1.000000
     11        -55.914205   1.000000
     12        -55.862771   1.000000
     13        -55.825447   1.000000
     14        -55.761527   1.000000
     15        -32.805074   1.000000
     16        -32.802038   1.000000
     17        -32.764597   1.000000
     18        -32.763218   1.000000
     19        -32.752792   1.000000
     20        -32.735401   1.000000
     21        -32.704295   1.000000
     22        -32.667102   1.000000
     23        -32.602885   1.000000
     24        -32.592895   1.000000
     25        -32.582862   1.000000
     26        -32.581082   1.000000
     27        -32.579385   1.000000
     28        -32.579067   1.000000
     29        -32.575698   1.000000
     30        -32.572556   1.000000
     31        -32.569640   1.000000
     32        -32.557153   1.000000
     33        -32.554729   1.000000
     34        -32.548193   1.000000
     35        -32.519964   1.000000
     36        -32.347643   1.000000
     37        -32.342152   1.000000
     38        -32.331381   1.000000
     39        -32.326947   1.000000
     40        -32.321893   1.000000
     41        -32.310776   1.000000
     42        -32.260759   1.000000
     43        -32.224173   1.000000
     44        -32.218524   1.000000
     45        -32.217784   1.000000
     46        -32.196304   1.000000
     47        -32.179582   1.000000
     48        -32.172740   1.000000
     49        -32.164858   1.000000
     50        -32.120266   1.000000
     51        -31.975895   1.000000
     52        -31.962894   1.000000
     53        -31.951967   1.000000
     54        -31.936330   1.000000
     55        -31.914676   1.000000
     56        -31.898502   1.000000
     57        -14.126891   1.000000
     58        -14.126730   1.000000
     59        -14.111331   1.000000
     60        -14.103441   1.000000
     61        -14.073867   1.000000
     62        -14.034484   1.000000
     63        -14.033930   1.000000
     64        -14.023758   1.000000
     65        -14.010728   1.000000
     66        -13.974547   1.000000
     67         -8.444605   1.000000
     68         -7.282491   1.000000
     69         -6.729577   1.000000
     70         -6.169405   1.000000
     71         -5.724863   1.000000
     72         -5.683469   1.000000
     73         -5.545656   1.000000
     74         -4.966747   1.000000
     75         -4.836913   1.000000
     76         -4.741536   1.000000
     77         -4.428688   1.000000
     78         -4.254551   1.000000
     79         -3.957775   1.000000
     80         -3.866118   1.000000
     81         -3.816321   1.000000
     82         -3.690316   1.000000
     83         -2.933723   1.000000
     84         -2.714464   1.000000
     85         -2.529350   1.000000
     86         -2.410596   1.000000
     87         -2.369260   1.000000
     88         -1.929623   1.000000
     89         -1.734647   1.000000
     90         -1.451322   1.000000
     91         -1.399791   1.000000
     92         -1.394916   1.000000
     93         -1.213221   1.000000
     94         -1.147903   1.000000
     95         -1.106243   1.000000
     96         -0.953686   1.000000
     97         -0.878035   1.000000
     98         -0.749141   1.000000
     99         -0.736965   1.000000
    100         -0.557617   1.000000
    101         -0.550422   1.000000
    102         -0.512718   1.000000
    103         -0.400871   1.000000
    104         -0.282348   1.000000
    105         -0.276762   1.000000
    106         -0.201264   1.000000
    107         -0.114039   1.000000
    108         -0.028916   1.000000
    109         -0.019940   1.000000
    110          0.091522   1.000000
    111          0.112020   1.000000
    112          0.123608   1.000000
    113          0.143056   1.000000
    114          0.318785   1.000001
    115          0.359734   1.000012
    116          0.377829   1.000037
    117          0.383385   1.000051
    118          0.409661   1.000218
    119          0.554993   1.032128
    120          0.568259   1.035300
    121          0.630743   0.934112
    122          0.679392   0.622204
    123          0.726552   0.240068
    124          0.827710  -0.033797
    125          0.897094  -0.007226
    126          0.970428  -0.000328
    127          0.982297  -0.000177
    128          1.042216  -0.000005
    129          1.206334  -0.000000
    130          1.246062  -0.000000
    131          1.400088  -0.000000
    132          1.471208  -0.000000
    133          1.499698  -0.000000
    134          1.621029  -0.000000
    135          1.743905  -0.000000
    136          1.744839  -0.000000
    137          1.755882  -0.000000
    138          1.763618  -0.000000
    139          1.800000  -0.000000
    140          1.874992  -0.000000
    141          1.903057  -0.000000
    142          1.945579  -0.000000
    143          1.962443  -0.000000
    144          2.051147  -0.000000
    145          2.084959  -0.000000
    146          2.134884  -0.000000
    147          2.136357  -0.000000
    148          2.207273  -0.000000
    149          2.227159  -0.000000
    150          2.250000  -0.000000
    151          2.250813  -0.000000
    152          2.274177  -0.000000
    153          2.359800  -0.000000
    154          2.379548  -0.000000
    155          2.431509  -0.000000
    156          2.464235  -0.000000
    157          2.505873  -0.000000
    158          2.539299  -0.000000
    159          2.564731  -0.000000
    160          2.570499  -0.000000
    161          2.602743  -0.000000
    162          2.663381  -0.000000
    163          2.700514   0.000000
    164          2.983565   0.000000
    165          3.060554   0.000000
    166          3.340386   0.000000
    167          3.453695   0.000000
    168          3.484016   0.000000
    169          3.520621   0.000000
    170          3.626516   0.000000
    171          3.628606   0.000000
    172          3.645902   0.000000
    173          3.835157   0.000000
    174          3.958949   0.000000
    175          4.090986   0.000000
    176          4.116429   0.000000
    177          4.223881   0.000000
    178          4.236013   0.000000
    179          4.350841   0.000000
    180          4.494236   0.000000
    181          4.563143   0.000000
    182          4.595309   0.000000
    183          4.681164   0.000000
    184          4.685555   0.000000
    185          4.761243   0.000000
    186          4.909251   0.000000
    187          4.938169   0.000000
    188          4.989659   0.000000
    189          5.185690   0.000000
    190          5.189514   0.000000
    191          5.378813   0.000000
    192          5.450174   0.000000
 
  0.2500000E+00  0.1276756E-14  0.1276756E-14  0.1250000E+00
      1        -56.378672   1.000000
      2        -56.374534   1.000000
      3        -56.373315   1.000000
      4        -56.361772   1.000000
      5        -56.360200   1.000000
      6        -56.334779   1.000000
      7        -56.319005   1.000000
      8        -55.994376   1.000000
      9        -55.990277   1.000000
     10        -55.920075   1.000000
     11        -55.915115   1.000000
     12        -55.862779   1.000000
     13        -55.825206   1.000000
     14        -55.761632   1.000000
     15        -32.805700   1.000000
     16        -32.801426   1.000000
     17        -32.764382   1.000000
     18        -32.762090   1.000000
     19        -32.754232   1.000000
     20        -32.734068   1.000000
     21        -32.704771   1.000000
     22        -32.667204   1.000000
     23        -32.600537   1.000000
     24        -32.592627   1.000000
     25        -32.582491   1.000000
     26        -32.582353   1.000000
     27        -32.581353   1.000000
     28        -32.579592   1.000000
     29        -32.573068   1.000000
     30        -32.572173   1.000000
     31        -32.570025   1.000000
     32        -32.559840   1.000000
     33        -32.554723   1.000000
     34        -32.543596   1.000000
     35        -32.524589   1.000000
     36        -32.348088   1.000000
     37        -32.341771   1.000000
     38        -32.331062   1.000000
     39        -32.327273   1.000000
     40        -32.320622   1.000000
     41        -32.312585   1.000000
     42        -32.260780   1.000000
     43        -32.224073   1.000000
     44        -32.223055   1.000000
     45        -32.212558   1.000000
     46        -32.198108   1.000000
     47        -32.181283   1.000000
     48        -32.171622   1.000000
     49        -32.162806   1.000000
     50        -32.120297   1.000000
     51        -31.977239   1.000000
     52        -31.961755   1.000000
     53        -31.949914   1.000000
     54        -31.932933   1.000000
     55        -31.919103   1.000000
     56        -31.898957   1.000000
     57        -14.126891   1.000000
     58        -14.126728   1.000000
     59        -14.111286   1.000000
     60        -14.103439   1.000000
     61        -14.073825   1.000000
     62        -14.034485   1.000000
     63        -14.033889   1.000000
     64        -14.023759   1.000000
     65        -14.010819   1.000000
     66        -13.974496   1.000000
     67         -8.317087   1.000000
     68         -7.375588   1.000000
     69         -6.614626   1.000000
     70         -6.585917   1.000000
     71         -5.936064   1.000000
     72         -5.705255   1.000000
     73         -5.364948   1.000000
     74         -5.147752   1.000000
     75         -4.820120   1.000000
     76         -4.571720   1.000000
     77         -4.450076   1.000000
     78         -3.894444   1.000000
     79         -3.856893   1.000000
     80         -3.641280   1.000000
     81         -3.625327   1.000000
     82         -3.396387   1.000000
     83         -3.209477   1.000000
     84         -2.909146   1.000000
     85         -2.743097   1.000000
     86         -2.296031   1.000000
     87         -1.853527   1.000000
     88         -1.844011   1.000000
     89         -1.779895   1.000000
     90         -1.736415   1.000000
     91         -1.610523   1.000000
     92         -1.445813   1.000000
     93         -1.269862   1.000000
     94         -1.228294   1.000000
     95         -1.044391   1.000000
     96         -0.863167   1.000000
     97         -0.817772   1.000000
     98         -0.789981   1.000000
     99         -0.771804   1.000000
    100         -0.673800   1.000000
    101         -0.618725   1.000000
    102         -0.582025   1.000000
    103         -0.357951   1.000000
    104         -0.329276   1.000000
    105         -0.303084   1.000000
    106         -0.238130   1.000000
    107         -0.230968   1.000000
    108         -0.135969   1.000000
    109         -0.029022   1.000000
    110          0.023015   1.000000
    111          0.091379   1.000000
    112          0.107335   1.000000
    113          0.140993   1.000000
    114          0.154639   1.000000
    115          0.235390   1.000000
    116          0.404214   1.000163
    117          0.493312   1.007817
    118          0.494942   1.008240
    119          0.536327   1.024141
    120          0.564862   1.034833
    121          0.589061   1.029526
    122          0.712005   0.350372
    123          0.728170   0.228725
    124          0.746101   0.118605
    125          0.816426  -0.035458
    126          0.842554  -0.028293
    127          1.019991  -0.000020
    128          1.049501  -0.000003
    129          1.300010  -0.000000
    130          1.391378  -0.000000
    131          1.438482  -0.000000
    132          1.472971  -0.000000
    133          1.502418  -0.000000
    134          1.585242  -0.000000
    135          1.595202  -0.000000
    136          1.633028  -0.000000
    137          1.707533  -0.000000
    138          1.726658  -0.000000
    139          1.775755  -0.000000
    140          1.808080  -0.000000
    141          1.884154  -0.000000
    142          1.924451  -0.000000
    143          1.967960  -0.000000
    144          2.064261  -0.000000
    145          2.086997  -0.000000
    146          2.138931  -0.000000
    147          2.166611  -0.000000
    148          2.238331  -0.000000
    149          2.260221  -0.000000
    150          2.306534  -0.000000
    151          2.325504  -0.000000
    152          2.325895  -0.000000
    153          2.400272  -0.000000
    154          2.437618  -0.000000
    155          2.443714  -0.000000
    156          2.446526  -0.000000
    157          2.500574  -0.000000
    158          2.634793  -0.000000
    159          2.680432  -0.000000
    160          2.684944  -0.000000
    161          2.764925   0.000000
    162          2.787295   0.000000
    163          2.880627   0.000000
    164          3.036325   0.000000
    165          3.069507   0.000000
    166          3.255268   0.000000
    167          3.456804   0.000000
    168          3.486018   0.000000
    169          3.493241   0.000000
    170          3.528760   0.000000
    171          3.621090   0.000000
    172          3.637375   0.000000
    173          3.668761   0.000000
    174          3.785782   0.000000
    175          4.162732   0.000000
    176          4.216920   0.000000
    177          4.271545   0.000000
    178          4.292277   0.000000
    179          4.443339   0.000000
    180          4.469542   0.000000
    181          4.492301   0.000000
    182          4.504989   0.000000
    183          4.573190   0.000000
    184          4.665733   0.000000
    185          4.688898   0.000000
    186          4.785658   0.000000
    187          4.916013   0.000000
    188          4.956789   0.000000
    189          5.045636   0.000000
    190          5.283953   0.000000
    191          5.337029   0.000000
    192          5.474640   0.000000
 
  0.5000000E+00  0.1276756E-14  0.1276756E-14  0.6250000E-01
      1        -56.378670   1.000000
      2        -56.374355   1.000000
      3        -56.373495   1.000000
      4        -56.361031   1.000000
      5        -56.360941   1.000000
      6        -56.334718   1.000000
      7        -56.319068   1.000000
      8        -55.994751   1.000000
      9        -55.989896   1.000000
     10        -55.918807   1.000000
     11        -55.916520   1.000000
     12        -55.862787   1.000000
     13        -55.824964   1.000000
     14        -55.761736   1.000000
     15        -32.806205   1.000000
     16        -32.800927   1.000000
     17        -32.764182   1.000000
     18        -32.758487   1.000000
     19        -32.758185   1.000000
     20        -32.732875   1.000000
     21        -32.705064   1.000000
     22        -32.667275   1.000000
     23        -32.592342   1.000000
     24        -32.592123   1.000000
     25        -32.591822   1.000000
     26        -32.581670   1.000000
     27        -32.581395   1.000000
     28        -32.580519   1.000000
     29        -32.571513   1.000000
     30        -32.570690   1.000000
     31        -32.568710   1.000000
     32        -32.564282   1.000000
     33        -32.554716   1.000000
     34        -32.536151   1.000000
     35        -32.531881   1.000000
     36        -32.348480   1.000000
     37        -32.341430   1.000000
     38        -32.330693   1.000000
     39        -32.327655   1.000000
     40        -32.318251   1.000000
     41        -32.315486   1.000000
     42        -32.260800   1.000000
     43        -32.225057   1.000000
     44        -32.223973   1.000000
     45        -32.209872   1.000000
     46        -32.194052   1.000000
     47        -32.192661   1.000000
     48        -32.164290   1.000000
     49        -32.163107   1.000000
     50        -32.120326   1.000000
     51        -31.978450   1.000000
     52        -31.960758   1.000000
     53        -31.946119   1.000000
     54        -31.934254   1.000000
     55        -31.919213   1.000000
     56        -31.900857   1.000000
     57        -14.126891   1.000000
     58        -14.126725   1.000000
     59        -14.111242   1.000000
     60        -14.103438   1.000000
     61        -14.073784   1.000000
     62        -14.034486   1.000000
     63        -14.033848   1.000000
     64        -14.023759   1.000000
     65        -14.010910   1.000000
     66        -13.974445   1.000000
     67         -8.082305   1.000000
     68         -7.676863   1.000000
     69         -6.534767   1.000000
     70         -6.341512   1.000000
     71         -6.280606   1.000000
     72         -6.175299   1.000000
     73         -5.111465   1.000000
     74         -5.029800   1.000000
     75         -4.945239   1.000000
     76         -4.770949   1.000000
     77         -4.163939   1.000000
     78         -3.877663   1.000000
     79         -3.537752   1.000000
     80         -3.470357   1.000000
     81         -3.327929   1.000000
     82         -3.224233   1.000000
     83         -2.898279   1.000000
     84         -2.881292   1.000000
     85         -2.705737   1.000000
     86         -2.702710   1.000000
     87         -2.031614   1.000000
     88         -1.982169   1.000000
     89         -1.944197   1.000000
     90         -1.881571   1.000000
     91         -1.474410   1.000000
     92         -1.399012   1.000000
     93         -1.380971   1.000000
     94         -1.324537   1.000000
     95         -1.167724   1.000000
     96         -1.042166   1.000000
     97         -0.911502   1.000000
     98         -0.724216   1.000000
     99         -0.679897   1.000000
    100         -0.594306   1.000000
    101         -0.555720   1.000000
    102         -0.466859   1.000000
    103         -0.453903   1.000000
    104         -0.421199   1.000000
    105         -0.328175   1.000000
    106         -0.315060   1.000000
    107         -0.115888   1.000000
    108         -0.058867   1.000000
    109          0.033110   1.000000
    110          0.041836   1.000000
    111          0.061630   1.000000
    112          0.071439   1.000000
    113          0.135220   1.000000
    114          0.175309   1.000000
    115          0.202829   1.000000
    116          0.273588   1.000000
    117          0.305528   1.000000
    118          0.380983   1.000044
    119          0.385967   1.000059
    120          0.484402   1.005791
    121          0.637122   0.905533
    122          0.651904   0.823682
    123          0.748785   0.104783
    124          0.811162  -0.034990
    125          0.826564  -0.034096
    126          0.866977  -0.017271
    127          0.998509  -0.000072
    128          1.145762  -0.000000
    129          1.316907  -0.000000
    130          1.330408  -0.000000
    131          1.360045  -0.000000
    132          1.432232  -0.000000
    133          1.482702  -0.000000
    134          1.525210  -0.000000
    135          1.533104  -0.000000
    136          1.596150  -0.000000
    137          1.625544  -0.000000
    138          1.759041  -0.000000
    139          1.762289  -0.000000
    140          1.898778  -0.000000
    141          1.922903  -0.000000
    142          1.948336  -0.000000
    143          1.987949  -0.000000
    144          2.126385  -0.000000
    145          2.158128  -0.000000
    146          2.158491  -0.000000
    147          2.171002  -0.000000
    148          2.189821  -0.000000
    149          2.253427  -0.000000
    150          2.299261  -0.000000
    151          2.341961  -0.000000
    152          2.415104  -0.000000
    153          2.415268  -0.000000
    154          2.423286  -0.000000
    155          2.529915  -0.000000
    156          2.554324  -0.000000
    157          2.585295  -0.000000
    158          2.623550  -0.000000
    159          2.645087  -0.000000
    160          2.803049   0.000000
    161          2.933715   0.000000
    162          2.950999   0.000000
    163          3.031780   0.000000
    164          3.084679   0.000000
    165          3.190116   0.000000
    166          3.217597   0.000000
    167          3.252168   0.000000
    168          3.289000   0.000000
    169          3.440347   0.000000
    170          3.485143   0.000000
    171          3.504401   0.000000
    172          3.725378   0.000000
    173          3.838298   0.000000
    174          3.876713   0.000000
    175          3.946109   0.000000
    176          4.051599   0.000000
    177          4.097317   0.000000
    178          4.157550   0.000000
    179          4.399273   0.000000
    180          4.486184   0.000000
    181          4.489068   0.000000
    182          4.618643   0.000000
    183          4.683920   0.000000
    184          4.689739   0.000000
    185          4.866634   0.000000
    186          4.924548   0.000000
    187          4.943692   0.000000
    188          4.994128   0.000000
    189          5.006047   0.000000
    190          5.030437   0.000000
    191          5.135475   0.000000
    192          5.216051   0.000000
 
  0.1276756E-14  0.2500000E+00  0.1276756E-14  0.1250000E+00
      1        -56.378673   1.000000
      2        -56.374670   1.000000
      3        -56.373176   1.000000
      4        -56.362099   1.000000
      5        -56.359876   1.000000
      6        -56.334841   1.000000
      7        -56.318942   1.000000
      8        -55.993912   1.000000
      9        -55.990746   1.000000
     10        -55.920848   1.000000
     11        -55.914205   1.000000
     12        -55.862770   1.000000
     13        -55.825448   1.000000
     14        -55.761527   1.000000
     15        -32.805072   1.000000
     16        -32.802034   1.000000
     17        -32.764593   1.000000
     18        -32.763220   1.000000
     19        -32.752791   1.000000
     20        -32.735400   1.000000
     21        -32.704295   1.000000
     22        -32.667099   1.000000
     23        -32.602872   1.000000
     24        -32.592871   1.000000
     25        -32.581390   1.000000
     26        -32.580609   1.000000
     27        -32.579384   1.000000
     28        -32.577687   1.000000
     29        -32.575703   1.000000
     30        -32.574059   1.000000
     31        -32.571016   1.000000
     32        -32.557159   1.000000
     33        -32.555211   1.000000
     34        -32.548189   1.000000
     35        -32.519967   1.000000
     36        -32.346489   1.000000
     37        -32.341092   1.000000
     38        -32.332552   1.000000
     39        -32.328005   1.000000
     40        -32.321889   1.000000
     41        -32.310777   1.000000
     42        -32.260358   1.000000
     43        -32.224587   1.000000
     44        -32.218521   1.000000
     45        -32.217766   1.000000
     46        -32.196307   1.000000
     47        -32.179585   1.000000
     48        -32.172744   1.000000
     49        -32.164857   1.000000
     50        -32.120266   1.000000
     51        -31.975894   1.000000
     52        -31.962890   1.000000
     53        -31.951970   1.000000
     54        -31.936330   1.000000
     55        -31.914676   1.000000
     56        -31.898503   1.000000
     57        -14.126895   1.000000
     58        -14.126703   1.000000
     59        -14.111330   1.000000
     60        -14.103440   1.000000
     61        -14.073850   1.000000
     62        -14.034484   1.000000
     63        -14.033866   1.000000
     64        -14.023759   1.000000
     65        -14.010726   1.000000
     66        -13.974546   1.000000
     67         -8.339359   1.000000
     68         -7.230720   1.000000
     69         -7.124660   1.000000
     70         -6.062888   1.000000
     71         -5.784531   1.000000
     72         -5.626261   1.000000
     73         -5.381125   1.000000
     74         -5.155971   1.000000
     75         -4.927454   1.000000
     76         -4.641433   1.000000
     77         -4.375430   1.000000
     78         -4.062216   1.000000
     79         -4.011887   1.000000
     80         -3.937412   1.000000
     81         -3.931726   1.000000
     82         -3.448678   1.000000
     83         -2.821614   1.000000
     84         -2.636340   1.000000
     85         -2.398101   1.000000
     86         -2.226538   1.000000
     87         -2.129755   1.000000
     88         -2.103946   1.000000
     89         -1.904530   1.000000
     90         -1.683215   1.000000
     91         -1.590863   1.000000
     92         -1.518802   1.000000
     93         -1.220565   1.000000
     94         -1.141790   1.000000
     95         -1.075034   1.000000
     96         -1.018987   1.000000
     97         -0.971379   1.000000
     98         -0.773599   1.000000
     99         -0.761450   1.000000
    100         -0.623342   1.000000
    101         -0.592740   1.000000
    102         -0.526644   1.000000
    103         -0.436871   1.000000
    104         -0.325009   1.000000
    105         -0.306448   1.000000
    106         -0.192595   1.000000
    107         -0.045586   1.000000
    108         -0.017236   1.000000
    109          0.036455   1.000000
    110          0.079961   1.000000
    111          0.113157   1.000000
    112          0.132962   1.000000
    113          0.214715   1.000000
    114          0.279990   1.000000
    115          0.315292   1.000001
    116          0.380529   1.000043
    117          0.408754   1.000208
    118          0.503857   1.010847
    119          0.514518   1.014630
    120          0.541481   1.026514
    121          0.657658   0.786219
    122          0.710952   0.358835
    123          0.794186  -0.025314
    124          0.868427  -0.016664
    125          0.888475  -0.009519
    126          0.923354  -0.002770
    127          1.017890  -0.000023
    128          1.167175  -0.000000
    129          1.186591  -0.000000
    130          1.304453  -0.000000
    131          1.336842  -0.000000
    132          1.398132  -0.000000
    133          1.493022  -0.000000
    134          1.585297  -0.000000
    135          1.586941  -0.000000
    136          1.611906  -0.000000
    137          1.772114  -0.000000
    138          1.783681  -0.000000
    139          1.837035  -0.000000
    140          1.909658  -0.000000
    141          1.929114  -0.000000
    142          1.936537  -0.000000
    143          1.956755  -0.000000
    144          1.959211  -0.000000
    145          2.049069  -0.000000
    146          2.151661  -0.000000
    147          2.152699  -0.000000
    148          2.224525  -0.000000
    149          2.247234  -0.000000
    150          2.281728  -0.000000
    151          2.302625  -0.000000
    152          2.362678  -0.000000
    153          2.429990  -0.000000
    154          2.441663  -0.000000
    155          2.475542  -0.000000
    156          2.562236  -0.000000
    157          2.607631  -0.000000
    158          2.650932  -0.000000
    159          2.662201  -0.000000
    160          2.726318   0.000000
    161          2.797217   0.000000
    162          2.891603   0.000000
    163          2.936394   0.000000
    164          2.992629   0.000000
    165          3.109788   0.000000
    166          3.183297   0.000000
    167          3.250377   0.000000
    168          3.352166   0.000000
    169          3.530576   0.000000
    170          3.546500   0.000000
    171          3.562253   0.000000
    172          3.645105   0.000000
    173          3.840786   0.000000
    174          3.842119   0.000000
    175          3.923634   0.000000
    176          4.016905   0.000000
    177          4.034157   0.000000
    178          4.134884   0.000000
    179          4.251381   0.000000
    180          4.338458   0.000000
    181          4.436493   0.000000
    182          4.484090   0.000000
    183          4.491171   0.000000
    184          4.656348   0.000000
    185          4.757484   0.000000
    186          4.787305   0.000000
    187          4.940332   0.000000
    188          4.947611   0.000000
    189          5.152376   0.000000
    190          5.253067   0.000000
    191          5.282161   0.000000
    192          5.298236   0.000000
 
  0.2500000E+00  0.2500000E+00  0.1276756E-14  0.2500000E+00
      1        -56.378672   1.000000
      2        -56.374533   1.000000
      3        -56.373314   1.000000
      4        -56.361774   1.000000
      5        -56.360201   1.000000
      6        -56.334780   1.000000
      7        -56.319005   1.000000
      8        -55.994376   1.000000
      9        -55.990277   1.000000
     10        -55.920077   1.000000
     11        -55.915115   1.000000
     12        -55.862779   1.000000
     13        -55.825206   1.000000
     14        -55.761632   1.000000
     15        -32.805697   1.000000
     16        -32.801425   1.000000
     17        -32.764380   1.000000
     18        -32.762091   1.000000
     19        -32.754236   1.000000
     20        -32.734068   1.000000
     21        -32.704774   1.000000
     22        -32.667204   1.000000
     23        -32.600532   1.000000
     24        -32.592612   1.000000
     25        -32.582490   1.000000
     26        -32.581019   1.000000
     27        -32.580742   1.000000
     28        -32.578200   1.000000
     29        -32.573657   1.000000