       N       E                     dE             d eps       ncg     rms          rms(c)
DAV:   1     0.216860846093E+04    0.21686E+04   -0.11683E+05  3456   0.117E+03
DAV:   2     0.569191711162E+02   -0.21117E+04   -0.20485E+04  3584   0.356E+02
DAV:   3    -0.176308074043E+03   -0.23323E+03   -0.22848E+03  6720   0.102E+02
DAV:   4    -0.205892744985E+03   -0.29585E+02   -0.29365E+02  5184   0.309E+01
DAV:   5    -0.208448359960E+03   -0.25556E+01   -0.25551E+01  5568   0.765E+00    0.367E+01
DAV:   6    -0.211907350679E+03   -0.34590E+01   -0.24078E+02  4672   0.402E+01    0.637E+01
DAV:   7    -0.198647972459E+03    0.13259E+02   -0.45311E+02  5120   0.415E+01    0.375E+01
DAV:   8    -0.183562167592E+03    0.15086E+02   -0.16470E+02  5184   0.218E+01    0.209E+01
DAV:   9    -0.179492494371E+03    0.40697E+01   -0.45793E+01  5184   0.118E+01    0.158E+01
DAV:  10    -0.176234902671E+03    0.32576E+01   -0.28653E+01  5120   0.774E+00    0.104E+01
DAV:  11    -0.174693009218E+03    0.15419E+01   -0.87338E+00  5056   0.590E+00    0.710E+00
DAV:  12    -0.174406058950E+03    0.28695E+00   -0.56912E+00  5760   0.494E+00    0.661E+00
DAV:  13    -0.174230285896E+03    0.17577E+00   -0.38505E+00  5056   0.500E+00    0.512E+00
DAV:  14    -0.174197376083E+03    0.32910E-01   -0.14876E+00  4992   0.299E+00    0.469E+00
DAV:  15    -0.174013447235E+03    0.18393E+00   -0.12322E+00  5056   0.242E+00    0.194E+00
DAV:  16    -0.174021980192E+03   -0.85330E-02   -0.46881E-01  4992   0.174E+00    0.192E+00
DAV:  17    -0.173983033118E+03    0.38947E-01   -0.18452E-01  5056   0.129E+00    0.680E-01
DAV:  18    -0.173984695228E+03   -0.16621E-02   -0.58696E-02  5120   0.705E-01    0.702E-01
DAV:  19    -0.173983508403E+03    0.11868E-02   -0.31687E-02  4800   0.392E-01    0.429E-01
DAV:  20    -0.173982230968E+03    0.12774E-02   -0.13501E-02  4992   0.339E-01    0.161E-01
DAV:  21    -0.173983981313E+03   -0.17503E-02   -0.41551E-03  4352   0.145E-01    0.143E-01
DAV:  22    -0.173984389391E+03   -0.40808E-03   -0.21033E-03  4544   0.116E-01    0.868E-02
DAV:  23    -0.173984438840E+03   -0.49450E-04   -0.94400E-04  4672   0.975E-02    0.726E-02
DAV:  24    -0.173984430665E+03    0.81756E-05   -0.39065E-04  4224   0.525E-02    0.278E-02
DAV:  25    -0.173984588882E+03   -0.15822E-03   -0.15084E-04  3904   0.229E-02    0.162E-02
DAV:  26    -0.173984904814E+03   -0.31593E-03   -0.67293E-05  3776   0.152E-02    0.145E-02
DAV:  27    -0.173985280751E+03   -0.37594E-03   -0.38326E-05  3776   0.116E-02    0.898E-03
DAV:  28    -0.173985592531E+03   -0.31178E-03   -0.21113E-05  3520   0.782E-03    0.884E-03
DAV:  29    -0.173985779102E+03   -0.18657E-03   -0.11808E-05  3584   0.601E-03    0.356E-03
DAV:  30    -0.173985854351E+03   -0.75249E-04   -0.25978E-06  3520   0.225E-03    0.159E-03
DAV:  31    -0.173985894418E+03   -0.40067E-04   -0.21808E-06  3456   0.155E-03    0.563E-04
DAV:  32    -0.173985899889E+03   -0.54711E-05   -0.17877E-07  3072   0.653E-04
   1 F= -.17398590E+03 E0= -.17398449E+03  d E =-.423801E-02
