 vasp.6.5.0 16Dec24 (build Apr 17 2025 17:55:45) complex                        
  
 executed on             LinuxIFC date 2025.06.10  15:03:05
 running   64 mpi-ranks, on    1 nodes
 distrk:  each k-point on   64 cores,    1 groups
 distr:  one band on NCORE=   1 cores,   64 groups


--------------------------------------------------------------------------------------------------------


 INCAR:
   ISTART = 0
   ICHARG = 2
   PREC = N
   LREAL = .FALSE.
   ENCUT = 520
   ALGO = N
   NELM = 500
   EDIFF = 1E-05
   IBRION = -1
   ISIF = 3
   NSW = 0
   EDIFFG = -0.01
   ISMEAR = 1
   SIGMA = 0.1
   LVHAR = .TRUE.
   LVTOT = .TRUE.

 POTCAR:    PAW_PBE Ga_d 06Jul2010                
 POTCAR:    PAW_PBE Ti_sv 26Sep2005               
 POTCAR:    PAW_PBE Al 04Jan2001                  
 -----------------------------------------------------------------------------
|                                                                             |
|           W    W    AA    RRRRR   N    N  II  N    N   GGGG   !!!           |
|           W    W   A  A   R    R  NN   N  II  NN   N  G    G  !!!           |
|           W    W  A    A  R    R  N N  N  II  N N  N  G       !!!           |
|           W WW W  AAAAAA  RRRRR   N  N N  II  N  N N  G  GGG   !            |
|           WW  WW  A    A  R   R   N   NN  II  N   NN  G    G                |
|           W    W  A    A  R    R  N    N  II  N    N   GGGG   !!!           |
|                                                                             |
|     For optimal performance we recommend to set                             |
|       NCORE = 2 up to number-of-cores-per-socket                            |
|     NCORE specifies how many cores store one orbital (NPAR=cpu/NCORE).      |
|     This setting can greatly improve the performance of VASP for DFT.       |
|     The default, NCORE=1 might be grossly inefficient on modern             |
|     multi-core architectures or massively parallel machines. Do your        |
|     own testing! More info at https://www.vasp.at/wiki/index.php/NCORE      |
|     Unfortunately you need to use the default for GW and RPA                |
|     calculations (for HF NCORE is supported but not extensively tested      |
|     yet).                                                                   |
|                                                                             |
 -----------------------------------------------------------------------------

 POTCAR:    PAW_PBE Ga_d 06Jul2010                
   SHA256 =  a60ddf36e14f00ea098d9e3914b3745f1b7105e68786148f49ae384e44b4226c Ga_d/POTCAR           
   COPYR  = (c) Copyright 06Jul2010 Georg Kresse                                                    
   COPYR  = This file is part of the software VASP. Any use, copying, and all other rights are regul
   COPYR  = If you do not have a valid VASP license, you may not use, copy or distribute this file. 
   VRHFIN =Ga: s2p1                                                                                 
   LEXCH  = PE                                                                                      
   EATOM  =  2148.8298 eV,  157.9345 Ry                                                             
                                                                                                    
   TITEL  = PAW_PBE Ga_d 06Jul2010                                                                  
   LULTRA =        F    use ultrasoft PP ?                                                          
   IUNSCR =        1    unscreen: 0-lin 1-nonlin 2-no                                               
   RPACOR =    1.700    partial core radius                                                         
   POMASS =   69.723; ZVAL   =   13.000    mass and valenz                                          
   RCORE  =    2.300    outmost cutoff radius                                                       
   RWIGS  =    2.300; RWIGS  =    1.217    wigner-seitz radius (au A)                               
   ENMAX  =  282.691; ENMIN  =  212.018 eV                                                          
   ICORE  =        3    local potential                                                             
   LCOR   =        T    correct aug charges                                                         
   LPAW   =        T    paw PP                                                                      
   EAUG   =  490.690                                                                                
   DEXC   =    0.000                                                                                
   RMAX   =    2.341    core radius for proj-oper                                                   
   RAUG   =    1.300    factor for augmentation sphere                                              
   RDEP   =    2.413    radius for radial grids                                                     
   RDEPT  =    1.856    core radius for aug-charge                                                  
                                                                                                    
   Atomic configuration                                                                             
    9 entries                                                                                       
     n  l   j            E        occ.                                                              
     1  0  0.50    -10228.7831   2.0000                                                             
     2  0  0.50     -1262.1604   2.0000                                                             
     2  1  1.50     -1098.6333   6.0000                                                             
     3  0  0.50      -148.1110   2.0000                                                             
     3  1  1.50       -98.8436   6.0000                                                             
     3  2  2.50       -19.1549  10.0000                                                             
     4  0  0.50        -8.9483   2.0000                                                             
     4  1  0.50        -2.5791   1.0000                                                             
     4  3  2.50        -2.7416   0.0000                                                             
   Description                                                                                      
     l       E           TYP  RCUT    TYP  RCUT                                                     
     2    -19.1549037     23  2.300                                                                 
     2     -5.4423304     23  2.300                                                                 
     0     -8.9483111     23  2.300                                                                 
     0     68.0291300     23  2.300                                                                 
     1     -2.5790802     23  2.100                                                                 
     1     81.6349560     23  2.300                                                                 
     3      6.8029130     23  2.300                                                                 
  local pseudopotential read in
  partial core-charges read in
  partial kinetic energy density read in
  atomic valenz-charges read in
  non local Contribution for L=           2  read in
    real space projection operators read in
  non local Contribution for L=           2  read in
    real space projection operators read in
  non local Contribution for L=           0  read in
    real space projection operators read in
  non local Contribution for L=           0  read in
    real space projection operators read in
  non local Contribution for L=           1  read in
    real space projection operators read in
  non local Contribution for L=           1  read in
    real space projection operators read in
    PAW grid and wavefunctions read in
 
   number of l-projection  operators is LMAX  =           6
   number of lm-projection operators is LMMAX =          18
 
 POTCAR:    PAW_PBE Ti_sv 26Sep2005               
   SHA256 =  4d747badb5a5ea28d858fbac70885b3f8929d6fd9e5b0dbe1ecb9878dc164da1 Ti_sv/POTCAR          
   COPYR  = (c) Copyright 26Sep2005 Georg Kresse                                                    
   COPYR  = This file is part of the software VASP. Any use, copying, and all other rights are regul
   COPYR  = If you do not have a valid VASP license, you may not use, copy or distribute this file. 
   VRHFIN =Ti: 3p4s3d                                                                               
   LEXCH  = PE                                                                                      
   EATOM  =  1588.0892 eV,  116.7213 Ry                                                             
                                                                                                    
   TITEL  = PAW_PBE Ti_sv 26Sep2005                                                                 
   LULTRA =        F    use ultrasoft PP ?                                                          
   IUNSCR =        1    unscreen: 0-lin 1-nonlin 2-no                                               
   RPACOR =    2.000    partial core radius                                                         
   POMASS =   47.880; ZVAL   =   12.000    mass and valenz                                          
   RCORE  =    2.300    outmost cutoff radius                                                       
   RWIGS  =    2.300; RWIGS  =    1.217    wigner-seitz radius (au A)                               
   ENMAX  =  274.610; ENMIN  =  205.957 eV                                                          
   ICORE  =        3    local potential                                                             
   LCOR   =        T    correct aug charges                                                         
   LPAW   =        T    paw PP                                                                      
   EAUG   =  482.848                                                                                
   RMAX   =    2.348    core radius for proj-oper                                                   
   RAUG   =    1.300    factor for augmentation sphere                                              
   RDEP   =    2.381    radius for radial grids                                                     
   RDEPT  =    1.930    core radius for aug-charge                                                  
                                                                                                    
   Atomic configuration                                                                             
    8 entries                                                                                       
     n  l   j            E        occ.                                                              
     1  0  0.50     -4865.3608   2.0000                                                             
     2  0  0.50      -533.1368   2.0000                                                             
     2  1  1.50      -440.5031   6.0000                                                             
     3  0  0.50       -59.3186   2.0000                                                             
     4  0  0.50        -3.7291   1.0000                                                             
     3  1  1.50       -35.7012   6.0000                                                             
     3  2  2.50        -1.9157   3.0000                                                             
     4  3  2.50        -1.3606   0.0000                                                             
   Description                                                                                      
     l       E           TYP  RCUT    TYP  RCUT                                                     
     0    -59.3185931     23  1.800                                                                 
     0     -3.7290822     23  2.300                                                                 
     1    -35.7012045     23  2.300                                                                 
     1     -1.3605826     23  2.300                                                                 
     2     -1.9156920     23  2.300                                                                 
     2     -0.0236318     23  2.300                                                                 
     3     -1.3605826     23  2.300                                                                 
  local pseudopotential read in
  partial core-charges read in
  partial kinetic energy density read in
  atomic valenz-charges read in
  non local Contribution for L=           0  read in
    real space projection operators read in
  non local Contribution for L=           0  read in
    real space projection operators read in
  non local Contribution for L=           1  read in
    real space projection operators read in
  non local Contribution for L=           1  read in
    real space projection operators read in
  non local Contribution for L=           2  read in
    real space projection operators read in
  non local Contribution for L=           2  read in
    real space projection operators read in
    PAW grid and wavefunctions read in
 
   number of l-projection  operators is LMAX  =           6
   number of lm-projection operators is LMMAX =          18
 
 POTCAR:    PAW_PBE Al 04Jan2001                  
   SHA256 =  17880443556af62b473fe41b62a467bd001ad55d2cabe504a3f22e34d4e9db96 Al/POTCAR             
   COPYR  = (c) Copyright 04Jan2001 Georg Kresse                                                    
   COPYR  = This file is part of the software VASP. Any use, copying, and all other rights are regul
   COPYR  = If you do not have a valid VASP license, you may not use, copy or distribute this file. 
   VRHFIN =Al: s2p1                                                                                 
   LEXCH  = PE                                                                                      
   EATOM  =    53.5387 eV,    3.9350 Ry                                                             
                                                                                                    
   TITEL  = PAW_PBE Al 04Jan2001                                                                    
   LULTRA =        F    use ultrasoft PP ?                                                          
   IUNSCR =        1    unscreen: 0-lin 1-nonlin 2-no                                               
   RPACOR =    1.500    partial core radius                                                         
   POMASS =   26.981; ZVAL   =    3.000    mass and valenz                                          
   RCORE  =    1.900    outmost cutoff radius                                                       
   RWIGS  =    2.650; RWIGS  =    1.402    wigner-seitz radius (au A)                               
   ENMAX  =  240.300; ENMIN  =  180.225 eV                                                          
   ICORE  =        2    local potential                                                             
   LCOR   =        T    correct aug charges                                                         
   LPAW   =        T    paw PP                                                                      
   EAUG   =  291.052                                                                                
   DEXC   =    0.000                                                                                
   RMAX   =    1.939    core radius for proj-oper                                                   
   RAUG   =    1.300    factor for augmentation sphere                                              
   RDEP   =    1.966    radius for radial grids                                                     
   RDEPT  =    1.856    core radius for aug-charge                                                  
                                                                                                    
   Atomic configuration                                                                             
    6 entries                                                                                       
     n  l   j            E        occ.                                                              
     1  0  0.50     -1511.1048   2.0000                                                             
     2  0  0.50      -108.1629   2.0000                                                             
     2  1  1.50       -69.6402   6.0000                                                             
     3  0  0.50        -7.7528   2.0000                                                             
     3  1  1.50        -2.7121   1.0000                                                             
     3  2  2.50        -2.7212   0.0000                                                             
   Description                                                                                      
     l       E           TYP  RCUT    TYP  RCUT                                                     
     0     -7.7528455     23  1.900                                                                 
     0     -3.3096929     23  1.900                                                                 
     1     -2.7120682     23  1.900                                                                 
     1     13.6058260     23  1.900                                                                 
     2     -2.7211652      7  1.900                                                                 
  local pseudopotential read in
  partial core-charges read in
  partial kinetic energy density read in
  atomic valenz-charges read in
  non local Contribution for L=           0  read in
    real space projection operators read in
  non local Contribution for L=           0  read in
    real space projection operators read in
  non local Contribution for L=           1  read in
    real space projection operators read in
  non local Contribution for L=           1  read in
    real space projection operators read in
    PAW grid and wavefunctions read in
 
   number of l-projection  operators is LMAX  =           4
   number of lm-projection operators is LMMAX =           8
 
 -----------------------------------------------------------------------------
|                                                                             |
|               ----> ADVICE to this user running VASP <----                  |
|                                                                             |
|     You have a (more or less) 'large supercell' and for larger cells it     |
|     might be more efficient to use real-space projection operators.         |
|     Therefore, try LREAL= Auto in the INCAR file.                           |
|     Mind: For very accurate calculation, you might also keep the            |
|     reciprocal projection scheme (i.e. LREAL=.FALSE.).                      |
|                                                                             |
 -----------------------------------------------------------------------------

  PAW_PBE Ga_d 06Jul2010                :
 energy of atom  1       EATOM=-2148.8298
 kinetic energy error for atom=    0.0026 (will be added to EATOM!!)
  PAW_PBE Ti_sv 26Sep2005               :
 energy of atom  2       EATOM=-1588.0892
 kinetic energy error for atom=    0.0042 (will be added to EATOM!!)
  PAW_PBE Al 04Jan2001                  :
 energy of atom  3       EATOM=  -53.5387
 kinetic energy error for atom=    0.0002 (will be added to EATOM!!)
 
 
 POSCAR: Generated by VASPKIT code
  positions in direct lattice
  No initial velocities read in


 exchange-correlation table for PE
   RHO(1)=    0.500       N(1)  =     2000
   RHO(2)=  100.500       N(2)  =     4000
 


--------------------------------------------------------------------------------------------------------


 ion  position               nearest neighbor table
   1  0.000  0.000  0.358-   5 2.80   9 2.80  22 2.88  24 2.88  26 2.88  28 2.88  17 2.88  19 2.88

   2  0.500  0.000  0.547-   5 2.80   6 2.80   9 2.80  10 2.80  18 2.88  20 2.88  21 2.88  23 2.88
                            25 2.88  27 2.88  30 2.88  32 2.88
   3  0.000  0.500  0.358-   7 2.80  11 2.80  24 2.85  26 2.85  22 2.85  28 2.85  17 2.85  19 2.85

   4  0.500  0.500  0.547-   7 2.80   8 2.80  11 2.80  12 2.80  18 2.85  20 2.85  23 2.85  25 2.85
                            21 2.85  27 2.85  30 2.85  32 2.85
   5  0.750  0.000  0.453-   1 2.80   2 2.80  13 2.80  14 2.80  17 2.87  32 2.87  30 2.87  19 2.87
                            26 2.87  28 2.87  21 2.87  23 2.87
   6  0.250  0.000  0.642-   2 2.80  13 2.80  18 2.87  20 2.87  31 2.87  29 2.87  25 2.87  27 2.87

   7  0.750  0.500  0.453-   3 2.80   4 2.80  15 2.80  16 2.80  19 2.85  30 2.85  17 2.85  32 2.85
                            26 2.85  28 2.85  21 2.85  23 2.85
   8  0.250  0.500  0.642-   4 2.80  15 2.80  20 2.85  18 2.85  29 2.85  31 2.85  25 2.85  27 2.85

   9  0.250  0.000  0.453-   1 2.80   2 2.80  13 2.80  14 2.80  19 2.87  30 2.87  17 2.87  32 2.87
                            25 2.87  27 2.87  22 2.87  24 2.87
  10  0.750  0.000  0.642-   2 2.80  13 2.80  20 2.87  18 2.87  29 2.87  31 2.87  21 2.87  23 2.87

  11  0.250  0.500  0.453-   3 2.80   4 2.80  15 2.80  16 2.80  17 2.85  32 2.85  30 2.85  19 2.85
                            25 2.85  27 2.85  22 2.85  24 2.85
  12  0.750  0.500  0.642-   4 2.80  15 2.80  18 2.85  20 2.85  31 2.85  29 2.85  21 2.85  23 2.85

  13  0.000  0.000  0.547-   5 2.80   6 2.80   9 2.80  10 2.80  23 2.87  25 2.87  21 2.87  27 2.87
                            17 2.87  19 2.87  29 2.87  31 2.87
  14  0.500  0.000  0.358-   5 2.80   9 2.80  24 2.87  26 2.87  22 2.87  28 2.87  30 2.87  32 2.87

  15  0.000  0.500  0.547-   7 2.80   8 2.80  11 2.80  12 2.80  21 2.84  27 2.84  25 2.84  23 2.84
                            17 2.84  19 2.84  29 2.84  31 2.84
  16  0.500  0.500  0.358-   7 2.80  11 2.80  22 2.84  28 2.84  26 2.84  24 2.84  30 2.84  32 2.84

  17  0.000  0.748  0.453-  21 2.79  25 2.79  22 2.81  26 2.81  15 2.84  11 2.85   7 2.85   3 2.85
                            13 2.87   5 2.87   9 2.87   1 2.88
  18  0.500  0.748  0.642-  21 2.81  25 2.81  12 2.85   8 2.85   4 2.85   6 2.87  10 2.87   2 2.88

  19  0.000  0.252  0.453-  23 2.79  27 2.79  24 2.81  28 2.81  15 2.84   7 2.85  11 2.85   3 2.85
                            13 2.87   9 2.87   5 2.87   1 2.88
  20  0.500  0.252  0.642-  23 2.81  27 2.81   8 2.85  12 2.85   4 2.85  10 2.87   6 2.87   2 2.88

  21  0.751  0.748  0.547-  17 2.79  29 2.79  18 2.81  30 2.81  15 2.84  12 2.85   7 2.85   4 2.85
                            13 2.87  10 2.87   5 2.87   2 2.88
  22  0.251  0.748  0.358-  30 2.79  17 2.81  16 2.84  11 2.85   3 2.85  14 2.87   9 2.87   1 2.88

  23  0.751  0.252  0.547-  19 2.79  31 2.79  20 2.81  32 2.81  15 2.84  12 2.85   7 2.85   4 2.85
                            13 2.87  10 2.87   5 2.87   2 2.88
  24  0.251  0.252  0.358-  32 2.79  19 2.81  16 2.84  11 2.85   3 2.85  14 2.87   9 2.87   1 2.88

  25  0.249  0.748  0.547-  17 2.79  29 2.79  18 2.81  30 2.81  15 2.84  11 2.85   8 2.85   4 2.85
                            13 2.87   9 2.87   6 2.87   2 2.88
  26  0.749  0.748  0.358-  30 2.79  17 2.81  16 2.84   7 2.85   3 2.85  14 2.87   5 2.87   1 2.88

  27  0.249  0.252  0.547-  19 2.79  31 2.79  20 2.81  32 2.81  15 2.84  11 2.85   8 2.85   4 2.85
                            13 2.87   9 2.87   6 2.87   2 2.88
  28  0.749  0.252  0.358-  32 2.79  19 2.81  16 2.84   7 2.85   3 2.85  14 2.87   5 2.87   1 2.88

  29  0.000  0.748  0.641-  21 2.79  25 2.79  15 2.84   8 2.85  12 2.85  13 2.87  10 2.87   6 2.87

  30  0.500  0.748  0.452-  22 2.79  26 2.79  25 2.81  21 2.81  16 2.84   7 2.85  11 2.85   4 2.85
                            14 2.87   9 2.87   5 2.87   2 2.88
  31  0.000  0.252  0.641-  23 2.79  27 2.79  15 2.84  12 2.85   8 2.85  13 2.87   6 2.87  10 2.87

  32  0.500  0.252  0.452-  24 2.79  28 2.79  27 2.81  23 2.81  16 2.84  11 2.85   7 2.85   4 2.85
                            14 2.87   5 2.87   9 2.87   2 2.88
 
  LATTYP: Found a simple orthorhombic cell.
 ALAT       =     7.9294275173
 B/A-ratio  =     1.0393822904
 C/A-ratio  =     2.6426345186
  
  Lattice vectors:
  
 A1 = (   7.9294275173,   0.0000000000,   0.0000000000)
 A2 = (   0.0000000000,   8.2417065342,   0.0000000000)
 A3 = (   0.0000000000,   0.0000000000,  20.9545788695)


Analysis of symmetry for initial positions (statically):
=====================================================================
 Subroutine PRICEL returns:
 Original cell was already a primitive cell.
 

 Routine SETGRP: Setting up the symmetry group for a 
 simple orthorhombic supercell.


 Subroutine GETGRP returns: Found  4 space group operations
 (whereof  4 operations were pure point group operations)
 out of a pool of  8 trial point group operations.


The static configuration has the point symmetry C_2v.


Analysis of symmetry for dynamics (positions and initial velocities):
=====================================================================
 Subroutine PRICEL returns:
 Original cell was already a primitive cell.
 

 Routine SETGRP: Setting up the symmetry group for a 
 simple orthorhombic supercell.


 Subroutine GETGRP returns: Found  4 space group operations
 (whereof  4 operations were pure point group operations)
 out of a pool of  8 trial point group operations.


The dynamic configuration has the point symmetry C_2v.


 Subroutine INISYM returns: Found  4 space group operations
 (whereof  4 operations are pure point group operations),
 and found     1 'primitive' translations


----------------------------------------------------------------------------------------

                                     Primitive cell                                     

  volume of cell :    1369.4239

  direct lattice vectors                    reciprocal lattice vectors
     7.929427517  0.000000000  0.000000000     0.126112509 -0.000000000 -0.000000000
     0.000000000  8.241706534  0.000000000     0.000000000  0.121334095 -0.000000000
     0.000000000  0.000000000 20.954578870     0.000000000  0.000000000  0.047722267

  length of vectors
     7.929427517  8.241706534 20.954578870     0.126112509  0.121334095  0.047722267

  position of ions in fractional coordinates (direct lattice)
     0.000000000  0.000000000  0.357917000
     0.500000000  0.000000000  0.547122127
     0.000000000  0.500000000  0.357917000
     0.500000000  0.500000000  0.547122127
     0.750000000  0.000000000  0.452519563
     0.250000000  0.000000000  0.641724690
     0.750000000  0.500000000  0.452519563
     0.250000000  0.500000000  0.641724690
     0.250000000  0.000000000  0.452519563
     0.750000000  0.000000000  0.641724690
     0.250000000  0.500000000  0.452519563
     0.750000000  0.500000000  0.641724690
     0.000000000  0.000000000  0.547122127
     0.500000000  0.000000000  0.357917000
     0.000000000  0.500000000  0.547122127
     0.500000000  0.500000000  0.357917000
     0.000000000  0.747928775  0.452877873
     0.500000000  0.747928775  0.642083000
     0.000000000  0.252071225  0.452877873
     0.500000000  0.252071225  0.642083000
     0.750946882  0.747928775  0.547122127
     0.250946882  0.747928775  0.357917000
     0.750946882  0.252071225  0.547122127
     0.250946882  0.252071225  0.357917000
     0.249053118  0.747928775  0.547122127
     0.749053118  0.747928775  0.357917000
     0.249053118  0.252071225  0.547122127
     0.749053118  0.252071225  0.357917000
     0.000000000  0.747928775  0.641366381
     0.500000000  0.747928775  0.452161253
     0.000000000  0.252071225  0.641366381
     0.500000000  0.252071225  0.452161253

  ion indices of the primitive-cell ions
   primitive index   ion index
                 1           1
                 2           2
                 3           3
                 4           4
                 5           5
                 6           6
                 7           7
                 8           8
                 9           9
                10          10
                11          11
                12          12
                13          13
                14          14
                15          15
                16          16
                17          17
                18          18
                19          19
                20          20
                21          21
                22          22
                23          23
                24          24
                25          25
                26          26
                27          27
                28          28
                29          29
                30          30
                31          31
                32          32

----------------------------------------------------------------------------------------

 
 
 KPOINTS: K-Spacing Value to Generate K-Mesh: 0.03

Automatic generation of k-mesh.
 Grid dimensions read from file:
 generate k-points for:    4    4    1

 Generating k-lattice:

  Cartesian coordinates                     Fractional coordinates (reciprocal lattice)
     0.031528127 -0.000000000 -0.000000000     0.250000000  0.000000000  0.000000000
     0.000000000  0.030333524 -0.000000000     0.000000000  0.250000000  0.000000000
     0.000000000  0.000000000  0.047722267     0.000000000  0.000000000  1.000000000

  Length of vectors
     0.031528127  0.030333524  0.047722267

  Shift w.r.t. Gamma in fractional coordinates (k-lattice)
     0.000000000  0.000000000  0.000000000

 
 Subroutine IBZKPT returns following result:
 ===========================================
 
 Found      9 irreducible k-points:
 
 Following reciprocal coordinates:
            Coordinates               Weight
  0.000000  0.000000  0.000000      1.000000
  0.250000  0.000000  0.000000      2.000000
  0.500000  0.000000  0.000000      1.000000
  0.000000  0.250000  0.000000      2.000000
  0.250000  0.250000  0.000000      4.000000
  0.500000  0.250000  0.000000      2.000000
  0.000000  0.500000  0.000000      1.000000
  0.250000  0.500000  0.000000      2.000000
  0.500000  0.500000  0.000000      1.000000
 
 Following cartesian coordinates:
            Coordinates               Weight
  0.000000  0.000000  0.000000      1.000000
  0.031528  0.000000  0.000000      2.000000
  0.063056  0.000000  0.000000      1.000000
  0.000000  0.030334  0.000000      2.000000
  0.031528  0.030334  0.000000      4.000000
  0.063056  0.030334  0.000000      2.000000
  0.000000  0.060667  0.000000      1.000000
  0.031528  0.060667  0.000000      2.000000
  0.063056  0.060667  0.000000      1.000000
 


--------------------------------------------------------------------------------------------------------




 Dimension of arrays:
   k-points           NKPTS =      9   k-points in BZ     NKDIM =      9   number of bands    NBANDS=    192
   number of dos      NEDOS =    301   number of ions     NIONS =     32
   non local maximal  LDIM  =      6   non local SUM 2l+1 LMDIM =     18
   total plane-waves  NPLWV = 276480
   max r-space proj   IRMAX =      1   max aug-charges    IRDMAX=   8056
   dimension x,y,z NGX =    48 NGY =   48 NGZ =  120
   dimension x,y,z NGXF=    96 NGYF=   96 NGZF=  240
   support grid    NGXF=    96 NGYF=   96 NGZF=  240
   ions per type =               2  14  16
   NGX,Y,Z   is equivalent  to a cutoff of  10.06,  9.68,  9.52 a.u.
   NGXF,Y,Z  is equivalent  to a cutoff of  20.13, 19.36, 19.04 a.u.

 SYSTEM =  unknown system                          
 POSCAR =  Generated by VASPKIT code               

 Startparameter for this run:
   NWRITE =      2    write-flag & timer
   PREC   = n         normal or accurate (medium, high low for compatibility)
   ISTART =      0    job   : 0-new  1-cont  2-samecut
   ICHARG =      2    charge: 1-file 2-atom 10-const
   ISPIN  =      1    spin polarized calculation?
   LNONCOLLINEAR =      F non collinear calculations
   LSORBIT =      F    spin-orbit coupling
   INIWAV =      1    electr: 0-lowe 1-rand  2-diag
   LASPH  =      F    aspherical Exc in radial PAW
 Electronic Relaxation 1
   ENCUT  =  520.0 eV  38.22 Ry    6.18 a.u.  14.74 15.32 38.96*2*pi/ulx,y,z
   ENINI  =  520.0     initial cutoff
   ENAUG  =  490.7 eV  augmentation charge cutoff
   NELM   =    500;   NELMIN=  2; NELMDL= -5     # of ELM steps 
   EDIFF  = 0.1E-04   stopping-criterion for ELM
   LREAL  =      F    real-space projection
   NLSPLINE    = F    spline interpolate recip. space projectors
   LCOMPAT=      F    compatible to vasp.4.4
   GGA_COMPAT  = T    GGA compatible to vasp.4.4-vasp.4.6
   LMAXPAW     = -100 max onsite density
   LMAXMIX     =    2 max onsite mixed and CHGCAR
   VOSKOWN=      0    Vosko Wilk Nusair interpolation
   ROPT   =    0.00000   0.00000   0.00000
 Ionic relaxation
   EDIFFG = -.1E-01   stopping-criterion for IOM
   NSW    =      0    number of steps for IOM
   NBLOCK =      1;   KBLOCK =      1    inner block; outer block 
   IBRION =     -1    ionic relax: 0-MD 1-quasi-New 2-CG
   NFREE  =      0    steps in history (QN), initial steepest desc. (CG)
   ISIF   =      3    stress and relaxation
   IWAVPR =     10    prediction:  0-non 1-charg 2-wave 3-comb
   ISYM   =      2    0-nonsym 1-usesym 2-fastsym
   LCORR  =      T    Harris-Foulkes like correction to forces

   POTIM  = 0.5000    time-step for ionic-motion
   TEIN   =    0.0    initial temperature
   TEBEG  =    0.0;   TEEND  =   0.0 temperature during run
   SMASS  =  -3.00    Nose mass-parameter (am)
   estimated Nose-frequenzy (Omega)   =  0.10E-29 period in steps = 0.13E+47 mass=  -0.144E-26a.u.
   SCALEE = 1.0000    scale energy and forces
   NPACO  =    256;   APACO  = 10.0  distance and # of slots for P.C.
   PSTRESS=    0.0 pullay stress

  Mass of Ions in am
   POMASS =  69.72 47.88 26.98
  Ionic Valenz
   ZVAL   =  13.00 12.00  3.00
  Atomic Wigner-Seitz radii
   RWIGS  =  -1.00 -1.00 -1.00
  virtual crystal weights 
   VCA    =   1.00  1.00  1.00
   NELECT =     242.0000    total number of electrons
   NUPDOWN=      -1.0000    fix difference up-down

 DOS related values:
   EMIN   =  10.00;   EMAX   =-10.00  energy-range for DOS
   EFERMI =   0.00;   METHOD = LEGACY      
   ISMEAR =     1;   SIGMA  =   0.10  broadening in eV -4-tet -1-fermi 0-gaus
   EFERMI_NEDOS =   21; number of points for ismear=-14 and -15

 Electronic relaxation 2 (details)
   IALGO  =     38    algorithm
   LDIAG  =      T    sub-space diagonalisation (order eigenvalues)
   LSUBROT=      F    optimize rotation matrix (better conditioning)
   TURBO    =      0    0=normal 1=particle mesh
   IRESTART =      0    0=no restart 2=restart with 2 vectors
   NREBOOT  =      0    no. of reboots
   NMIN     =      0    reboot dimension
   EREF     =   0.00    reference energy to select bands
   IMIX   =      4    mixing-type and parameters
     AMIX     =   0.40;   BMIX     =  1.00
     AMIX_MAG =   1.60;   BMIX_MAG =  1.00
     AMIN     =   0.10
     WC   =   100.;   INIMIX=   1;  MIXPRE=   1;  MAXMIX= -45

 Intra band minimization:
   WEIMIN = 0.0000     energy-eigenvalue tresh-hold
   EBREAK =  0.13E-07  absolut break condition
   DEPER  =   0.30     relativ break condition  

   TIME   =   0.40     timestep for ELM

  volume/ion in A,a.u.               =      42.79       288.79
  Fermi-wavevector in a.u.,A,eV,Ry     =   0.918686  1.736066 11.483110  0.843985
  Thomas-Fermi vector in A             =   2.043796
 
 Write flags
   LWAVE        =      T    write WAVECAR
   LDOWNSAMPLE  =      F    k-point downsampling of WAVECAR
   LCHARG       =      T    write CHGCAR
   LVTOT        =      F    write LOCPOT, total local potential
   LVHAR        =      T    write LOCPOT, Hartree potential only
   WRT_POTENTIAL=  hartree ionic  ! write potential to hdf5 file
   LELF         =      F    write electronic localiz. function (ELF)
   LORBIT       =      0    0 simple, 1 ext, 2 COOP (PROOUT), +10 PAW based schemes


 Python interface
   PLUGINS active      =      F    recompile with -DPLUGINS to activate
 
 Dipole corrections
   LMONO      =      F    monopole corrections only (constant potential shift)
   LDIPOL     =      F    correct potential (dipole corrections)
   IDIPOL     =      0    1-x, 2-y, 3-z, 4-all directions 
   EPSILON    =  1.0000000 bulk dielectric constant
   LVACPOTAV  =      F  vacuum potentials using an averaging scheme for the charge density
   VACPOTFLAT =  0.1000000 required flatness to determine vacuum potential
 
Coulomb truncation method
  LTRUNCATE          =      F  Coulomb kernel truncation to be used
  IDIMENSIONALITY    =      3  Dimensionality of cutoff (0 molecules / 2 surfaces)
  ISURFACE           =     -1  Direction of surface normal
  LCOARSEN           =      F  Coarsen the charge grid before padding, preferred

 
 Exchange correlation treatment:
   GGA     = PE    functional components
   XC_C    = 1    coefficients multiplying the functional components
   LIBXC   =     F    Libxc                    
   VOSKOWN =     0    Vosko Wilk Nusair interpolation
   LHFCALC =     F    Hartree Fock is set to
   LHFONE  =     F    Hartree Fock one center treatment
   AEXX    =    0.0000 exact exchange contribution

 Parameters of functionals:
   PE:
     No parameter
 
 Van der Waals corrections
   IVDW    =     0    specifies the selected vdW correction

 Linear response parameters
   LEPSILON=     F    determine dielectric tensor
   LRPA    =     F    only Hartree local field effects (RPA)
   LNABLA  =     F    use nabla operator in PAW spheres
   LVEL    =     F    velocity operator in full k-point grid
   CSHIFT  =0.1000    complex shift for real part using Kramers Kronig
   OMEGAMAX=  -1.0    maximum frequency
   DEG_THRESHOLD= 0.2000000E-02 threshold for treating states as degnerate
   RTIME   =   -0.100 relaxation time in fs
  (WPLASMAI=    0.000 imaginary part of plasma frequency in eV, 0.658/RTIME)
   DFIELD  = 0.0000000 0.0000000 0.0000000 field for delta impulse in time
 
  Optional k-point grid parameters
   LKPOINTS_OPT  =     F    use optional k-point grid
   KPOINTS_OPT_MODE=     1    mode for optional k-point grid
 
 Orbital magnetization related:
   ORBITALMAG=     F  switch on orbital magnetization
   LCHIMAG   =     F  perturbation theory with respect to B field
   DQ        =  0.001000  dq finite difference perturbation B field
   LLRAUG    =     F  two centre corrections for induced B field
   LBONE     =     F  B-component reconstruction in AE one-centre
   LVGVCALC  =     T  calculate vGv susceptibility
   LVGVAPPL  =     F  apply vGv susceptibility instead of pGv for G=0

 Random number generation:
   RANDOM_GENERATOR = DEFAULT
   PCG_SEED         = not used


--------------------------------------------------------------------------------------------------------


 Static calculation
 charge density and potential will be updated during run
 non-spin polarized calculation
 Variant of blocked Davidson
 Davidson routine will perform the subspace rotation
 perform sub-space diagonalisation
    after iterative eigenvector-optimisation
 modified Broyden-mixing scheme, WC =      100.0
 initial mixing is a Kerker type mixing with AMIX =  0.4000 and BMIX =      1.0000
 Hartree-type preconditioning will be used
 using additional bands           71
 reciprocal scheme for non local part
 use partial core corrections
 calculate Harris-corrections to forces 
   (improved forces if not selfconsistent)
 use gradient corrections 
 use of overlap-Matrix (Vanderbilt PP)
 Methfessel and Paxton  Order N= 1 SIGMA  =   0.10


--------------------------------------------------------------------------------------------------------


  energy-cutoff  :      520.00
  volume of cell :     1369.42
      direct lattice vectors                 reciprocal lattice vectors
     7.929427517  0.000000000  0.000000000     0.126112509 -0.000000000 -0.000000000
     0.000000000  8.241706534  0.000000000     0.000000000  0.121334095 -0.000000000
     0.000000000  0.000000000 20.954578870     0.000000000  0.000000000  0.047722267

  length of vectors
     7.929427517  8.241706534 20.954578870     0.126112509  0.121334095  0.047722267


 
 k-points in units of 2pi/SCALE and weight: K-Spacing Value to Generate K-Mesh: 0.03
   0.00000000  0.00000000  0.00000000       0.062
   0.03152813  0.00000000  0.00000000       0.125
   0.06305625  0.00000000  0.00000000       0.062
   0.00000000  0.03033352  0.00000000       0.125
   0.03152813  0.03033352  0.00000000       0.250
   0.06305625  0.03033352  0.00000000       0.125
   0.00000000  0.06066705  0.00000000       0.062
   0.03152813  0.06066705  0.00000000       0.125
   0.06305625  0.06066705  0.00000000       0.062
 
 k-points in reciprocal lattice and weights: K-Spacing Value to Generate K-Mesh: 0.03
   0.00000000  0.00000000  0.00000000       0.062
   0.25000000  0.00000000  0.00000000       0.125
   0.50000000  0.00000000  0.00000000       0.062
   0.00000000  0.25000000  0.00000000       0.125
   0.25000000  0.25000000  0.00000000       0.250
   0.50000000  0.25000000  0.00000000       0.125
   0.00000000  0.50000000  0.00000000       0.062
   0.25000000  0.50000000  0.00000000       0.125
   0.50000000  0.50000000  0.00000000       0.062
 
 position of ions in fractional coordinates (direct lattice) 
   0.00000000  0.00000000  0.35791700
   0.50000000  0.00000000  0.54712213
   0.00000000  0.50000000  0.35791700
   0.50000000  0.50000000  0.54712213
   0.75000000  0.00000000  0.45251956
   0.25000000  0.00000000  0.64172469
   0.75000000  0.50000000  0.45251956
   0.25000000  0.50000000  0.64172469
   0.25000000  0.00000000  0.45251956
   0.75000000  0.00000000  0.64172469
   0.25000000  0.50000000  0.45251956
   0.75000000  0.50000000  0.64172469
   0.00000000  0.00000000  0.54712213
   0.50000000  0.00000000  0.35791700
   0.00000000  0.50000000  0.54712213
   0.50000000  0.50000000  0.35791700
   0.00000000  0.74792877  0.45287787
   0.50000000  0.74792877  0.64208300
   0.00000000  0.25207123  0.45287787
   0.50000000  0.25207123  0.64208300
   0.75094688  0.74792877  0.54712213
   0.25094688  0.74792877  0.35791700
   0.75094688  0.25207123  0.54712213
   0.25094688  0.25207123  0.35791700
   0.24905312  0.74792877  0.54712213
   0.74905312  0.74792877  0.35791700
   0.24905312  0.25207123  0.54712213
   0.74905312  0.25207123  0.35791700
   0.00000000  0.74792877  0.64136638
   0.50000000  0.74792877  0.45216125
   0.00000000  0.25207123  0.64136638
   0.50000000  0.25207123  0.45216125
 
 position of ions in cartesian coordinates  (Angst):
   0.00000000  0.00000000  7.50000000
   3.96471376  0.00000000 11.46471376
   0.00000000  4.12085327  7.50000000
   3.96471376  4.12085327 11.46471376
   5.94707064  0.00000000  9.48235688
   1.98235688  0.00000000 13.44707064
   5.94707064  4.12085327  9.48235688
   1.98235688  4.12085327 13.44707064
   1.98235688  0.00000000  9.48235688
   5.94707064  0.00000000 13.44707064
   1.98235688  4.12085327  9.48235688
   5.94707064  4.12085327 13.44707064
   0.00000000  0.00000000 11.46471376
   3.96471376  0.00000000  7.50000000
   0.00000000  4.12085327 11.46471376
   3.96471376  4.12085327  7.50000000
   0.00000000  6.16420947  9.48986511
   3.96471376  6.16420947 13.45457887
   0.00000000  2.07749706  9.48986511
   3.96471376  2.07749706 13.45457887
   5.95457887  6.16420947 11.46471376
   1.98986511  6.16420947  7.50000000
   5.95457887  2.07749706 11.46471376
   1.98986511  2.07749706  7.50000000
   1.97484865  6.16420947 11.46471376
   5.93956241  6.16420947  7.50000000
   1.97484865  2.07749706 11.46471376
   5.93956241  2.07749706  7.50000000
   0.00000000  6.16420947 13.43956241
   3.96471376  6.16420947  9.47484865
   0.00000000  2.07749706 13.43956241
   3.96471376  2.07749706  9.47484865
 


--------------------------------------------------------------------------------------------------------


 k-point     1 :   0.0000 0.0000 0.0000  plane waves:   36855
 k-point     2 :   0.2500 0.0000 0.0000  plane waves:   36873
 k-point     3 :   0.5000 0.0000 0.0000  plane waves:   36906
 k-point     4 :   0.0000 0.2500 0.0000  plane waves:   36845
 k-point     5 :   0.2500 0.2500 0.0000  plane waves:   36879
 k-point     6 :   0.5000 0.2500 0.0000  plane waves:   36838
 k-point     7 :   0.0000 0.5000 0.0000  plane waves:   36874
 k-point     8 :   0.2500 0.5000 0.0000  plane waves:   36840
 k-point     9 :   0.5000 0.5000 0.0000  plane waves:   36908

 maximum and minimum number of plane-waves per node :     36908    36838

 maximum number of plane-waves:     36908
 maximum index in each direction: 
   IXMAX=   14   IYMAX=   15   IZMAX=   38
   IXMIN=  -15   IYMIN=  -15   IZMIN=  -38


 serial   3D FFT for wavefunctions
 parallel 3D FFT for charge:
    minimum data exchange during FFTs selected (reduces bandwidth)


 total amount of memory used by VASP MPI-rank0   225770. kBytes
=======================================================================

   base                                    :      30000. kBytes
   nonl-proj                               :     162483. kBytes
   fftplans                                :       2581. kBytes
   grid                                    :      14063. kBytes
   one-center                              :        497. kBytes
   wavefun                                 :      16146. kBytes
 
     INWAV:  cpu time      0.0000: real time      0.0000
 Broyden mixing: mesh for mixing (old mesh)
   NGX = 29   NGY = 31   NGZ = 77
  (NGX  = 96   NGY  = 96   NGZ  =240)
  gives a total of  69223 points

 initial charge density was supplied:
 charge density of overlapping atoms calculated
 number of electron     242.0000000 magnetization 
 keeping initial charge density in first step


--------------------------------------------------------------------------------------------------------


 Maximum index for augmentation-charges          458 (set IRDMAX)


--------------------------------------------------------------------------------------------------------


 First call to EWALD:  gamma=   0.160
 Maximum number of real-space cells   4x   4x   2
 Maximum number of reciprocal cells   2x   2x   5

    FEWALD:  cpu time      0.0018: real time      0.0018


--------------------------------------- Ionic step        1  -------------------------------------------




--------------------------------------- Iteration      1(   1)  ---------------------------------------


    POTLOK:  cpu time      0.0386: real time      0.0386
    SETDIJ:  cpu time      0.0028: real time      0.0028
     EDDAV:  cpu time      5.6422: real time      5.6432
       DOS:  cpu time      0.0004: real time      0.0004
    --------------------------------------------
      LOOP:  cpu time      5.6840: real time      5.6850

 eigenvalue-minimisations  :  3456
 total energy-change (2. order) : 0.2168608E+04  (-0.1168338E+05)
 number of electron     242.0000000 magnetization 
 augmentation part      242.0000000 magnetization 

 Free energy of the ion-electron system (eV)
  ---------------------------------------------------
  alpha Z        PSCENC =       238.52296072
  Ewald energy   TEWEN  =     39200.44369667
  -Hartree energ DENC   =    -62806.45940703
  -exchange      EXHF   =         0.00000000
  -V(xc)+E(xc)   XCENC  =       528.24178362
  PAW double counting   =     21969.42663437   -21851.07168476
  entropy T*S    EENTRO =        -0.00341722
  eigenvalues    EBANDS =     -2497.95165481
  atomic energy  EATOM  =     27387.45954937
  Solvation  Ediel_sol  =         0.00000000
  ---------------------------------------------------
  free energy    TOTEN  =      2168.60846093 eV

  energy without entropy =     2168.61187815  energy(sigma->0) =     2168.60960000


--------------------------------------------------------------------------------------------------------




--------------------------------------- Iteration      1(   2)  ---------------------------------------


     EDDAV:  cpu time      5.7450: real time      5.7454
       DOS:  cpu time      0.0004: real time      0.0004
    --------------------------------------------
      LOOP:  cpu time      5.7453: real time      5.7458

 eigenvalue-minimisations  :  3584
 total energy-change (2. order) :-0.2111689E+04  (-0.2048540E+04)
 number of electron     242.0000000 magnetization 
 augmentation part      242.0000000 magnetization 

 Free energy of the ion-electron system (eV)
  ---------------------------------------------------
  alpha Z        PSCENC =       238.52296072
  Ewald energy   TEWEN  =     39200.44369667
  -Hartree energ DENC   =    -62806.45940703
  -exchange      EXHF   =         0.00000000
  -V(xc)+E(xc)   XCENC  =       528.24178362
  PAW double counting   =     21969.42663437   -21851.07168476
  entropy T*S    EENTRO =        -0.00970292
  eigenvalues    EBANDS =     -4609.63465892
  atomic energy  EATOM  =     27387.45954937
  Solvation  Ediel_sol  =         0.00000000
  ---------------------------------------------------
  free energy    TOTEN  =        56.91917112 eV

  energy without entropy =       56.92887404  energy(sigma->0) =       56.92240542


--------------------------------------------------------------------------------------------------------




--------------------------------------- Iteration      1(   3)  ---------------------------------------


     EDDAV:  cpu time     11.5915: real time     11.5935
       DOS:  cpu time      0.0004: real time      0.0004
    --------------------------------------------
      LOOP:  cpu time     11.5919: real time     11.5938

 eigenvalue-minimisations  :  6720
 total energy-change (2. order) :-0.2332272E+03  (-0.2284829E+03)
 number of electron     242.0000000 magnetization 
 augmentation part      242.0000000 magnetization 

 Free energy of the ion-electron system (eV)
  ---------------------------------------------------
  alpha Z        PSCENC =       238.52296072
  Ewald energy   TEWEN  =     39200.44369667
  -Hartree energ DENC   =    -62806.45940703
  -exchange      EXHF   =         0.00000000
  -V(xc)+E(xc)   XCENC  =       528.24178362
  PAW double counting   =     21969.42663437   -21851.07168476
  entropy T*S    EENTRO =        -0.00608564
  eigenvalues    EBANDS =     -4842.86552136
  atomic energy  EATOM  =     27387.45954937
  Solvation  Ediel_sol  =         0.00000000
  ---------------------------------------------------
  free energy    TOTEN  =      -176.30807404 eV

  energy without entropy =     -176.30198840  energy(sigma->0) =     -176.30604550


--------------------------------------------------------------------------------------------------------




--------------------------------------- Iteration      1(   4)  ---------------------------------------


     EDDAV:  cpu time      8.5197: real time      8.5209
       DOS:  cpu time      0.0004: real time      0.0004
    --------------------------------------------
      LOOP:  cpu time      8.5201: real time      8.5213

 eigenvalue-minimisations  :  5184
 total energy-change (2. order) :-0.2958467E+02  (-0.2936525E+02)
 number of electron     242.0000000 magnetization 
 augmentation part      242.0000000 magnetization 

 Free energy of the ion-electron system (eV)
  ---------------------------------------------------
  alpha Z        PSCENC =       238.52296072
  Ewald energy   TEWEN  =     39200.44369667
  -Hartree energ DENC   =    -62806.45940703
  -exchange      EXHF   =         0.00000000
  -V(xc)+E(xc)   XCENC  =       528.24178362
  PAW double counting   =     21969.42663437   -21851.07168476
  entropy T*S    EENTRO =        -0.00662213
  eigenvalues    EBANDS =     -4872.44965581
  atomic energy  EATOM  =     27387.45954937
  Solvation  Ediel_sol  =         0.00000000
  ---------------------------------------------------
  free energy    TOTEN  =      -205.89274498 eV

  energy without entropy =     -205.88612286  energy(sigma->0) =     -205.89053761


--------------------------------------------------------------------------------------------------------




--------------------------------------- Iteration      1(   5)  ---------------------------------------


     EDDAV:  cpu time      9.2917: real time      9.2929
       DOS:  cpu time      0.0004: real time      0.0004
    CHARGE:  cpu time      0.1087: real time      0.1087
    MIXING:  cpu time      0.0011: real time      0.0011
    --------------------------------------------
      LOOP:  cpu time      9.4020: real time      9.4032

 eigenvalue-minimisations  :  5568
 total energy-change (2. order) :-0.2555615E+01  (-0.2555107E+01)
 number of electron     242.0000052 magnetization 
 augmentation part       64.2441791 magnetization 

 Broyden mixing:
  rms(total) = 0.36681E+01    rms(broyden)= 0.36680E+01
  rms(prec ) = 0.41726E+01
  weight for this iteration     100.00

 Free energy of the ion-electron system (eV)
  ---------------------------------------------------
  alpha Z        PSCENC =       238.52296072
  Ewald energy   TEWEN  =     39200.44369667
  -Hartree energ DENC   =    -62806.45940703
  -exchange      EXHF   =         0.00000000
  -V(xc)+E(xc)   XCENC  =       528.24178362
  PAW double counting   =     21969.42663437   -21851.07168476
  entropy T*S    EENTRO =        -0.00746794
  eigenvalues    EBANDS =     -4875.00442498
  atomic energy  EATOM  =     27387.45954937
  Solvation  Ediel_sol  =         0.00000000
  ---------------------------------------------------
  free energy    TOTEN  =      -208.44835996 eV

  energy without entropy =     -208.44089202  energy(sigma->0) =     -208.44587065


--------------------------------------------------------------------------------------------------------




--------------------------------------- Iteration      1(   6)  ---------------------------------------


    POTLOK:  cpu time      0.0334: real time      0.0334
    SETDIJ:  cpu time      0.0027: real time      0.0027
     EDDAV:  cpu time      7.7035: real time      7.7047
       DOS:  cpu time      0.0004: real time      0.0004
    CHARGE:  cpu time      0.1073: real time      0.1073
    MIXING:  cpu time      0.0013: real time      0.0013
    --------------------------------------------
      LOOP:  cpu time      7.8486: real time      7.8497

 eigenvalue-minimisations  :  4672
 total energy-change (2. order) :-0.3458991E+01  (-0.2407819E+02)
 number of electron     242.0000086 magnetization 
 augmentation part       80.0412213 magnetization 

 Broyden mixing:
  rms(total) = 0.63724E+01    rms(broyden)= 0.63723E+01
  rms(prec ) = 0.77836E+01
  weight for this iteration     100.00

 eigenvalues of (default mixing * dielectric matrix)
  average eigenvalue GAMMA=   0.3372
  0.3372

 Free energy of the ion-electron system (eV)
  ---------------------------------------------------
  alpha Z        PSCENC =       238.52296072
  Ewald energy   TEWEN  =     39200.44369667
  -Hartree energ DENC   =    -62532.80048614
  -exchange      EXHF   =         0.00000000
  -V(xc)+E(xc)   XCENC  =       507.36384938
  PAW double counting   =     23316.78618366   -23207.43734450
  entropy T*S    EENTRO =        -0.01699159
  eigenvalues    EBANDS =     -5122.22876824
  atomic energy  EATOM  =     27387.45954937
  Solvation  Ediel_sol  =         0.00000000
  ---------------------------------------------------
  free energy    TOTEN  =      -211.90735068 eV

  energy without entropy =     -211.89035908  energy(sigma->0) =     -211.90168681


--------------------------------------------------------------------------------------------------------




--------------------------------------- Iteration      1(   7)  ---------------------------------------


    POTLOK:  cpu time      0.0336: real time      0.0336
    SETDIJ:  cpu time      0.0026: real time      0.0026
     EDDAV:  cpu time      8.5601: real time      8.5623
       DOS:  cpu time      0.0004: real time      0.0004
    CHARGE:  cpu time      0.1073: real time      0.1073
    MIXING:  cpu time      0.0015: real time      0.0015
    --------------------------------------------
      LOOP:  cpu time      8.7055: real time      8.7077

 eigenvalue-minimisations  :  5120
 total energy-change (2. order) : 0.1325938E+02  (-0.4531103E+02)
 number of electron     242.0000070 magnetization 
 augmentation part       71.6073559 magnetization 

 Broyden mixing:
  rms(total) = 0.37477E+01    rms(broyden)= 0.37475E+01
  rms(prec ) = 0.50051E+01
  weight for this iteration     100.00

 eigenvalues of (default mixing * dielectric matrix)
  average eigenvalue GAMMA=   0.4170
  0.6271  0.2069

 Free energy of the ion-electron system (eV)
  ---------------------------------------------------
  alpha Z        PSCENC =       238.52296072
  Ewald energy   TEWEN  =     39200.44369667
  -Hartree energ DENC   =    -62635.81731238
  -exchange      EXHF   =         0.00000000
  -V(xc)+E(xc)   XCENC  =       515.24583291
  PAW double counting   =     23777.50161873   -23662.49702376
  entropy T*S    EENTRO =        -0.00248450
  eigenvalues    EBANDS =     -5019.50481020
  atomic energy  EATOM  =     27387.45954937
  Solvation  Ediel_sol  =         0.00000000
  ---------------------------------------------------
  free energy    TOTEN  =      -198.64797246 eV

  energy without entropy =     -198.64548795  energy(sigma->0) =     -198.64714429


--------------------------------------------------------------------------------------------------------




--------------------------------------- Iteration      1(   8)  ---------------------------------------


    POTLOK:  cpu time      0.0321: real time      0.0321
    SETDIJ:  cpu time      0.0024: real time      0.0024
     EDDAV:  cpu time      8.6564: real time      8.6588
       DOS:  cpu time      0.0004: real time      0.0004
    CHARGE:  cpu time      0.1076: real time      0.1076
    MIXING:  cpu time      0.0013: real time      0.0013
    --------------------------------------------
      LOOP:  cpu time      8.8003: real time      8.8026

 eigenvalue-minimisations  :  5184
 total energy-change (2. order) : 0.1508580E+02  (-0.1646991E+02)
 number of electron     242.0000061 magnetization 
 augmentation part       66.7947909 magnetization 

 Broyden mixing:
  rms(total) = 0.20884E+01    rms(broyden)= 0.20883E+01
  rms(prec ) = 0.25938E+01
  weight for this iteration     100.00

 eigenvalues of (default mixing * dielectric matrix)
  average eigenvalue GAMMA=   0.4670
  0.9276  0.2367  0.2367

 Free energy of the ion-electron system (eV)
  ---------------------------------------------------
  alpha Z        PSCENC =       238.52296072
  Ewald energy   TEWEN  =     39200.44369667
  -Hartree energ DENC   =    -62831.16364777
  -exchange      EXHF   =         0.00000000
  -V(xc)+E(xc)   XCENC  =       519.17109217
  PAW double counting   =     24318.90830044   -24197.73065770
  entropy T*S    EENTRO =        -0.00212548
  eigenvalues    EBANDS =     -4819.17133600
  atomic energy  EATOM  =     27387.45954937
  Solvation  Ediel_sol  =         0.00000000
  ---------------------------------------------------
  free energy    TOTEN  =      -183.56216759 eV

  energy without entropy =     -183.56004212  energy(sigma->0) =     -183.56145910


--------------------------------------------------------------------------------------------------------




--------------------------------------- Iteration      1(   9)  ---------------------------------------


    POTLOK:  cpu time      0.0332: real time      0.0332
    SETDIJ:  cpu time      0.0026: real time      0.0026
     EDDAV:  cpu time      8.6090: real time      8.6104
       DOS:  cpu time      0.0004: real time      0.0004
    CHARGE:  cpu time      0.1074: real time      0.1074
    MIXING:  cpu time      0.0014: real time      0.0014
    --------------------------------------------
      LOOP:  cpu time      8.7540: real time      8.7554

 eigenvalue-minimisations  :  5184
 total energy-change (2. order) : 0.4069673E+01  (-0.4579304E+01)
 number of electron     242.0000059 magnetization 
 augmentation part       66.7516245 magnetization 

 Broyden mixing:
  rms(total) = 0.15816E+01    rms(broyden)= 0.15816E+01
  rms(prec ) = 0.21763E+01
  weight for this iteration     100.00

 eigenvalues of (default mixing * dielectric matrix)
  average eigenvalue GAMMA=   0.4914
  1.2299  0.2771  0.2771  0.1814

 Free energy of the ion-electron system (eV)
  ---------------------------------------------------
  alpha Z        PSCENC =       238.52296072
  Ewald energy   TEWEN  =     39200.44369667
  -Hartree energ DENC   =    -62831.19386472
  -exchange      EXHF   =         0.00000000
  -V(xc)+E(xc)   XCENC  =       518.20226229
  PAW double counting   =     24740.96408252   -24616.47794599
  entropy T*S    EENTRO =         0.00581708
  eigenvalues    EBANDS =     -4817.41905231
  atomic energy  EATOM  =     27387.45954937
  Solvation  Ediel_sol  =         0.00000000
  ---------------------------------------------------
  free energy    TOTEN  =      -179.49249437 eV

  energy without entropy =     -179.49831145  energy(sigma->0) =     -179.49443340


--------------------------------------------------------------------------------------------------------




--------------------------------------- Iteration      1(  10)  ---------------------------------------


    POTLOK:  cpu time      0.0326: real time      0.0326
    SETDIJ:  cpu time      0.0029: real time      0.0029
     EDDAV:  cpu time      8.4266: real time      8.4273
       DOS:  cpu time      0.0004: real time      0.0004
    CHARGE:  cpu time      0.1075: real time      0.1075
    MIXING:  cpu time      0.0013: real time      0.0013
    --------------------------------------------
      LOOP:  cpu time      8.5714: real time      8.5720

 eigenvalue-minimisations  :  5120
 total energy-change (2. order) : 0.3257592E+01  (-0.2865341E+01)
 number of electron     242.0000060 magnetization 
 augmentation part       67.5583444 magnetization 

 Broyden mixing:
  rms(total) = 0.10436E+01    rms(broyden)= 0.10436E+01
  rms(prec ) = 0.13295E+01
  weight for this iteration     100.00

 eigenvalues of (default mixing * dielectric matrix)
  average eigenvalue GAMMA=   0.5534
  1.6647  0.3714  0.3714  0.1912  0.1681

 Free energy of the ion-electron system (eV)
  ---------------------------------------------------
  alpha Z        PSCENC =       238.52296072
  Ewald energy   TEWEN  =     39200.44369667
  -Hartree energ DENC   =    -62785.54281818
  -exchange      EXHF   =         0.00000000
  -V(xc)+E(xc)   XCENC  =       516.41212372
  PAW double counting   =     25054.70344638   -24928.42844238
  entropy T*S    EENTRO =         0.01936036
  eigenvalues    EBANDS =     -4859.82477933
  atomic energy  EATOM  =     27387.45954937
  Solvation  Ediel_sol  =         0.00000000
  ---------------------------------------------------
  free energy    TOTEN  =      -176.23490267 eV

  energy without entropy =     -176.25426303  energy(sigma->0) =     -176.24135612


--------------------------------------------------------------------------------------------------------




--------------------------------------- Iteration      1(  11)  ---------------------------------------


    POTLOK:  cpu time      0.0328: real time      0.0328
    SETDIJ:  cpu time      0.0025: real time      0.0025
     EDDAV:  cpu time      8.3124: real time      8.3144
       DOS:  cpu time      0.0004: real time      0.0004
    CHARGE:  cpu time      0.1086: real time      0.1086
    MIXING:  cpu time      0.0009: real time      0.0009
    --------------------------------------------
      LOOP:  cpu time      8.4576: real time      8.4596

 eigenvalue-minimisations  :  5056
 total energy-change (2. order) : 0.1541893E+01  (-0.8733819E+00)
 number of electron     242.0000064 magnetization 
 augmentation part       68.3470208 magnetization 

 Broyden mixing:
  rms(total) = 0.71046E+00    rms(broyden)= 0.71044E+00
  rms(prec ) = 0.89331E+00
  weight for this iteration     100.00

 eigenvalues of (default mixing * dielectric matrix)
  average eigenvalue GAMMA=   0.5833
  1.8923  0.6279  0.3919  0.2207  0.2207  0.1460

 Free energy of the ion-electron system (eV)
  ---------------------------------------------------
  alpha Z        PSCENC =       238.52296072
  Ewald energy   TEWEN  =     39200.44369667
  -Hartree energ DENC   =    -62763.33261895
  -exchange      EXHF   =         0.00000000
  -V(xc)+E(xc)   XCENC  =       514.88488267
  PAW double counting   =     25393.00446790   -25263.46190074
  entropy T*S    EENTRO =        -0.00766837
  eigenvalues    EBANDS =     -4882.20637847
  atomic energy  EATOM  =     27387.45954937
  Solvation  Ediel_sol  =         0.00000000
  ---------------------------------------------------
  free energy    TOTEN  =      -174.69300922 eV

  energy without entropy =     -174.68534084  energy(sigma->0) =     -174.69045309


--------------------------------------------------------------------------------------------------------




--------------------------------------- Iteration      1(  12)  ---------------------------------------


    POTLOK:  cpu time      0.0339: real time      0.0339
    SETDIJ:  cpu time      0.0027: real time      0.0027
     EDDAV:  cpu time      9.5207: real time      9.5220
       DOS:  cpu time      0.0004: real time      0.0004
    CHARGE:  cpu time      0.1073: real time      0.1074
    MIXING:  cpu time      0.0013: real time      0.0013
    --------------------------------------------
      LOOP:  cpu time      9.6663: real time      9.6677

 eigenvalue-minimisations  :  5760
 total energy-change (2. order) : 0.2869503E+00  (-0.5691237E+00)
 number of electron     242.0000064 magnetization 
 augmentation part       68.8933490 magnetization 

 Broyden mixing:
  rms(total) = 0.66076E+00    rms(broyden)= 0.66074E+00
  rms(prec ) = 0.80869E+00
  weight for this iteration     100.00

 eigenvalues of (default mixing * dielectric matrix)
  average eigenvalue GAMMA=   0.6307
  2.2315  0.9965  0.3272  0.3272  0.1928  0.1928  0.1471

 Free energy of the ion-electron system (eV)
  ---------------------------------------------------
  alpha Z        PSCENC =       238.52296072
  Ewald energy   TEWEN  =     39200.44369667
  -Hartree energ DENC   =    -62764.72800879
  -exchange      EXHF   =         0.00000000
  -V(xc)+E(xc)   XCENC  =       514.04000922
  PAW double counting   =     25711.94853719   -25576.34758455
  entropy T*S    EENTRO =         0.00476266
  eigenvalues    EBANDS =     -4885.74998142
  atomic energy  EATOM  =     27387.45954937
  Solvation  Ediel_sol  =         0.00000000
  ---------------------------------------------------
  free energy    TOTEN  =      -174.40605895 eV

  energy without entropy =     -174.41082161  energy(sigma->0) =     -174.40764650


--------------------------------------------------------------------------------------------------------




--------------------------------------- Iteration      1(  13)  ---------------------------------------


    POTLOK:  cpu time      0.0333: real time      0.0333
    SETDIJ:  cpu time      0.0024: real time      0.0024
     EDDAV:  cpu time      8.3995: real time      8.3998
       DOS:  cpu time      0.0005: real time      0.0006
    CHARGE:  cpu time      0.1074: real time      0.1074
    MIXING:  cpu time      0.0011: real time      0.0011
    --------------------------------------------
      LOOP:  cpu time      8.5443: real time      8.5446

 eigenvalue-minimisations  :  5056
 total energy-change (2. order) : 0.1757731E+00  (-0.3850513E+00)
 number of electron     242.0000066 magnetization 
 augmentation part       69.2788209 magnetization 

 Broyden mixing:
  rms(total) = 0.51213E+00    rms(broyden)= 0.51211E+00
  rms(prec ) = 0.62033E+00
  weight for this iteration     100.00

 eigenvalues of (default mixing * dielectric matrix)
  average eigenvalue GAMMA=   0.6477
  2.2773  1.2382  0.4585  0.4585  0.2212  0.2212  0.1535  0.1535

 Free energy of the ion-electron system (eV)
  ---------------------------------------------------
  alpha Z        PSCENC =       238.52296072
  Ewald energy   TEWEN  =     39200.44369667
  -Hartree energ DENC   =    -62776.97651679
  -exchange      EXHF   =         0.00000000
  -V(xc)+E(xc)   XCENC  =       513.66719802
  PAW double counting   =     25959.62981835   -25817.64588887
  entropy T*S    EENTRO =         0.00988393
  eigenvalues    EBANDS =     -4879.34098729
  atomic energy  EATOM  =     27387.45954937
  Solvation  Ediel_sol  =         0.00000000
  ---------------------------------------------------
  free energy    TOTEN  =      -174.23028590 eV

  energy without entropy =     -174.24016983  energy(sigma->0) =     -174.23358054


--------------------------------------------------------------------------------------------------------




--------------------------------------- Iteration      1(  14)  ---------------------------------------


    POTLOK:  cpu time      0.0355: real time      0.0355
    SETDIJ:  cpu time      0.0023: real time      0.0023
     EDDAV:  cpu time      8.2419: real time      8.2422
       DOS:  cpu time      0.0004: real time      0.0004
    CHARGE:  cpu time      0.1078: real time      0.1078
    MIXING:  cpu time      0.0013: real time      0.0013
    --------------------------------------------
      LOOP:  cpu time      8.3892: real time      8.3895

 eigenvalue-minimisations  :  4992
 total energy-change (2. order) : 0.3290981E-01  (-0.1487633E+00)
 number of electron     242.0000064 magnetization 
 augmentation part       69.0873023 magnetization 

 Broyden mixing:
  rms(total) = 0.46907E+00    rms(broyden)= 0.46906E+00
  rms(prec ) = 0.57538E+00
  weight for this iteration     100.00

 eigenvalues of (default mixing * dielectric matrix)
  average eigenvalue GAMMA=   0.6643
  1.9582  1.9582  0.6648  0.4429  0.2341  0.2243  0.1928  0.1585  0.1448

 Free energy of the ion-electron system (eV)
  ---------------------------------------------------
  alpha Z        PSCENC =       238.52296072
  Ewald energy   TEWEN  =     39200.44369667
  -Hartree energ DENC   =    -62790.09123334
  -exchange      EXHF   =         0.00000000
  -V(xc)+E(xc)   XCENC  =       513.99879805
  PAW double counting   =     25974.74229025   -25829.17406005
  entropy T*S    EENTRO =        -0.00124221
  eigenvalues    EBANDS =     -4870.09813553
  atomic energy  EATOM  =     27387.45954937
  Solvation  Ediel_sol  =         0.00000000
  ---------------------------------------------------
  free energy    TOTEN  =      -174.19737608 eV

  energy without entropy =     -174.19613387  energy(sigma->0) =     -174.19696201


--------------------------------------------------------------------------------------------------------




--------------------------------------- Iteration      1(  15)  ---------------------------------------


    POTLOK:  cpu time      0.0333: real time      0.0333
    SETDIJ:  cpu time      0.0026: real time      0.0026
     EDDAV:  cpu time      8.3897: real time      8.3899
       DOS:  cpu time      0.0004: real time      0.0004
    CHARGE:  cpu time      0.1074: real time      0.1074
    MIXING:  cpu time      0.0015: real time      0.0015
    --------------------------------------------
      LOOP:  cpu time      8.5349: real time      8.5351

 eigenvalue-minimisations  :  5056
 total energy-change (2. order) : 0.1839288E+00  (-0.1232178E+00)
 number of electron     242.0000064 magnetization 
 augmentation part       68.7625510 magnetization 

 Broyden mixing:
  rms(total) = 0.19379E+00    rms(broyden)= 0.19377E+00
  rms(prec ) = 0.23822E+00
  weight for this iteration     100.00

 eigenvalues of (default mixing * dielectric matrix)
  average eigenvalue GAMMA=   0.6782
  2.1210  2.1210  0.7355  0.4402  0.4402  0.2250  0.2250  0.1724  0.1510  0.1510

 Free energy of the ion-electron system (eV)
  ---------------------------------------------------
  alpha Z        PSCENC =       238.52296072
  Ewald energy   TEWEN  =     39200.44369667
  -Hartree energ DENC   =    -62808.62848687
  -exchange      EXHF   =         0.00000000
  -V(xc)+E(xc)   XCENC  =       514.61345115
  PAW double counting   =     25932.44834131   -25783.07419031
  entropy T*S    EENTRO =        -0.00256991
  eigenvalues    EBANDS =     -4855.79619935
  atomic energy  EATOM  =     27387.45954937
  Solvation  Ediel_sol  =         0.00000000
  ---------------------------------------------------
  free energy    TOTEN  =      -174.01344723 eV

  energy without entropy =     -174.01087733  energy(sigma->0) =     -174.01259060


--------------------------------------------------------------------------------------------------------




--------------------------------------- Iteration      1(  16)  ---------------------------------------


    POTLOK:  cpu time      0.0323: real time      0.0323
    SETDIJ:  cpu time      0.0024: real time      0.0024
     EDDAV:  cpu time      8.1873: real time      8.1878
       DOS:  cpu time      0.0004: real time      0.0004
    CHARGE:  cpu time      0.1120: real time      0.1120
    MIXING:  cpu time      0.0009: real time      0.0009
    --------------------------------------------
      LOOP:  cpu time      8.3353: real time      8.3357

 eigenvalue-minimisations  :  4992
 total energy-change (2. order) :-0.8532957E-02  (-0.4688145E-01)
 number of electron     242.0000064 magnetization 
 augmentation part       68.6314658 magnetization 

 Broyden mixing:
  rms(total) = 0.19171E+00    rms(broyden)= 0.19170E+00
  rms(prec ) = 0.24240E+00
  weight for this iteration     100.00

 eigenvalues of (default mixing * dielectric matrix)
  average eigenvalue GAMMA=   0.6958
  2.2458  2.2458  0.9161  0.6811  0.4254  0.2358  0.2186  0.2186  0.1677  0.1493
  0.1493

 Free energy of the ion-electron system (eV)
  ---------------------------------------------------
  alpha Z        PSCENC =       238.52296072
  Ewald energy   TEWEN  =     39200.44369667
  -Hartree energ DENC   =    -62823.34902748
  -exchange      EXHF   =         0.00000000
  -V(xc)+E(xc)   XCENC  =       514.96313122
  PAW double counting   =     25909.41298277   -25757.78422704
  entropy T*S    EENTRO =        -0.00559232
  eigenvalues    EBANDS =     -4843.68545410
  atomic energy  EATOM  =     27387.45954937
  Solvation  Ediel_sol  =         0.00000000
  ---------------------------------------------------
  free energy    TOTEN  =      -174.02198019 eV

  energy without entropy =     -174.01638787  energy(sigma->0) =     -174.02011609


--------------------------------------------------------------------------------------------------------




--------------------------------------- Iteration      1(  17)  ---------------------------------------


    POTLOK:  cpu time      0.0342: real time      0.0342
    SETDIJ:  cpu time      0.0029: real time      0.0029
     EDDAV:  cpu time      8.2689: real time      8.2692
       DOS:  cpu time      0.0004: real time      0.0004
    CHARGE:  cpu time      0.1107: real time      0.1107
    MIXING:  cpu time      0.0009: real time      0.0009
    --------------------------------------------
      LOOP:  cpu time      8.4180: real time      8.4183

 eigenvalue-minimisations  :  5056
 total energy-change (2. order) : 0.3894707E-01  (-0.1845168E-01)
 number of electron     242.0000064 magnetization 
 augmentation part       68.6379411 magnetization 

 Broyden mixing:
  rms(total) = 0.68021E-01    rms(broyden)= 0.68010E-01
  rms(prec ) = 0.85361E-01
  weight for this iteration     100.00

 eigenvalues of (default mixing * dielectric matrix)
  average eigenvalue GAMMA=   0.6743
  2.2527  2.2527  0.9738  0.6964  0.3968  0.3968  0.2275  0.2275  0.2059  0.1566
  0.1566  0.1486

 Free energy of the ion-electron system (eV)
  ---------------------------------------------------
  alpha Z        PSCENC =       238.52296072
  Ewald energy   TEWEN  =     39200.44369667
  -Hartree energ DENC   =    -62835.72613848
  -exchange      EXHF   =         0.00000000
  -V(xc)+E(xc)   XCENC  =       515.10892425
  PAW double counting   =     25920.81455806   -25766.68877134
  entropy T*S    EENTRO =        -0.00291338
  eigenvalues    EBANDS =     -4833.91489897
  atomic energy  EATOM  =     27387.45954937
  Solvation  Ediel_sol  =         0.00000000
  ---------------------------------------------------
  free energy    TOTEN  =      -173.98303312 eV

  energy without entropy =     -173.98011974  energy(sigma->0) =     -173.98206199


--------------------------------------------------------------------------------------------------------




--------------------------------------- Iteration      1(  18)  ---------------------------------------


    POTLOK:  cpu time      0.0339: real time      0.0339
    SETDIJ:  cpu time      0.0026: real time      0.0026
     EDDAV:  cpu time      8.1562: real time      8.1563
       DOS:  cpu time      0.0004: real time      0.0004
    CHARGE:  cpu time      0.1119: real time      0.1119
    MIXING:  cpu time      0.0012: real time      0.0012
    --------------------------------------------
      LOOP:  cpu time      8.3063: real time      8.3063

 eigenvalue-minimisations  :  5120
 total energy-change (2. order) :-0.1662110E-02  (-0.5869566E-02)
 number of electron     242.0000064 magnetization 
 augmentation part       68.6403492 magnetization 

 Broyden mixing:
  rms(total) = 0.70234E-01    rms(broyden)= 0.70231E-01
  rms(prec ) = 0.86669E-01
  weight for this iteration     100.00

 eigenvalues of (default mixing * dielectric matrix)
  average eigenvalue GAMMA=   0.7052
  2.3006  2.3006  1.3205  0.8079  0.6932  0.4288  0.2249  0.2249  0.2247  0.1821
  0.1503  0.1546  0.1546

 Free energy of the ion-electron system (eV)
  ---------------------------------------------------
  alpha Z        PSCENC =       238.52296072
  Ewald energy   TEWEN  =     39200.44369667
  -Hartree energ DENC   =    -62839.48917917
  -exchange      EXHF   =         0.00000000
  -V(xc)+E(xc)   XCENC  =       515.14010979
  PAW double counting   =     25919.88206225   -25765.26295685
  entropy T*S    EENTRO =        -0.00517235
  eigenvalues    EBANDS =     -4830.67576566
  atomic energy  EATOM  =     27387.45954937
  Solvation  Ediel_sol  =         0.00000000
  ---------------------------------------------------
  free energy    TOTEN  =      -173.98469523 eV

  energy without entropy =     -173.97952288  energy(sigma->0) =     -173.98297111


--------------------------------------------------------------------------------------------------------




--------------------------------------- Iteration      1(  19)  ---------------------------------------


    POTLOK:  cpu time      0.0341: real time      0.0341
    SETDIJ:  cpu time      0.0029: real time      0.0029
     EDDAV:  cpu time      7.8261: real time      7.8261
       DOS:  cpu time      0.0004: real time      0.0004
    CHARGE:  cpu time      0.1089: real time      0.1089
    MIXING:  cpu time      0.0012: real time      0.0012
    --------------------------------------------
      LOOP:  cpu time      7.9735: real time      7.9736

 eigenvalue-minimisations  :  4800
 total energy-change (2. order) : 0.1186825E-02  (-0.3168746E-02)
 number of electron     242.0000064 magnetization 
 augmentation part       68.6246064 magnetization 

 Broyden mixing:
  rms(total) = 0.42943E-01    rms(broyden)= 0.42940E-01
  rms(prec ) = 0.54831E-01
  weight for this iteration     100.00

 eigenvalues of (default mixing * dielectric matrix)
  average eigenvalue GAMMA=   0.6838
[...]
     73      -5.6287      2.00000
     74      -5.5753      2.00000
     75      -4.2972      2.00000
     76      -4.2364      2.00000
     77      -3.8204      2.00000
     78      -3.7352      2.00000
     79      -3.6890      2.00000
     80      -3.3029      2.00000
     81      -3.0895      2.00000
     82      -3.0789      2.00000
     83      -2.9548      2.00000
     84      -2.9367      2.00000
     85      -2.4880      2.00000
     86      -2.2384      2.00000
     87      -2.1412      2.00000
     88      -1.7945      2.00000
     89      -1.7040      2.00000
     90      -1.6442      2.00000
     91      -1.6255      2.00000
     92      -1.6017      2.00000
     93      -1.5055      2.00000
     94      -1.4882      2.00000
     95      -1.4553      2.00000
     96      -1.3530      2.00000
     97      -1.3116      2.00000
     98      -1.3067      2.00000
     99      -1.0135      2.00000
    100      -0.8388      2.00000
    101      -0.7943      2.00000
    102      -0.6500      2.00000
    103      -0.6154      2.00000
    104      -0.4991      2.00000
    105      -0.4370      2.00000
    106      -0.4168      2.00000
    107      -0.2938      2.00000
    108      -0.1526      2.00000
    109      -0.1052      2.00000
    110       0.0272      2.00000
    111       0.0429      2.00000
    112       0.1793      2.00000
    113       0.2057      2.00000
    114       0.2704      2.00000
    115       0.4103      2.00045
    116       0.4288      2.00114
    117       0.4375      2.00172
    118       0.5371      2.04899
    119       0.6961      0.96520
    120       0.6972      0.94671
    121       0.7019      0.86731
    122       0.7285      0.45317
    123       0.7597      0.11247
    124       0.8458     -0.05373
    125       0.8739     -0.02893
    126       0.9849     -0.00031
    127       1.0977     -0.00000
    128       1.2406     -0.00000
    129       1.2774     -0.00000
    130       1.4083     -0.00000
    131       1.4446     -0.00000
    132       1.4699     -0.00000
    133       1.4883     -0.00000
    134       1.5646     -0.00000
    135       1.6035     -0.00000
    136       1.7491     -0.00000
    137       1.7540     -0.00000
    138       1.7857     -0.00000
    139       1.8416     -0.00000
    140       1.8490     -0.00000
    141       1.8548     -0.00000
    142       1.9677     -0.00000
    143       2.0475     -0.00000
    144       2.0621     -0.00000
    145       2.0881     -0.00000
    146       2.0891     -0.00000
    147       2.2824     -0.00000
    148       2.2849     -0.00000
    149       2.3169     -0.00000
    150       2.3174     -0.00000
    151       2.3927     -0.00000
    152       2.4194     -0.00000
    153       2.4258     -0.00000
    154       2.4787     -0.00000
    155       2.5181     -0.00000
    156       2.5816     -0.00000
    157       2.6951      0.00000
    158       2.7619      0.00000
    159       2.7906      0.00000
    160       2.8274      0.00000
    161       2.8769      0.00000
    162       2.9118      0.00000
    163       2.9181      0.00000
    164       3.0186      0.00000
    165       3.0831      0.00000
    166       3.1114      0.00000
    167       3.1720      0.00000
    168       3.1862      0.00000
    169       3.2640      0.00000
    170       3.4471      0.00000
    171       3.5797      0.00000
    172       3.5981      0.00000
    173       3.6701      0.00000
    174       3.7353      0.00000
    175       3.8107      0.00000
    176       3.8858      0.00000
    177       4.0137      0.00000
    178       4.1469      0.00000
    179       4.2636      0.00000
    180       4.3065      0.00000
    181       4.3170      0.00000
    182       4.6149      0.00000
    183       4.6813      0.00000
    184       4.8119      0.00000
    185       4.8533      0.00000
    186       4.9837      0.00000
    187       5.0403      0.00000
    188       5.2148      0.00000
    189       5.2273      0.00000
    190       5.2960      0.00000
    191       5.3374      0.00000
    192       5.3753      0.00000


--------------------------------------------------------------------------------------------------------


 soft charge-density along one line, spin component           1
         0         1         2         3         4         5         6         7         8         9
 total charge-density along one line
 
 pseudopotential strength for first ion, spin component:           1
-16.909   0.000   0.000  -0.000  -0.000   3.782  -0.000  -0.000
  0.000 -16.943  -0.000  -0.000   0.000  -0.000   3.802   0.000
  0.000  -0.000 -16.941   0.000  -0.013  -0.000   0.000   3.801
 -0.000  -0.000   0.000 -16.928   0.000   0.000   0.000  -0.000
 -0.000   0.000  -0.013   0.000 -16.906   0.000  -0.000   0.007
  3.782  -0.000  -0.000   0.000   0.000   3.045   0.000  -0.000
 -0.000   3.802   0.000   0.000  -0.000   0.000   3.034  -0.000
 -0.000   0.000   3.801  -0.000   0.007  -0.000  -0.000   3.035
  0.000   0.000  -0.000   3.793  -0.000  -0.000   0.000   0.000
  0.000  -0.000   0.007  -0.000   3.781   0.000   0.000  -0.003
 -0.000  -0.000   0.000   0.000  -0.000   0.000   0.000   0.002
  0.000   0.000   0.005  -0.000  -0.004  -0.000  -0.000  -0.002
  0.000  -0.007  -0.000   0.000   0.000   0.000   0.005   0.000
  0.000  -0.000  -0.008   0.000  -0.000  -0.000  -0.000   0.005
 -0.000   0.000  -0.000  -0.007   0.000  -0.000  -0.000  -0.000
  0.000   0.010   0.000  -0.000   0.000  -0.000  -0.006  -0.000
 -0.000   0.000   0.011   0.000   0.001   0.000   0.000  -0.006
 -0.000  -0.000  -0.000   0.011   0.000   0.000   0.000   0.000
 total augmentation occupancy for first ion, spin component:           1
  2.001   0.000  -0.000   0.000   0.000   0.010   0.000  -0.000   0.000   0.000  -0.000   0.000   0.000  -0.000   0.000   0.000
  0.000   2.000   0.000   0.000  -0.000   0.000   0.006   0.000   0.000  -0.000   0.000  -0.000   0.007   0.000   0.000   0.001
 -0.000   0.000   2.000   0.000   0.000  -0.000   0.000   0.005   0.000   0.000   0.003  -0.001   0.000   0.008  -0.000   0.000
  0.000   0.000   0.000   2.001   0.000   0.000   0.000   0.000   0.007   0.000   0.000  -0.000   0.000   0.000   0.014   0.000
  0.000  -0.000   0.000   0.000   1.999   0.000  -0.000   0.000   0.000   0.005   0.001   0.000  -0.000   0.004   0.000  -0.000
  0.010   0.000  -0.000   0.000   0.000   0.025   0.000  -0.000   0.000   0.000  -0.000   0.000   0.000  -0.000   0.000   0.000
  0.000   0.006   0.000   0.000  -0.000   0.000   0.018   0.000   0.000  -0.000  -0.000  -0.000   0.048   0.000   0.000   0.001
 -0.000   0.000   0.005   0.000   0.000  -0.000   0.000   0.017   0.000  -0.002  -0.015  -0.000   0.000   0.067   0.000   0.000
  0.000   0.000   0.000   0.007   0.000   0.000   0.000   0.000   0.007   0.000  -0.000  -0.000   0.000   0.000   0.047   0.000
  0.000  -0.000   0.000   0.000   0.005   0.000  -0.000  -0.002   0.000   0.016   0.016  -0.000  -0.000  -0.003   0.000  -0.000
 -0.000   0.000   0.003   0.000   0.001  -0.000  -0.000  -0.015  -0.000   0.016   1.631   0.015   0.000   0.042   0.000   0.000
  0.000  -0.000  -0.001  -0.000   0.000   0.000  -0.000  -0.000  -0.000  -0.000   0.015   0.001   0.000   0.007   0.000   0.000
  0.000   0.007   0.000   0.000  -0.000   0.000   0.048   0.000   0.000  -0.000   0.000   0.000   0.714   0.000   0.000   0.010
 -0.000   0.000   0.008   0.000   0.004  -0.000   0.000   0.067   0.000  -0.003   0.042   0.007   0.000   0.652   0.000   0.000
  0.000   0.000  -0.000   0.014   0.000   0.000   0.000   0.000   0.047   0.000   0.000   0.000   0.000   0.000   0.819   0.000
  0.000   0.001   0.000   0.000  -0.000   0.000   0.001   0.000   0.000  -0.000   0.000   0.000   0.010   0.000   0.000   0.000
 -0.000   0.000   0.001   0.000   0.000  -0.000   0.000   0.001   0.000  -0.000   0.004   0.000   0.000   0.008   0.000   0.000
  0.000   0.000   0.000   0.001   0.000   0.000   0.000   0.000   0.001   0.000   0.000   0.000   0.000   0.000   0.011   0.000


------------------------ aborting loop because EDIFF is reached ----------------------------------------


    CHARGE:  cpu time      0.1122: real time      0.1122
    FORLOC:  cpu time      0.0029: real time      0.0029
    FORNL :  cpu time      2.7752: real time      2.7755
    STRESS:  cpu time      6.1050: real time      6.1062
    FORCOR:  cpu time      0.0293: real time      0.0293
    FORHAR:  cpu time      0.0079: real time      0.0079
    MIXING:  cpu time      0.0016: real time      0.0016
    OFIELD:  cpu time      0.0000: real time      0.0000

  FORCE on cell =-STRESS in cart. coord.  units (eV):
  Direction    XX          YY          ZZ          XY          YZ          ZX
  --------------------------------------------------------------------------------------
  Alpha Z   238.52296   238.52296   238.52296
  Ewald   51630.04838 48719.61540-61149.26728    -0.00000    -0.00000     0.00000
  Hartree 58089.71819 55555.21086-50770.58246    -0.00000    -0.00000    -0.00000
  E(xc)   -1174.96165 -1176.81070 -1177.45811    -0.00000     0.00000     0.00000
  Local  ************************109098.84603     0.00000    -0.00000     0.00000
  n-local  -150.85003   -95.80679  -150.54390     0.28176    -0.00000    -0.00000
  augment  1111.67577  1091.43686  1100.00601     0.00000     0.00000    -0.00000
  Kinetic  2812.98974  2760.89172  2807.16075     1.93077     0.00000     0.00000
  Fock        0.00000     0.00000     0.00000     0.00000     0.00000     0.00000
  -------------------------------------------------------------------------------------
  Total     -24.25176   -14.92180    -3.31600    -0.00000    -0.00000    -0.00000
  in kB     -28.37369   -17.45798    -3.87960    -0.00000    -0.00000    -0.00000
  external pressure =      -16.57 kB  Pullay stress =        0.00 kB


 VOLUME and BASIS-vectors are now :
 -----------------------------------------------------------------------------
  energy-cutoff  :      520.00
  volume of cell :     1369.42
      direct lattice vectors                 reciprocal lattice vectors
     7.929427517  0.000000000  0.000000000     0.126112509 -0.000000000 -0.000000000
     0.000000000  8.241706534  0.000000000     0.000000000  0.121334095 -0.000000000
     0.000000000  0.000000000 20.954578870     0.000000000  0.000000000  0.047722267

  length of vectors
     7.929427517  8.241706534 20.954578870     0.126112509  0.121334095  0.047722267


 FORCES acting on ions
    electron-ion (+dipol)            ewald-force                    non-local-force                 convergence-correction
 -----------------------------------------------------------------------------------------------
   -.801E-13 0.141E-12 0.199E+04   -.282E-13 -.354E-13 -.199E+04   -.548E-16 -.548E-16 -.230E+01   0.561E-13 -.146E-12 0.649E-03
   0.172E-11 0.780E-13 -.686E+03   -.997E-13 0.101E-13 0.688E+03   -.372E-16 -.372E-16 -.156E+01   -.852E-13 -.504E-13 0.144E-02
   -.113E-13 0.116E-11 0.184E+04   0.363E-14 -.311E-13 -.184E+04   -.112E-15 -.112E-15 -.468E+01   0.418E-13 0.512E-13 0.102E-02
   0.952E-12 -.400E-12 -.633E+03   -.759E-14 -.154E-13 0.634E+03   -.270E-16 -.270E-16 -.113E+01   -.581E-13 0.120E-12 0.108E-02
   -.413E+00 -.110E-12 0.624E+03   -.962E-01 0.153E-13 -.625E+03   0.302E-01 0.278E-16 0.111E+01   0.381E-03 -.151E-12 0.152E-02
   0.107E+02 0.683E-13 -.186E+04   -.117E+02 0.109E-13 0.185E+04   0.116E+01 0.919E-16 0.383E+01   -.170E-03 0.873E-14 0.776E-07
   -.818E-01 0.924E-12 0.624E+03   -.977E-01 -.154E-13 -.626E+03   0.260E+00 0.278E-16 0.128E+01   0.636E-03 0.195E-13 0.176E-02
   0.153E+01 -.455E-12 -.185E+04   -.159E+01 0.251E-13 0.184E+04   0.130E+00 0.111E-15 0.467E+01   -.307E-03 0.916E-13 -.175E-03
   0.413E+00 -.966E-13 0.624E+03   0.962E-01 0.492E-14 -.625E+03   -.302E-01 0.278E-16 0.111E+01   -.381E-03 -.125E-12 0.152E-02
   -.107E+02 -.248E-12 -.186E+04   0.117E+02 0.519E-13 0.185E+04   -.116E+01 0.919E-16 0.383E+01   0.170E-03 0.615E-13 0.776E-07
   0.818E-01 0.161E-11 0.624E+03   0.977E-01 -.258E-13 -.626E+03   -.260E+00 0.278E-16 0.128E+01   -.636E-03 0.458E-13 0.176E-02
   -.153E+01 0.105E-11 -.185E+04   0.159E+01 0.244E-13 0.184E+04   -.130E+00 0.111E-15 0.467E+01   0.307E-03 0.136E-12 -.175E-03
   -.401E-13 -.966E-13 -.638E+03   0.558E-15 0.128E-13 0.640E+03   -.200E-16 -.200E-16 -.838E+00   0.104E-12 -.479E-13 0.110E-02
   0.101E-11 -.828E-13 0.185E+04   -.124E-13 -.107E-13 -.184E+04   -.146E-15 -.146E-15 -.611E+01   -.162E-13 -.129E-12 0.659E-03
   -.215E-13 0.106E-11 -.633E+03   0.527E-13 0.289E-13 0.635E+03   -.235E-16 -.235E-16 -.985E+00   0.102E-12 0.110E-12 0.839E-03
   0.995E-12 -.149E-11 0.184E+04   0.196E-13 -.154E-13 -.184E+04   -.120E-15 -.120E-15 -.504E+01   -.215E-13 0.265E-13 0.779E-03
   0.172E-13 -.207E+00 0.152E+03   0.179E-13 -.600E+00 -.151E+03   0.282E-16 0.833E+00 -.957E+00   0.175E-13 -.399E-04 0.393E-03
   -.273E-13 0.990E-01 -.459E+03   0.220E-13 -.744E+00 0.458E+03   0.649E-16 0.657E+00 0.107E+01   -.132E-13 -.108E-04 -.976E-05
   0.542E-14 0.207E+00 0.152E+03   -.560E-14 0.600E+00 -.151E+03   -.726E-16 -.833E+00 -.957E+00   0.174E-13 0.399E-04 0.393E-03
   -.348E-13 -.990E-01 -.459E+03   -.124E-13 0.744E+00 0.458E+03   -.123E-16 -.657E+00 0.107E+01   -.127E-13 0.108E-04 -.976E-05
   -.116E+01 -.488E+00 -.156E+03   0.184E+01 -.350E+00 0.156E+03   -.683E+00 0.921E+00 0.231E+00   0.883E-04 -.613E-04 0.264E-03
   -.736E+00 -.590E+00 0.456E+03   0.192E+01 -.113E+01 -.454E+03   -.118E+01 0.165E+01 -.182E+01   -.822E-04 0.630E-04 0.203E-03
   -.116E+01 0.488E+00 -.156E+03   0.184E+01 0.350E+00 0.156E+03   -.683E+00 -.921E+00 0.231E+00   0.883E-04 0.613E-04 0.264E-03
   -.736E+00 0.590E+00 0.456E+03   0.192E+01 0.113E+01 -.454E+03   -.118E+01 -.165E+01 -.182E+01   -.822E-04 -.630E-04 0.203E-03
   0.116E+01 -.488E+00 -.156E+03   -.184E+01 -.350E+00 0.156E+03   0.683E+00 0.921E+00 0.231E+00   -.883E-04 -.613E-04 0.264E-03
   0.736E+00 -.590E+00 0.456E+03   -.192E+01 -.113E+01 -.454E+03   0.118E+01 0.165E+01 -.182E+01   0.822E-04 0.630E-04 0.203E-03
   0.116E+01 0.488E+00 -.156E+03   -.184E+01 0.350E+00 0.156E+03   0.683E+00 -.921E+00 0.231E+00   -.883E-04 0.613E-04 0.264E-03
   0.736E+00 0.590E+00 0.456E+03   -.192E+01 0.113E+01 -.454E+03   0.118E+01 -.165E+01 -.182E+01   0.822E-04 -.630E-04 0.203E-03
   -.186E-13 -.165E+01 -.456E+03   0.168E-13 0.160E+01 0.455E+03   0.559E-16 0.274E+00 0.164E+01   0.169E-13 -.356E-04 -.659E-04
   -.660E-14 -.480E+00 0.156E+03   0.386E-14 -.601E+00 -.157E+03   0.795E-16 0.117E+01 0.315E+00   -.162E-13 -.230E-05 0.388E-03
   -.195E-13 0.165E+01 -.456E+03   0.183E-13 -.160E+01 0.455E+03   0.226E-16 -.274E+00 0.164E+01   0.160E-13 0.356E-04 -.659E-04
   0.383E-15 0.480E+00 0.156E+03   0.153E-13 0.601E+00 -.157E+03   -.627E-16 -.117E+01 0.315E+00   -.165E-13 0.230E-05 0.388E-03
 -----------------------------------------------------------------------------------------------
   0.111E-10 0.413E-11 0.303E+01   -.495E-13 0.944E-14 0.199E-11   -.571E-15 0.000E+00 -.305E+01   0.809E-13 0.269E-13 0.171E-01
 
 
 POSITION                                       TOTAL-FORCE (eV/Angst)
 -----------------------------------------------------------------------------------
      0.00000      0.00000      7.50000         0.000000      0.000000      0.140171
      3.96471      0.00000     11.46471         0.000000      0.000000      0.366677
      0.00000      4.12085      7.50000         0.000000      0.000000      0.240763
      3.96471      4.12085     11.46471         0.000000      0.000000      0.045134
      5.94707      0.00000      9.48236        -0.478732      0.000000      0.195962
      1.98236      0.00000     13.44707         0.149351     -0.000000     -0.655261
      5.94707      4.12085      9.48236         0.081536     -0.000000     -0.168895
      1.98236      4.12085     13.44707         0.067644     -0.000000     -0.452717
      1.98236      0.00000      9.48236         0.478732      0.000000      0.195962
      5.94707      0.00000     13.44707        -0.149351     -0.000000     -0.655261
      1.98236      4.12085      9.48236        -0.081536     -0.000000     -0.168895
      5.94707      4.12085     13.44707        -0.067644     -0.000000     -0.452717
      0.00000      0.00000     11.46471         0.000000      0.000000      0.287466
      3.96471      0.00000      7.50000        -0.000000     -0.000000     -0.219830
      0.00000      4.12085     11.46471         0.000000      0.000000      0.462358
      3.96471      4.12085      7.50000        -0.000000     -0.000000     -0.271248
      0.00000      6.16421      9.48987        -0.000000      0.026461     -0.215831
      3.96471      6.16421     13.45458         0.000000      0.012206      0.077372
      0.00000      2.07750      9.48987        -0.000000     -0.026461     -0.215831
      3.96471      2.07750     13.45458         0.000000     -0.012206      0.077372
      5.95458      6.16421     11.46471        -0.010684      0.083217      0.345106
      1.98987      6.16421      7.50000        -0.003607     -0.071187      0.077250
      5.95458      2.07750     11.46471        -0.010684     -0.083217      0.345106
      1.98987      2.07750      7.50000        -0.003607      0.071187      0.077250
      1.97485      6.16421     11.46471         0.010684      0.083217      0.345106
      5.93956      6.16421      7.50000         0.003607     -0.071187      0.077250
      1.97485      2.07750     11.46471         0.010684     -0.083217      0.345106
      5.93956      2.07750      7.50000         0.003607      0.071187      0.077250
      0.00000      6.16421     13.43956         0.000000      0.218483      0.043803
      3.96471      6.16421      9.47485         0.000000      0.088175     -0.194889
      0.00000      2.07750     13.43956        -0.000000     -0.218483      0.043803
      3.96471      2.07750      9.47485        -0.000000     -0.088175     -0.194889
 -----------------------------------------------------------------------------------
    total drift:                                0.000000      0.000000     -0.001350


--------------------------------------------------------------------------------------------------------



  FREE ENERGIE OF THE ION-ELECTRON SYSTEM (eV)
  ---------------------------------------------------
  free  energy   TOTEN  =      -173.98589989 eV

  energy  without entropy=     -173.98166188  energy(sigma->0) =     -173.98448722
 


--------------------------------------------------------------------------------------------------------


    POTLOK:  cpu time      0.0353: real time      0.0353


--------------------------------------------------------------------------------------------------------


 writing wavefunctions
     LOOP+:  cpu time    261.0251: real time    261.0510
    4ORBIT:  cpu time      0.0000: real time      0.0000

 total amount of memory used by VASP MPI-rank0   225770. kBytes
=======================================================================

   base                                    :      30000. kBytes
   nonl-proj                               :     162483. kBytes
   fftplans                                :       2581. kBytes
   grid                                    :      14063. kBytes
   one-center                              :        497. kBytes
   wavefun                                 :      16146. kBytes
 
  
  
 General timing and accounting informations for this job:
 ========================================================
  
                  Total CPU time used (sec):      268.825
                            User time (sec):      255.568
                          System time (sec):       13.257
                         Elapsed time (sec):      269.105
  
                   Maximum memory used (kb):      420220.
                   Average memory used (kb):          N/A
  
                          Minor page faults:        75589
                          Major page faults:           17
                 Voluntary context switches:          140
