<?xml version="1.0" encoding="ISO-8859-1"?>
<modeling>
 <generator>
  <i name="program" type="string">vasp </i>
  <i name="version" type="string">6.5.0  </i>
  <i name="subversion" type="string">16Dec24 (build Apr 17 2025 17:55:45) complex                          parallel </i>
  <i name="platform" type="string">LinuxIFC </i>
  <i name="date" type="string">2025 06 10 </i>
  <i name="time" type="string">15:03:05 </i>
 </generator>
 <incar>
  <i type="int" name="ISTART">     0</i>
  <i type="string" name="PREC">N</i>
  <i type="string" name="ALGO">N</i>
  <i type="int" name="ICHARG">     2</i>
  <i type="int" name="NELM">   500</i>
  <i type="int" name="IBRION">    -1</i>
  <i name="EDIFF">      0.00001000</i>
  <i name="EDIFFG">     -0.01000000</i>
  <i type="int" name="NSW">     0</i>
  <i type="int" name="ISIF">     3</i>
  <i name="ENCUT">    520.00000000</i>
  <i type="logical" name="LREAL"> F  </i>
  <i type="int" name="ISMEAR">     1</i>
  <i name="SIGMA">      0.10000000</i>
  <i type="logical" name="LVTOT"> T  </i>
  <i type="logical" name="LVHAR"> T  </i>
 </incar>
 <primitive_cell>
  <structure name="primitive_cell" >
   <crystal>
    <varray name="basis" >
     <v>       7.92942752       0.00000000       0.00000000 </v>
     <v>       0.00000000       8.24170653       0.00000000 </v>
     <v>       0.00000000       0.00000000      20.95457887 </v>
    </varray>
    <i name="volume">   1369.42394383 </i>
    <varray name="rec_basis" >
     <v>       0.12611251      -0.00000000      -0.00000000 </v>
     <v>       0.00000000       0.12133409      -0.00000000 </v>
     <v>       0.00000000       0.00000000       0.04772227 </v>
    </varray>
   </crystal>
   <varray name="positions" >
    <v>       0.00000000       0.00000000       0.35791700 </v>
    <v>       0.50000000       0.00000000       0.54712213 </v>
    <v>       0.00000000       0.50000000       0.35791700 </v>
    <v>       0.50000000       0.50000000       0.54712213 </v>
    <v>       0.75000000       0.00000000       0.45251956 </v>
    <v>       0.25000000       0.00000000       0.64172469 </v>
    <v>       0.75000000       0.50000000       0.45251956 </v>
    <v>       0.25000000       0.50000000       0.64172469 </v>
    <v>       0.25000000       0.00000000       0.45251956 </v>
    <v>       0.75000000       0.00000000       0.64172469 </v>
    <v>       0.25000000       0.50000000       0.45251956 </v>
    <v>       0.75000000       0.50000000       0.64172469 </v>
    <v>       0.00000000       0.00000000       0.54712213 </v>
    <v>       0.50000000       0.00000000       0.35791700 </v>
    <v>       0.00000000       0.50000000       0.54712213 </v>
    <v>       0.50000000       0.50000000       0.35791700 </v>
    <v>       0.00000000       0.74792877       0.45287787 </v>
    <v>       0.50000000       0.74792877       0.64208300 </v>
    <v>       0.00000000       0.25207123       0.45287787 </v>
    <v>       0.50000000       0.25207123       0.64208300 </v>
    <v>       0.75094688       0.74792877       0.54712213 </v>
    <v>       0.25094688       0.74792877       0.35791700 </v>
    <v>       0.75094688       0.25207123       0.54712213 </v>
    <v>       0.25094688       0.25207123       0.35791700 </v>
    <v>       0.24905312       0.74792877       0.54712213 </v>
    <v>       0.74905312       0.74792877       0.35791700 </v>
    <v>       0.24905312       0.25207123       0.54712213 </v>
    <v>       0.74905312       0.25207123       0.35791700 </v>
    <v>       0.00000000       0.74792877       0.64136638 </v>
    <v>       0.50000000       0.74792877       0.45216125 </v>
    <v>       0.00000000       0.25207123       0.64136638 </v>
    <v>       0.50000000       0.25207123       0.45216125 </v>
   </varray>
  </structure>
  <varray name="primitive_index" >
   <v type="int" >        1 </v>
   <v type="int" >        2 </v>
   <v type="int" >        3 </v>
   <v type="int" >        4 </v>
   <v type="int" >        5 </v>
   <v type="int" >        6 </v>
   <v type="int" >        7 </v>
   <v type="int" >        8 </v>
   <v type="int" >        9 </v>
   <v type="int" >       10 </v>
   <v type="int" >       11 </v>
   <v type="int" >       12 </v>
   <v type="int" >       13 </v>
   <v type="int" >       14 </v>
   <v type="int" >       15 </v>
   <v type="int" >       16 </v>
   <v type="int" >       17 </v>
   <v type="int" >       18 </v>
   <v type="int" >       19 </v>
   <v type="int" >       20 </v>
   <v type="int" >       21 </v>
   <v type="int" >       22 </v>
   <v type="int" >       23 </v>
   <v type="int" >       24 </v>
   <v type="int" >       25 </v>
   <v type="int" >       26 </v>
   <v type="int" >       27 </v>
   <v type="int" >       28 </v>
   <v type="int" >       29 </v>
   <v type="int" >       30 </v>
   <v type="int" >       31 </v>
   <v type="int" >       32 </v>
  </varray>
 </primitive_cell>
 <kpoints>
  <generation param="Gamma">
   <v type="int" name="divisions">       4        4        1 </v>
   <v name="usershift">      0.00000000       0.00000000       0.00000000 </v>
   <v name="genvec1">      0.25000000       0.00000000       0.00000000 </v>
   <v name="genvec2">      0.00000000       0.25000000       0.00000000 </v>
   <v name="genvec3">      0.00000000       0.00000000       1.00000000 </v>
   <v name="shift">      0.00000000       0.00000000       0.00000000 </v>
  </generation>
  <varray name="kpointlist" >
   <v>       0.00000000       0.00000000       0.00000000 </v>
   <v>       0.25000000       0.00000000       0.00000000 </v>
   <v>       0.50000000       0.00000000       0.00000000 </v>
   <v>       0.00000000       0.25000000       0.00000000 </v>
   <v>       0.25000000       0.25000000       0.00000000 </v>
   <v>       0.50000000       0.25000000       0.00000000 </v>
   <v>       0.00000000       0.50000000       0.00000000 </v>
   <v>       0.25000000       0.50000000       0.00000000 </v>
   <v>       0.50000000       0.50000000       0.00000000 </v>
  </varray>
  <varray name="weights" >
   <v>       0.06250000 </v>
   <v>       0.12500000 </v>
   <v>       0.06250000 </v>
   <v>       0.12500000 </v>
   <v>       0.25000000 </v>
   <v>       0.12500000 </v>
   <v>       0.06250000 </v>
   <v>       0.12500000 </v>
   <v>       0.06250000 </v>
  </varray>
 </kpoints>
 <parameters>
  <separator name="general" >
   <i type="string" name="SYSTEM">unknown system</i>
   <i type="logical" name="LCOMPAT"> F  </i>
  </separator>
  <separator name="electronic" >
   <i type="string" name="PREC">n</i>
   <i name="ENMAX">    520.00000000</i>
   <i name="ENAUG">    490.69000000</i>
   <i name="EDIFF">      0.00001000</i>
   <i type="int" name="IALGO">    38</i>
   <i type="int" name="IWAVPR">    10</i>
   <i type="int" name="NBANDS">   192</i>
   <i type="int" name="NBANDSLOW">    -1</i>
   <i type="int" name="NBANDSHIGH">    -1</i>
   <i name="NELECT">    242.00000000</i>
   <i type="int" name="TURBO">     0</i>
   <i type="int" name="IRESTART">     0</i>
   <i type="int" name="NREBOOT">     0</i>
   <i type="int" name="NMIN">     0</i>
   <i name="EREF">      0.00000000</i>
   <separator name="electronic smearing" >
    <i type="int" name="ISMEAR">     1</i>
    <i name="SIGMA">      0.10000000</i>
    <i name="KSPACING">      0.50000000</i>
    <i type="logical" name="KGAMMA"> T  </i>
    <i type="logical" name="KBLOWUP"> T  </i>
   </separator>
   <separator name="electronic projectors" >
    <i type="logical" name="LREAL"> F  </i>
    <v name="ROPT">      0.00000000      0.00000000      0.00000000</v>
    <i type="int" name="LMAXPAW">  -100</i>
    <i type="int" name="LMAXMIX">     2</i>
    <i type="logical" name="NLSPLINE"> F  </i>
   </separator>
   <separator name="electronic startup" >
    <i type="int" name="ISTART">     0</i>
    <i type="int" name="ICHARG">     2</i>
    <i type="int" name="INIWAV">     1</i>
   </separator>
   <separator name="electronic spin" >
    <i type="int" name="ISPIN">     1</i>
    <i type="logical" name="LNONCOLLINEAR"> F  </i>
    <v name="MAGMOM">      1.00000000      1.00000000      1.00000000      1.00000000      1.00000000      1.00000000      1.00000000      1.00000000      1.00000000      1.00000000      1.00000000      1.00000000      1.00000000      1.00000000      1.00000000      1.00000000      1.00000000      1.00000000      1.00000000      1.00000000
      1.00000000      1.00000000      1.00000000      1.00000000      1.00000000      1.00000000      1.00000000      1.00000000      1.00000000      1.00000000      1.00000000      1.00000000</v>
    <i name="NUPDOWN">     -1.00000000</i>
    <i type="logical" name="LSORBIT"> F  </i>
    <v name="SAXIS">      0.00000000      0.00000000      1.00000000</v>
    <i type="logical" name="LSPIRAL"> F  </i>
    <v name="QSPIRAL">      0.00000000      0.00000000      0.00000000</v>
    <i type="logical" name="LZEROZ"> F  </i>
   </separator>
   <separator name="electronic exchange-correlation" >
    <i type="logical" name="LASPH"> F  </i>
   </separator>
   <separator name="electronic convergence" >
    <i type="int" name="NELM">   500</i>
    <i type="int" name="NELMDL">    -5</i>
    <i type="int" name="NELMIN">     2</i>
    <i name="ENINI">    520.00000000</i>
    <separator name="electronic convergence detail" >
     <i type="logical" name="LDIAG"> T  </i>
     <i type="logical" name="LSUBROT"> F  </i>
     <i name="WEIMIN">      0.00000000</i>
     <i name="EBREAK">      0.00000001</i>
     <i name="DEPER">      0.30000000</i>
     <i type="int" name="NRMM">     4</i>
     <i name="TIME">      0.40000000</i>
    </separator>
   </separator>
   <separator name="electronic mixer" >
    <i name="AMIX">      0.40000000</i>
    <i name="BMIX">      1.00000000</i>
    <i name="AMIN">      0.10000000</i>
    <i name="AMIX_MAG">      1.60000000</i>
    <i name="BMIX_MAG">      1.00000000</i>
    <separator name="electronic mixer details" >
     <i type="int" name="IMIX">     4</i>
     <i type="logical" name="MIXFIRST"> F  </i>
     <i type="int" name="MAXMIX">   -45</i>
     <i name="WC">    100.00000000</i>
     <i type="int" name="INIMIX">     1</i>
     <i type="int" name="MIXPRE">     1</i>
     <i type="int" name="MREMOVE">     5</i>
    </separator>
   </separator>
   <separator name="electronic dipolcorrection" >
    <i type="logical" name="LDIPOL"> F  </i>
    <i type="logical" name="LMONO"> F  </i>
    <i type="int" name="IDIPOL">     0</i>
    <i name="EPSILON">      1.00000000</i>
    <v name="DIPOL">   -100.00000000   -100.00000000   -100.00000000</v>
    <i name="EFIELD">      0.00000000</i>
    <i type="logical" name="LVACPOTAV"> F  </i>
   </separator>
  </separator>
  <separator name="grids" >
   <i type="int" name="NGX">    48</i>
   <i type="int" name="NGY">    48</i>
   <i type="int" name="NGZ">   120</i>
   <i type="int" name="NGXF">    96</i>
   <i type="int" name="NGYF">    96</i>
   <i type="int" name="NGZF">   240</i>
   <i type="logical" name="ADDGRID"> F  </i>
  </separator>
  <separator name="ionic" >
   <i type="int" name="NSW">     0</i>
   <i type="int" name="IBRION">    -1</i>
   <i type="int" name="MDALGO">     0</i>
   <i type="int" name="ISIF">     3</i>
   <i name="PSTRESS">      0.00000000</i>
   <i name="EDIFFG">     -0.01000000</i>
   <i type="int" name="NFREE">     0</i>
   <i name="POTIM">      0.50000000</i>
   <i name="SMASS">     -3.00000000</i>
   <i name="SCALEE">      1.00000000</i>
  </separator>
  <separator name="ionic md" >
   <i name="TEBEG">      0.00010000</i>
   <i name="TEEND">      0.00010000</i>
   <i type="int" name="NBLOCK">     1</i>
   <i type="int" name="KBLOCK">     1</i>
   <i type="int" name="NPACO">   256</i>
   <i name="APACO">     10.00000000</i>
  </separator>
  <separator name="symmetry" >
   <i type="int" name="ISYM">     2</i>
   <i name="SYMPREC">      0.00001000</i>
  </separator>
  <separator name="dos" >
   <i type="int" name="LORBIT">     0</i>
   <v name="RWIGS">     -1.00000000     -1.00000000     -1.00000000</v>
   <i type="int" name="NEDOS">   301</i>
   <i name="EMIN">     10.00000000</i>
   <i name="EMAX">    -10.00000000</i>
   <i name="EFERMI">      0.00000000</i>
  </separator>
  <separator name="writing" >
   <i type="int" name="NWRITE">     2</i>
   <i type="logical" name="LWAVE"> T  </i>
   <i type="logical" name="LDOWNSAMPLE"> F  </i>
   <i type="logical" name="LCHARG"> T  </i>
   <i type="logical" name="LPARD"> F  </i>
   <i type="logical" name="LVTOT"> F  </i>
   <i type="logical" name="LVHAR"> T  </i>
   <i type="logical" name="LELF"> F  </i>
   <i type="logical" name="LOPTICS"> F  </i>
   <v name="STM">      0.00000000      0.00000000      0.00000000      0.00000000      0.00000000      0.00000000      0.00000000</v>
  </separator>
  <separator name="performance" >
   <i type="int" name="NPAR">    64</i>
   <i type="int" name="NSIM">     4</i>
   <i type="int" name="NBLK">    -1</i>
   <i type="logical" name="LPLANE"> T  </i>
   <i type="logical" name="LSCALAPACK"> T  </i>
   <i type="logical" name="LSCAAWARE"> F  </i>
   <i type="logical" name="LSCALU"> F  </i>
   <i type="logical" name="LASYNC"> F  </i>
   <i type="logical" name="LORBITALREAL"> F  </i>
  </separator>
  <separator name="miscellaneous" >
   <i type="int" name="IDIOT">     3</i>
   <i type="int" name="PHON_NSTRUCT">    -1</i>
   <i type="logical" name="LMUSIC"> F  </i>
   <v name="POMASS">     69.72300000     47.88000000     26.98100000</v>
   <v name="DARWINR">      0.00000000      0.00000000      0.00000000</v>
   <v name="DARWINV">      1.00000000      1.00000000      1.00000000</v>
   <i type="logical" name="LCORR"> T  </i>
  </separator>
  <i type="logical" name="GGA_COMPAT"> T  </i>
  <i type="logical" name="LBERRY"> F  </i>
  <i type="int" name="ICORELEVEL">     0</i>
  <i type="logical" name="LDAU"> F  </i>
  <i type="int" name="I_CONSTRAINED_M">     0</i>
  <separator name="electronic exchange-correlation" >
   <i type="string" name="GGA    ">PE</i>
   <i type="string" name="XC_C">1</i>
   <i type="int" name="VOSKOWN">     0</i>
   <i type="logical" name="LHFCALC"> F  </i>
   <i type="string" name="PRECFOCK"></i>
   <i type="logical" name="LSYMGRAD"> F  </i>
   <i type="logical" name="LHFONE"> F  </i>
   <i type="logical" name="LRHFCALC"> F  </i>
   <i type="logical" name="LTHOMAS"> F  </i>
   <i type="logical" name="LMODELHF"> F  </i>
   <i type="logical" name="LFOCKACE"> F  </i>
   <i name="ENCUT4O">     -1.00000000</i>
   <i type="int" name="EXXOEP">     0</i>
   <i type="int" name="FOURORBIT">     0</i>
   <i name="AEXX">      0.00000000</i>
   <i name="HFALPHA">      0.00000000</i>
   <i name="MCALPHA">      0.00000000</i>
   <i name="ALDAX">      1.00000000</i>
   <i name="AGGAX">      1.00000000</i>
   <i name="AMGGAX">      1.00000000</i>
   <i name="ALDAC">      1.00000000</i>
   <i name="AGGAC">      1.00000000</i>
   <i name="AMGGAC">      1.00000000</i>
   <i type="int" name="NKREDX">     1</i>
   <i type="int" name="NKREDY">     1</i>
   <i type="int" name="NKREDZ">     1</i>
   <i type="logical" name="SHIFTRED"> F  </i>
   <i type="logical" name="ODDONLY"> F  </i>
   <i type="logical" name="EVENONLY"> F  </i>
   <i type="int" name="LMAXFOCK">     0</i>
   <i type="int" name="NMAXFOCKAE">     0</i>
   <i type="logical" name="LFOCKAEDFT"> F  </i>
   <i name="HFSCREEN">      0.00000000</i>
   <i name="HFSCREENC">      0.00000000</i>
   <i type="int" name="NBANDSGWLOW">     0</i>
  </separator>
  <separator name="vdW DFT" >
   <i type="logical" name="LUSE_VDW"> F  </i>
   <i type="int" name="IVDW_NL">    -1</i>
   <i type="logical" name="LSPIN_VDW"> F  </i>
   <i name="ZAB_VDW">     -0.84910000</i>
   <i name="GAMMA_VDW">      1.39626340</i>
   <i name="ALPHA_VDW">      0.00000000</i>
   <i name="PARAM1">      0.12340000</i>
   <i name="PARAM2">      1.00000000</i>
   <i name="BPARAM">      6.30000000</i>
   <i name="CPARAM">      0.00930000</i>
  </separator>
  <separator name="model GW" >
   <i type="int" name="MODEL_GW">     0</i>
   <i name="MODEL_EPS0">     25.67669895</i>
   <i name="MODEL_ALPHA">      1.00000000</i>
  </separator>
  <separator name="linear response parameters" >
   <i type="logical" name="LEPSILON"> F  </i>
   <i type="logical" name="LRPA"> F  </i>
   <i type="logical" name="LNABLA"> F  </i>
   <i type="logical" name="LVEL"> F  </i>
   <i name="CSHIFT">      0.10000000</i>
   <i name="OMEGAMAX">     -1.00000000</i>
   <i name="DEG_THRESHOLD">      0.00200000</i>
   <i name="RTIME">     -0.10000000</i>
   <i name="WPLASMAI">      0.00000000</i>
   <v name="DFIELD">      0.00000000      0.00000000      0.00000000</v>
   <v name="WPLASMA">      0.00000000      0.00000000      0.00000000      0.00000000      0.00000000      0.00000000      0.00000000      0.00000000      0.00000000</v>
  </separator>
  <separator name="orbital magnetization" >
   <i type="logical" name="NUCIND"> F  </i>
   <v name="MAGPOS">      0.00000000      0.00000000      0.00000000</v>
   <i type="logical" name="LNICSALL"> T  </i>
   <i type="logical" name="ORBITALMAG"> F  </i>
   <i type="logical" name="LMAGBLOCH"> F  </i>
   <i type="logical" name="LCHIMAG"> F  </i>
   <i type="logical" name="LGAUGE"> T  </i>
   <i type="int" name="MAGATOM">     0</i>
   <v name="MAGDIPOL">      0.00000000      0.00000000      0.00000000</v>
   <v name="AVECCONST">      0.00000000      0.00000000      0.00000000</v>
  </separator>
  <separator name="response functions" >
   <i type="logical" name="LALL_IN_ONE"> F  </i>
   <i type="int" name="IALL_IN_ONE">    -1</i>
   <i type="int" name="NBANDS_WAVE">    -1</i>
   <i type="logical" name="LFINITE_TEMPERATURE"> F  </i>
   <i type="logical" name="LADDER"> F  </i>
   <i type="logical" name="LRPAFORCE"> F  </i>
   <i type="logical" name="LFXC"> F  </i>
   <i type="logical" name="LHARTREE"> T  </i>
   <i type="int" name="IBSE">     2</i>
   <v type="int" name="KPOINT">    -1     0     0     0</v>
   <i type="logical" name="LTCTC"> F  </i>
   <i type="logical" name="LTCTE"> F  </i>
   <i type="logical" name="LTETE"> F  </i>
   <i type="logical" name="LTRIPLET"> F  </i>
   <i type="logical" name="LFXCEPS"> F  </i>
   <i type="logical" name="LFXHEG"> F  </i>
   <i type="int" name="NATURALO">     2</i>
   <i type="logical" name="LHOLEGF"> F  </i>
   <i type="logical" name="L2ORDER"> F  </i>
   <i type="logical" name="LDMP1"> F  </i>
   <i type="logical" name="LMP2LT"> F  </i>
   <i type="logical" name="LSMP2LT"> F  </i>
   <i type="logical" name="LGWLF"> F  </i>
   <i name="ENCUTGW">     -1.60000002</i>
   <i name="ENCUTGWSOFT">     -1.60000002</i>
   <i name="ENCUTLF">     -1.00000000</i>
   <i type="logical" name="ESF_SPLINES"> F  </i>
   <i name="ESF_CONV">      0.01000000</i>
   <i type="int" name="ESF_NINTER">    15</i>
   <i type="int" name="LMAXMP2">    -1</i>
   <i name="SCISSOR">      0.00000000</i>
   <i type="int" name="NOMEGA">     0</i>
   <i type="int" name="NOMEGAR">     0</i>
   <i type="int" name="NBANDSGW">    -1</i>
   <i type="int" name="NBANDSO">    -1</i>
   <i type="int" name="NBANDSV">    -1</i>
   <i type="int" name="NELMGW">     1</i>
   <i type="int" name="NELMHF">     1</i>
   <i type="int" name="DIM">     3</i>
   <i type="int" name="IESPILON">     4</i>
   <i type="int" name="ANTIRES">     0</i>
   <i name="OMEGAMAX">    -30.00000000</i>
   <i name="OMEGAMIN">    -30.00000000</i>
   <i name="OMEGATL">   -200.00000000</i>
   <i type="int" name="OMEGAGRID">     0</i>
   <i name="CSHIFT">     -0.10000000</i>
   <i type="logical" name="LSELFENERGY"> F  </i>
   <i type="logical" name="LSPECTRAL"> F  </i>
   <i type="logical" name="LSPECTRALGW"> F  </i>
   <i type="logical" name="LSINGLES"> F  </i>
   <i type="logical" name="LFERMIGW"> F  </i>
   <i type="logical" name="ODDONLYGW"> F  </i>
   <i type="logical" name="EVENONLYGW"> F  </i>
   <i type="int" name="NKREDLFX">     1</i>
   <i type="int" name="NKREDLFY">     1</i>
   <i type="int" name="NKREDLFZ">     1</i>
   <i type="int" name="MAXMEM">  2800</i>
   <i type="int" name="TELESCOPE">     0</i>
   <i type="int" name="NTAUPAR">    -1</i>
   <i type="int" name="NOMEGAPAR">    -1</i>
   <i name="DAMP_NEWTON">      0.80000001</i>
   <i name="LAMBDA">      1.00000000</i>
  </separator>
  <separator name="External order field" >
   <i name="OFIELD_KAPPA">      0.00000000</i>
   <v name="OFIELD_K">      0.00000000      0.00000000      0.00000000</v>
   <i name="OFIELD_Q6_NEAR">      0.00000000</i>
   <i name="OFIELD_Q6_FAR">      0.00000000</i>
   <i name="OFIELD_A">      0.00000000</i>
  </separator>
  <separator name="optional k-points parameters" >
   <i type="int" name="KPOINTS_OPT_MODE">     1</i>
   <i type="logical" name="LKPOINTS_OPT"> F  </i>
  </separator>
 </parameters>
 <atominfo>
  <atoms>      32 </atoms>
  <types>       3 </types>
  <array name="atoms" >
   <dimension dim="1">ion</dimension>
   <field type="string">element</field>
   <field type="int">atomtype</field>
   <set>
    <rc><c>Ga</c><c>   1</c></rc>
    <rc><c>Ga</c><c>   1</c></rc>
    <rc><c>Ti</c><c>   2</c></rc>
    <rc><c>Ti</c><c>   2</c></rc>
    <rc><c>Ti</c><c>   2</c></rc>
    <rc><c>Ti</c><c>   2</c></rc>
    <rc><c>Ti</c><c>   2</c></rc>
    <rc><c>Ti</c><c>   2</c></rc>
    <rc><c>Ti</c><c>   2</c></rc>
    <rc><c>Ti</c><c>   2</c></rc>
    <rc><c>Ti</c><c>   2</c></rc>
    <rc><c>Ti</c><c>   2</c></rc>
    <rc><c>Ti</c><c>   2</c></rc>
    <rc><c>Ti</c><c>   2</c></rc>
    <rc><c>Ti</c><c>   2</c></rc>
    <rc><c>Ti</c><c>   2</c></rc>
    <rc><c>Al</c><c>   3</c></rc>
    <rc><c>Al</c><c>   3</c></rc>
    <rc><c>Al</c><c>   3</c></rc>
    <rc><c>Al</c><c>   3</c></rc>
    <rc><c>Al</c><c>   3</c></rc>
    <rc><c>Al</c><c>   3</c></rc>
    <rc><c>Al</c><c>   3</c></rc>
    <rc><c>Al</c><c>   3</c></rc>
    <rc><c>Al</c><c>   3</c></rc>
    <rc><c>Al</c><c>   3</c></rc>
    <rc><c>Al</c><c>   3</c></rc>
    <rc><c>Al</c><c>   3</c></rc>
    <rc><c>Al</c><c>   3</c></rc>
    <rc><c>Al</c><c>   3</c></rc>
    <rc><c>Al</c><c>   3</c></rc>
    <rc><c>Al</c><c>   3</c></rc>
   </set>
  </array>
  <array name="atomtypes" >
   <dimension dim="1">type</dimension>
   <field type="int">atomspertype</field>
   <field type="string">element</field>
   <field>mass</field>
   <field>valence</field>
   <field type="string">pseudopotential</field>
   <set>
    <rc><c>   2</c><c>Ga</c><c>     69.72300000</c><c>     13.00000000</c><c>  PAW_PBE Ga_d 06Jul2010                </c></rc>
    <rc><c>  14</c><c>Ti</c><c>     47.88000000</c><c>     12.00000000</c><c>  PAW_PBE Ti_sv 26Sep2005               </c></rc>
    <rc><c>  16</c><c>Al</c><c>     26.98100000</c><c>      3.00000000</c><c>  PAW_PBE Al 04Jan2001                  </c></rc>
   </set>
  </array>
 </atominfo>
 <structure name="initialpos" >
  <crystal>
   <varray name="basis" >
    <v>       7.92942752       0.00000000       0.00000000 </v>
    <v>       0.00000000       8.24170653       0.00000000 </v>
    <v>       0.00000000       0.00000000      20.95457887 </v>
   </varray>
   <i name="volume">   1369.42394383 </i>
   <varray name="rec_basis" >
    <v>       0.12611251      -0.00000000      -0.00000000 </v>
    <v>       0.00000000       0.12133409      -0.00000000 </v>
    <v>       0.00000000       0.00000000       0.04772227 </v>
   </varray>
  </crystal>
  <varray name="positions" >
   <v>       0.00000000       0.00000000       0.35791700 </v>
   <v>       0.50000000       0.00000000       0.54712213 </v>
   <v>       0.00000000       0.50000000       0.35791700 </v>
   <v>       0.50000000       0.50000000       0.54712213 </v>
   <v>       0.75000000       0.00000000       0.45251956 </v>
   <v>       0.25000000       0.00000000       0.64172469 </v>
   <v>       0.75000000       0.50000000       0.45251956 </v>
   <v>       0.25000000       0.50000000       0.64172469 </v>
   <v>       0.25000000       0.00000000       0.45251956 </v>
   <v>       0.75000000       0.00000000       0.64172469 </v>
   <v>       0.25000000       0.50000000       0.45251956 </v>
   <v>       0.75000000       0.50000000       0.64172469 </v>
   <v>       0.00000000       0.00000000       0.54712213 </v>
   <v>       0.50000000       0.00000000       0.35791700 </v>
   <v>       0.00000000       0.50000000       0.54712213 </v>
   <v>       0.50000000       0.50000000       0.35791700 </v>
   <v>       0.00000000       0.74792877       0.45287787 </v>
   <v>       0.50000000       0.74792877       0.64208300 </v>
   <v>       0.00000000       0.25207123       0.45287787 </v>
   <v>       0.50000000       0.25207123       0.64208300 </v>
   <v>       0.75094688       0.74792877       0.54712213 </v>
   <v>       0.25094688       0.74792877       0.35791700 </v>
   <v>       0.75094688       0.25207123       0.54712213 </v>
   <v>       0.25094688       0.25207123       0.35791700 </v>
   <v>       0.24905312       0.74792877       0.54712213 </v>
   <v>       0.74905312       0.74792877       0.35791700 </v>
   <v>       0.24905312       0.25207123       0.54712213 </v>
   <v>       0.74905312       0.25207123       0.35791700 </v>
   <v>       0.00000000       0.74792877       0.64136638 </v>
   <v>       0.50000000       0.74792877       0.45216125 </v>
   <v>       0.00000000       0.25207123       0.64136638 </v>
   <v>       0.50000000       0.25207123       0.45216125 </v>
  </varray>
 </structure>
 <calculation>
  <scstep>
   <time name="dav">    5.64    5.64</time>
   <time name="total">    5.68    5.68</time>
   <energy>
    <i name="alphaZ">    238.52296072 </i>
    <i name="ewald">  39200.44369667 </i>
    <i name="hartreedc"> -62806.45940703 </i>
    <i name="XCdc">    528.24178362 </i>
    <i name="pawpsdc">  21969.42663437 </i>
    <i name="pawaedc"> -21851.07168476 </i>
    <i name="eentropy">     -0.00341722 </i>
    <i name="bandstr">  -2497.95165481 </i>
    <i name="atom">  27387.45954937 </i>
    <i name="e_fr_energy">   2168.60846093 </i>
    <i name="e_wo_entrp">   2168.61187815 </i>
    <i name="e_0_energy">   2168.60960000 </i>
   </energy>
  </scstep>
  <scstep>
   <time name="dav">    5.74    5.75</time>
   <time name="total">    5.75    5.75</time>
   <energy>
    <i name="e_fr_energy">     56.91917112 </i>
    <i name="e_wo_entrp">     56.92887404 </i>
    <i name="e_0_energy">     56.92240542 </i>
   </energy>
  </scstep>
  <scstep>
   <time name="dav">   11.59   11.59</time>
   <time name="total">   11.59   11.59</time>
   <energy>
    <i name="e_fr_energy">   -176.30807404 </i>
    <i name="e_wo_entrp">   -176.30198840 </i>
    <i name="e_0_energy">   -176.30604550 </i>
   </energy>
  </scstep>
  <scstep>
   <time name="dav">    8.52    8.52</time>
   <time name="total">    8.52    8.52</time>
   <energy>
    <i name="e_fr_energy">   -205.89274498 </i>
    <i name="e_wo_entrp">   -205.88612286 </i>
    <i name="e_0_energy">   -205.89053761 </i>
   </energy>
  </scstep>
  <scstep>
   <time name="dav">    9.29    9.29</time>
   <time name="total">    9.40    9.40</time>
   <energy>
    <i name="e_fr_energy">   -208.44835996 </i>
    <i name="e_wo_entrp">   -208.44089202 </i>
    <i name="e_0_energy">   -208.44587065 </i>
   </energy>
  </scstep>
  <scstep>
   <time name="dav">    7.70    7.70</time>
   <time name="total">    7.85    7.85</time>
   <energy>
    <i name="e_fr_energy">   -211.90735068 </i>
    <i name="e_wo_entrp">   -211.89035908 </i>
    <i name="e_0_energy">   -211.90168681 </i>
   </energy>
  </scstep>
  <scstep>
   <time name="dav">    8.56    8.56</time>
   <time name="total">    8.71    8.71</time>
   <energy>
    <i name="e_fr_energy">   -198.64797246 </i>
    <i name="e_wo_entrp">   -198.64548795 </i>
    <i name="e_0_energy">   -198.64714429 </i>
   </energy>
  </scstep>
  <scstep>
   <time name="dav">    8.66    8.66</time>
   <time name="total">    8.80    8.80</time>
   <energy>
    <i name="e_fr_energy">   -183.56216759 </i>
    <i name="e_wo_entrp">   -183.56004212 </i>
    <i name="e_0_energy">   -183.56145910 </i>
   </energy>
  </scstep>
  <scstep>
   <time name="dav">    8.61    8.61</time>
   <time name="total">    8.75    8.76</time>
   <energy>
    <i name="e_fr_energy">   -179.49249437 </i>
    <i name="e_wo_entrp">   -179.49831145 </i>
    <i name="e_0_energy">   -179.49443340 </i>
   </energy>
  </scstep>
  <scstep>
   <time name="dav">    8.43    8.43</time>
   <time name="total">    8.57    8.57</time>
   <energy>
    <i name="e_fr_energy">   -176.23490267 </i>
    <i name="e_wo_entrp">   -176.25426303 </i>
    <i name="e_0_energy">   -176.24135612 </i>
   </energy>
  </scstep>
  <scstep>
   <time name="dav">    8.31    8.31</time>
   <time name="total">    8.46    8.46</time>
   <energy>
    <i name="e_fr_energy">   -174.69300922 </i>
    <i name="e_wo_entrp">   -174.68534084 </i>
    <i name="e_0_energy">   -174.69045309 </i>
   </energy>
  </scstep>
  <scstep>
   <time name="dav">    9.52    9.52</time>
   <time name="total">    9.67    9.67</time>
   <energy>
    <i name="e_fr_energy">   -174.40605895 </i>
    <i name="e_wo_entrp">   -174.41082161 </i>
    <i name="e_0_energy">   -174.40764650 </i>
   </energy>
  </scstep>
  <scstep>
   <time name="dav">    8.40    8.40</time>
   <time name="total">    8.54    8.54</time>
   <energy>
    <i name="e_fr_energy">   -174.23028590 </i>
    <i name="e_wo_entrp">   -174.24016983 </i>
    <i name="e_0_energy">   -174.23358054 </i>
   </energy>
  </scstep>
  <scstep>
   <time name="dav">    8.24    8.24</time>
   <time name="total">    8.39    8.39</time>
   <energy>
    <i name="e_fr_energy">   -174.19737608 </i>
    <i name="e_wo_entrp">   -174.19613387 </i>
    <i name="e_0_energy">   -174.19696201 </i>
   </energy>
  </scstep>
  <scstep>
   <time name="dav">    8.39    8.39</time>
   <time name="total">    8.53    8.54</time>
   <energy>
    <i name="e_fr_energy">   -174.01344723 </i>
    <i name="e_wo_entrp">   -174.01087733 </i>
    <i name="e_0_energy">   -174.01259060 </i>
   </energy>
  </scstep>
  <scstep>
   <time name="dav">    8.19    8.19</time>
   <time name="total">    8.34    8.34</time>
   <energy>
    <i name="e_fr_energy">   -174.02198019 </i>
    <i name="e_wo_entrp">   -174.01638787 </i>
    <i name="e_0_energy">   -174.02011609 </i>
   </energy>
  </scstep>
  <scstep>
   <time name="dav">    8.27    8.27</time>
   <time name="total">    8.42    8.42</time>
   <energy>
    <i name="e_fr_energy">   -173.98303312 </i>
    <i name="e_wo_entrp">   -173.98011974 </i>
    <i name="e_0_energy">   -173.98206199 </i>
   </energy>
  </scstep>
  <scstep>
   <time name="dav">    8.16    8.16</time>
   <time name="total">    8.31    8.31</time>
   <energy>
    <i name="e_fr_energy">   -173.98469523 </i>
    <i name="e_wo_entrp">   -173.97952288 </i>
    <i name="e_0_energy">   -173.98297111 </i>
   </energy>
  </scstep>
  <scstep>
   <time name="dav">    7.83    7.83</time>
   <time name="total">    7.97    7.97</time>
   <energy>
    <i name="e_fr_energy">   -173.98350840 </i>
    <i name="e_wo_entrp">   -173.97995250 </i>
    <i name="e_0_energy">   -173.98232310 </i>
   </energy>
  </scstep>
  <scstep>
   <time name="dav">    8.11    8.11</time>
   <time name="total">    8.26    8.26</time>
   <energy>
    <i name="e_fr_energy">   -173.98223097 </i>
    <i name="e_wo_entrp">   -173.97812207 </i>
    <i name="e_0_energy">   -173.98086133 </i>
   </energy>
  </scstep>
  <scstep>
   <time name="dav">    7.01    7.01</time>
   <time name="total">    7.15    7.15</time>
   <energy>
    <i name="e_fr_energy">   -173.98398131 </i>
    <i name="e_wo_entrp">   -173.97950375 </i>
    <i name="e_0_energy">   -173.98248879 </i>
   </energy>
  </scstep>
  <scstep>
   <time name="dav">    7.52    7.52</time>
   <time name="total">    7.67    7.67</time>
   <energy>
    <i name="e_fr_energy">   -173.98438939 </i>
    <i name="e_wo_entrp">   -173.98029810 </i>
    <i name="e_0_energy">   -173.98302563 </i>
   </energy>
  </scstep>
  <scstep>
   <time name="dav">    7.71    7.71</time>
   <time name="total">    7.86    7.86</time>
   <energy>
    <i name="e_fr_energy">   -173.98443884 </i>
    <i name="e_wo_entrp">   -173.98044285 </i>
    <i name="e_0_energy">   -173.98310684 </i>
   </energy>
  </scstep>
  <scstep>
   <time name="dav">    6.96    6.96</time>
   <time name="total">    7.11    7.11</time>
   <energy>
    <i name="e_fr_energy">   -173.98443066 </i>
    <i name="e_wo_entrp">   -173.98026967 </i>
    <i name="e_0_energy">   -173.98304367 </i>
   </energy>
  </scstep>
  <scstep>
   <time name="dav">    6.31    6.32</time>
   <time name="total">    6.46    6.46</time>
   <energy>
    <i name="e_fr_energy">   -173.98458888 </i>
    <i name="e_wo_entrp">   -173.98040319 </i>
    <i name="e_0_energy">   -173.98319365 </i>
   </energy>
  </scstep>
  <scstep>
   <time name="dav">    6.36    6.36</time>
   <time name="total">    6.50    6.50</time>
   <energy>
    <i name="e_fr_energy">   -173.98490481 </i>
    <i name="e_wo_entrp">   -173.98064071 </i>
    <i name="e_0_energy">   -173.98348345 </i>
   </energy>
  </scstep>
  <scstep>
   <time name="dav">    6.33    6.33</time>
   <time name="total">    6.48    6.48</time>
   <energy>
    <i name="e_fr_energy">   -173.98528075 </i>
    <i name="e_wo_entrp">   -173.98107714 </i>
    <i name="e_0_energy">   -173.98387955 </i>
   </energy>
  </scstep>
  <scstep>
   <time name="dav">    5.89    5.89</time>
   <time name="total">    6.06    6.06</time>
   <energy>
    <i name="e_fr_energy">   -173.98559253 </i>
    <i name="e_wo_entrp">   -173.98132317 </i>
    <i name="e_0_energy">   -173.98416941 </i>
   </energy>
  </scstep>
  <scstep>
   <time name="dav">    5.90    5.90</time>
   <time name="total">    6.05    6.05</time>
   <energy>
    <i name="e_fr_energy">   -173.98577910 </i>
    <i name="e_wo_entrp">   -173.98155566 </i>
    <i name="e_0_energy">   -173.98437129 </i>
   </energy>
  </scstep>
  <scstep>
   <time name="dav">    5.91    5.91</time>
   <time name="total">    6.07    6.07</time>
   <energy>
    <i name="e_fr_energy">   -173.98585435 </i>
    <i name="e_wo_entrp">   -173.98162014 </i>
    <i name="e_0_energy">   -173.98444295 </i>
   </energy>
  </scstep>
  <scstep>
   <time name="dav">    5.75    5.75</time>
   <time name="total">    5.91    5.91</time>
   <energy>
    <i name="e_fr_energy">   -173.98589442 </i>
    <i name="e_wo_entrp">   -173.98165775 </i>
    <i name="e_0_energy">   -173.98448219 </i>
   </energy>
  </scstep>
  <scstep>
   <time name="dav">    5.34    5.34</time>
   <time name="total">    5.38    5.38</time>
   <energy>
    <i name="alphaZ">    238.52296072 </i>
    <i name="ewald">  39200.44369667 </i>
    <i name="hartreedc"> -62874.36986708 </i>
    <i name="XCdc">    515.35539811 </i>
    <i name="pawpsdc">  25888.03673505 </i>
    <i name="pawaedc"> -25731.99577608 </i>
    <i name="eentropy">     -0.00423801 </i>
    <i name="bandstr">  -4797.43435864 </i>
    <i name="atom">  27387.45954937 </i>
    <i name="e_fr_energy">   -173.98589989 </i>
    <i name="e_wo_entrp">   -173.98166188 </i>
    <i name="e_0_energy">   -173.98448722 </i>
   </energy>
  </scstep>
  <structure>
   <crystal>
    <varray name="basis" >
     <v>       7.92942752       0.00000000       0.00000000 </v>
     <v>       0.00000000       8.24170653       0.00000000 </v>
     <v>       0.00000000       0.00000000      20.95457887 </v>
    </varray>
    <i name="volume">   1369.42394383 </i>
    <varray name="rec_basis" >
     <v>       0.12611251      -0.00000000      -0.00000000 </v>
     <v>       0.00000000       0.12133409      -0.00000000 </v>
     <v>       0.00000000       0.00000000       0.04772227 </v>
    </varray>
   </crystal>
   <varray name="positions" >
    <v>       0.00000000       0.00000000       0.35791700 </v>
    <v>       0.50000000       0.00000000       0.54712213 </v>
    <v>       0.00000000       0.50000000       0.35791700 </v>
    <v>       0.50000000       0.50000000       0.54712213 </v>
    <v>       0.75000000       0.00000000       0.45251956 </v>
    <v>       0.25000000       0.00000000       0.64172469 </v>
    <v>       0.75000000       0.50000000       0.45251956 </v>
    <v>       0.25000000       0.50000000       0.64172469 </v>
    <v>       0.25000000       0.00000000       0.45251956 </v>
    <v>       0.75000000       0.00000000       0.64172469 </v>
    <v>       0.25000000       0.50000000       0.45251956 </v>
    <v>       0.75000000       0.50000000       0.64172469 </v>
    <v>       0.00000000       0.00000000       0.54712213 </v>
    <v>       0.50000000       0.00000000       0.35791700 </v>
    <v>       0.00000000       0.50000000       0.54712213 </v>
    <v>       0.50000000       0.50000000       0.35791700 </v>
    <v>       0.00000000       0.74792877       0.45287787 </v>
    <v>       0.50000000       0.74792877       0.64208300 </v>
    <v>       0.00000000       0.25207123       0.45287787 </v>
    <v>       0.50000000       0.25207123       0.64208300 </v>
    <v>       0.75094688       0.74792877       0.54712213 </v>
    <v>       0.25094688       0.74792877       0.35791700 </v>
    <v>       0.75094688       0.25207123       0.54712213 </v>
    <v>       0.25094688       0.25207123       0.35791700 </v>
    <v>       0.24905312       0.74792877       0.54712213 </v>
    <v>       0.74905312       0.74792877       0.35791700 </v>
    <v>       0.24905312       0.25207123       0.54712213 </v>
    <v>       0.74905312       0.25207123       0.35791700 </v>
    <v>       0.00000000       0.74792877       0.64136638 </v>
    <v>       0.50000000       0.74792877       0.45216125 </v>
    <v>       0.00000000       0.25207123       0.64136638 </v>
    <v>       0.50000000       0.25207123       0.45216125 </v>
   </varray>
  </structure>
  <varray name="forces" >
   <v>       0.00000000       0.00000000       0.14017105 </v>
   <v>       0.00000000       0.00000000       0.36667678 </v>
   <v>       0.00000000       0.00000000       0.24076331 </v>
   <v>       0.00000000       0.00000000       0.04513373 </v>
   <v>      -0.47873200       0.00000000       0.19596155 </v>
   <v>       0.14935102      -0.00000000      -0.65526104 </v>
   <v>       0.08153610      -0.00000000      -0.16889474 </v>
   <v>       0.06764448      -0.00000000      -0.45271704 </v>
   <v>       0.47873200       0.00000000       0.19596155 </v>
   <v>      -0.14935102      -0.00000000      -0.65526104 </v>
   <v>      -0.08153610      -0.00000000      -0.16889474 </v>
   <v>      -0.06764448      -0.00000000      -0.45271704 </v>
   <v>       0.00000000       0.00000000       0.28746600 </v>
   <v>      -0.00000000      -0.00000000      -0.21982970 </v>
   <v>       0.00000000       0.00000000       0.46235784 </v>
   <v>      -0.00000000      -0.00000000      -0.27124809 </v>
   <v>      -0.00000000       0.02646145      -0.21583086 </v>
   <v>       0.00000000       0.01220632       0.07737227 </v>
   <v>      -0.00000000      -0.02646145      -0.21583086 </v>
   <v>       0.00000000      -0.01220632       0.07737227 </v>
   <v>      -0.01068388       0.08321737       0.34510564 </v>
   <v>      -0.00360709      -0.07118657       0.07724959 </v>
   <v>      -0.01068388      -0.08321737       0.34510564 </v>
   <v>      -0.00360709       0.07118657       0.07724959 </v>
   <v>       0.01068388       0.08321737       0.34510564 </v>
   <v>       0.00360709      -0.07118657       0.07724959 </v>
   <v>       0.01068388      -0.08321737       0.34510564 </v>
   <v>       0.00360709       0.07118657       0.07724959 </v>
   <v>       0.00000000       0.21848319       0.04380306 </v>
   <v>       0.00000000       0.08817503      -0.19488911 </v>
   <v>      -0.00000000      -0.21848319       0.04380306 </v>
   <v>      -0.00000000      -0.08817503      -0.19488911 </v>
  </varray>
  <varray name="stress" >
   <v>     -28.37369473      -0.00000000      -0.00000000 </v>
   <v>      -0.00000000     -17.45797524      -0.00000000 </v>
   <v>      -0.00000000      -0.00000000      -3.87960040 </v>
  </varray>
  <energy>
   <i name="e_fr_energy">   -173.98589989 </i>
   <i name="e_wo_entrp">   -173.98166188 </i>
   <i name="e_0_energy">   -173.98448722 </i>
  </energy>
  <time name="totalsc">  261.03  261.05</time>
  <eigenvalues>
   <array>
    <dimension dim="1">band</dimension>
    <dimension dim="2">kpoint</dimension>
    <dimension dim="3">spin</dimension>
    <field>eigene</field>
    <field>occ</field>
    <set>
     <set comment="spin 1">
      <set comment="kpoint 1">
       <r>  -56.3787    1.0000 </r>
       <r>  -56.3747    1.0000 </r>
       <r>  -56.3732    1.0000 </r>
       <r>  -56.3621    1.0000 </r>
       <r>  -56.3599    1.0000 </r>
       <r>  -56.3348    1.0000 </r>
       <r>  -56.3189    1.0000 </r>
       <r>  -55.9939    1.0000 </r>
       <r>  -55.9907    1.0000 </r>
       <r>  -55.9208    1.0000 </r>
       <r>  -55.9142    1.0000 </r>
       <r>  -55.8628    1.0000 </r>
       <r>  -55.8254    1.0000 </r>
       <r>  -55.7615    1.0000 </r>
       <r>  -32.8051    1.0000 </r>
       <r>  -32.8020    1.0000 </r>
       <r>  -32.7646    1.0000 </r>
       <r>  -32.7632    1.0000 </r>
       <r>  -32.7528    1.0000 </r>
       <r>  -32.7354    1.0000 </r>
       <r>  -32.7043    1.0000 </r>
       <r>  -32.6671    1.0000 </r>
       <r>  -32.6029    1.0000 </r>
       <r>  -32.5929    1.0000 </r>
       <r>  -32.5829    1.0000 </r>
       <r>  -32.5811    1.0000 </r>
       <r>  -32.5794    1.0000 </r>
       <r>  -32.5791    1.0000 </r>
       <r>  -32.5757    1.0000 </r>
       <r>  -32.5726    1.0000 </r>
       <r>  -32.5696    1.0000 </r>
       <r>  -32.5572    1.0000 </r>
       <r>  -32.5547    1.0000 </r>
       <r>  -32.5482    1.0000 </r>
       <r>  -32.5200    1.0000 </r>
       <r>  -32.3476    1.0000 </r>
       <r>  -32.3422    1.0000 </r>
       <r>  -32.3314    1.0000 </r>
       <r>  -32.3269    1.0000 </r>
       <r>  -32.3219    1.0000 </r>
       <r>  -32.3108    1.0000 </r>
       <r>  -32.2608    1.0000 </r>
       <r>  -32.2242    1.0000 </r>
       <r>  -32.2185    1.0000 </r>
       <r>  -32.2178    1.0000 </r>
       <r>  -32.1963    1.0000 </r>
       <r>  -32.1796    1.0000 </r>
       <r>  -32.1727    1.0000 </r>
       <r>  -32.1649    1.0000 </r>
       <r>  -32.1203    1.0000 </r>
       <r>  -31.9759    1.0000 </r>
       <r>  -31.9629    1.0000 </r>
       <r>  -31.9520    1.0000 </r>
       <r>  -31.9363    1.0000 </r>
       <r>  -31.9147    1.0000 </r>
       <r>  -31.8985    1.0000 </r>
       <r>  -14.1269    1.0000 </r>
       <r>  -14.1267    1.0000 </r>
       <r>  -14.1113    1.0000 </r>
       <r>  -14.1034    1.0000 </r>
       <r>  -14.0739    1.0000 </r>
       <r>  -14.0345    1.0000 </r>
       <r>  -14.0339    1.0000 </r>
       <r>  -14.0238    1.0000 </r>
       <r>  -14.0107    1.0000 </r>
       <r>  -13.9745    1.0000 </r>
       <r>   -8.4446    1.0000 </r>
       <r>   -7.2825    1.0000 </r>
       <r>   -6.7296    1.0000 </r>
       <r>   -6.1694    1.0000 </r>
       <r>   -5.7249    1.0000 </r>
       <r>   -5.6835    1.0000 </r>
       <r>   -5.5457    1.0000 </r>
       <r>   -4.9667    1.0000 </r>
       <r>   -4.8369    1.0000 </r>
       <r>   -4.7415    1.0000 </r>
       <r>   -4.4287    1.0000 </r>
       <r>   -4.2546    1.0000 </r>
       <r>   -3.9578    1.0000 </r>
       <r>   -3.8661    1.0000 </r>
       <r>   -3.8163    1.0000 </r>
       <r>   -3.6903    1.0000 </r>
       <r>   -2.9337    1.0000 </r>
       <r>   -2.7145    1.0000 </r>
       <r>   -2.5293    1.0000 </r>
       <r>   -2.4106    1.0000 </r>
       <r>   -2.3693    1.0000 </r>
       <r>   -1.9296    1.0000 </r>
       <r>   -1.7346    1.0000 </r>
       <r>   -1.4513    1.0000 </r>
       <r>   -1.3998    1.0000 </r>
       <r>   -1.3949    1.0000 </r>
       <r>   -1.2132    1.0000 </r>
       <r>   -1.1479    1.0000 </r>
       <r>   -1.1062    1.0000 </r>
       <r>   -0.9537    1.0000 </r>
       <r>   -0.8780    1.0000 </r>
       <r>   -0.7491    1.0000 </r>
       <r>   -0.7370    1.0000 </r>
       <r>   -0.5576    1.0000 </r>
       <r>   -0.5504    1.0000 </r>
       <r>   -0.5127    1.0000 </r>
       <r>   -0.4009    1.0000 </r>
       <r>   -0.2823    1.0000 </r>
       <r>   -0.2768    1.0000 </r>
       <r>   -0.2013    1.0000 </r>
       <r>   -0.1140    1.0000 </r>
       <r>   -0.0289    1.0000 </r>
       <r>   -0.0199    1.0000 </r>
       <r>    0.0915    1.0000 </r>
       <r>    0.1120    1.0000 </r>
       <r>    0.1236    1.0000 </r>
       <r>    0.1431    1.0000 </r>
       <r>    0.3188    1.0000 </r>
       <r>    0.3597    1.0000 </r>
       <r>    0.3778    1.0000 </r>
       <r>    0.3834    1.0001 </r>
       <r>    0.4097    1.0002 </r>
       <r>    0.5550    1.0321 </r>
       <r>    0.5683    1.0353 </r>
       <r>    0.6307    0.9341 </r>
       <r>    0.6794    0.6222 </r>
       <r>    0.7266    0.2401 </r>
       <r>    0.8277   -0.0338 </r>
       <r>    0.8971   -0.0072 </r>
       <r>    0.9704   -0.0003 </r>
       <r>    0.9823   -0.0002 </r>
       <r>    1.0422   -0.0000 </r>
       <r>    1.2063   -0.0000 </r>
       <r>    1.2461   -0.0000 </r>
       <r>    1.4001   -0.0000 </r>
       <r>    1.4712   -0.0000 </r>
       <r>    1.4997   -0.0000 </r>
       <r>    1.6210   -0.0000 </r>
       <r>    1.7439   -0.0000 </r>
       <r>    1.7448   -0.0000 </r>
       <r>    1.7559   -0.0000 </r>
       <r>    1.7636   -0.0000 </r>
       <r>    1.8000   -0.0000 </r>
       <r>    1.8750   -0.0000 </r>
       <r>    1.9031   -0.0000 </r>
       <r>    1.9456   -0.0000 </r>
       <r>    1.9624   -0.0000 </r>
       <r>    2.0511   -0.0000 </r>
       <r>    2.0850   -0.0000 </r>
       <r>    2.1349   -0.0000 </r>
       <r>    2.1364   -0.0000 </r>
       <r>    2.2073   -0.0000 </r>
       <r>    2.2272   -0.0000 </r>
       <r>    2.2500   -0.0000 </r>
       <r>    2.2508   -0.0000 </r>
       <r>    2.2742   -0.0000 </r>
       <r>    2.3598   -0.0000 </r>
       <r>    2.3795   -0.0000 </r>
       <r>    2.4315   -0.0000 </r>
       <r>    2.4642   -0.0000 </r>
       <r>    2.5059   -0.0000 </r>
       <r>    2.5393   -0.0000 </r>
       <r>    2.5647   -0.0000 </r>
       <r>    2.5705   -0.0000 </r>
       <r>    2.6027   -0.0000 </r>
       <r>    2.6634   -0.0000 </r>
       <r>    2.7005    0.0000 </r>
       <r>    2.9836    0.0000 </r>
       <r>    3.0606    0.0000 </r>
       <r>    3.3404    0.0000 </r>
       <r>    3.4537    0.0000 </r>
       <r>    3.4840    0.0000 </r>
       <r>    3.5206    0.0000 </r>
       <r>    3.6265    0.0000 </r>
       <r>    3.6286    0.0000 </r>
       <r>    3.6459    0.0000 </r>
       <r>    3.8352    0.0000 </r>
       <r>    3.9589    0.0000 </r>
       <r>    4.0910    0.0000 </r>
       <r>    4.1164    0.0000 </r>
       <r>    4.2239    0.0000 </r>
       <r>    4.2360    0.0000 </r>
       <r>    4.3508    0.0000 </r>
       <r>    4.4942    0.0000 </r>
       <r>    4.5631    0.0000 </r>
       <r>    4.5953    0.0000 </r>
       <r>    4.6812    0.0000 </r>
       <r>    4.6856    0.0000 </r>
       <r>    4.7612    0.0000 </r>
       <r>    4.9093    0.0000 </r>
       <r>    4.9382    0.0000 </r>
       <r>    4.9897    0.0000 </r>
       <r>    5.1857    0.0000 </r>
       <r>    5.1895    0.0000 </r>
       <r>    5.3788    0.0000 </r>
       <r>    5.4502    0.0000 </r>
      </set>
      <set comment="kpoint 2">
       <r>  -56.3787    1.0000 </r>
       <r>  -56.3745    1.0000 </r>
       <r>  -56.3733    1.0000 </r>
       <r>  -56.3618    1.0000 </r>
       <r>  -56.3602    1.0000 </r>
       <r>  -56.3348    1.0000 </r>
       <r>  -56.3190    1.0000 </r>
       <r>  -55.9944    1.0000 </r>
       <r>  -55.9903    1.0000 </r>
       <r>  -55.9201    1.0000 </r>
       <r>  -55.9151    1.0000 </r>
       <r>  -55.8628    1.0000 </r>
       <r>  -55.8252    1.0000 </r>
       <r>  -55.7616    1.0000 </r>
       <r>  -32.8057    1.0000 </r>
       <r>  -32.8014    1.0000 </r>
       <r>  -32.7644    1.0000 </r>
       <r>  -32.7621    1.0000 </r>
       <r>  -32.7542    1.0000 </r>
       <r>  -32.7341    1.0000 </r>
       <r>  -32.7048    1.0000 </r>
       <r>  -32.6672    1.0000 </r>
       <r>  -32.6005    1.0000 </r>
       <r>  -32.5926    1.0000 </r>
       <r>  -32.5825    1.0000 </r>
       <r>  -32.5824    1.0000 </r>
       <r>  -32.5814    1.0000 </r>
       <r>  -32.5796    1.0000 </r>
       <r>  -32.5731    1.0000 </r>
       <r>  -32.5722    1.0000 </r>
       <r>  -32.5700    1.0000 </r>
       <r>  -32.5598    1.0000 </r>
       <r>  -32.5547    1.0000 </r>
       <r>  -32.5436    1.0000 </r>
       <r>  -32.5246    1.0000 </r>
       <r>  -32.3481    1.0000 </r>
       <r>  -32.3418    1.0000 </r>
       <r>  -32.3311    1.0000 </r>
       <r>  -32.3273    1.0000 </r>
       <r>  -32.3206    1.0000 </r>
       <r>  -32.3126    1.0000 </r>
       <r>  -32.2608    1.0000 </r>
       <r>  -32.2241    1.0000 </r>
       <r>  -32.2231    1.0000 </r>
       <r>  -32.2126    1.0000 </r>
       <r>  -32.1981    1.0000 </r>
       <r>  -32.1813    1.0000 </r>
       <r>  -32.1716    1.0000 </r>
       <r>  -32.1628    1.0000 </r>
       <r>  -32.1203    1.0000 </r>
       <r>  -31.9772    1.0000 </r>
       <r>  -31.9618    1.0000 </r>
       <r>  -31.9499    1.0000 </r>
       <r>  -31.9329    1.0000 </r>
       <r>  -31.9191    1.0000 </r>
       <r>  -31.8990    1.0000 </r>
       <r>  -14.1269    1.0000 </r>
       <r>  -14.1267    1.0000 </r>
       <r>  -14.1113    1.0000 </r>
       <r>  -14.1034    1.0000 </r>
       <r>  -14.0738    1.0000 </r>
       <r>  -14.0345    1.0000 </r>
       <r>  -14.0339    1.0000 </r>
       <r>  -14.0238    1.0000 </r>
       <r>  -14.0108    1.0000 </r>
       <r>  -13.9745    1.0000 </r>
       <r>   -8.3171    1.0000 </r>
       <r>   -7.3756    1.0000 </r>
       <r>   -6.6146    1.0000 </r>
       <r>   -6.5859    1.0000 </r>
       <r>   -5.9361    1.0000 </r>
       <r>   -5.7053    1.0000 </r>
       <r>   -5.3649    1.0000 </r>
       <r>   -5.1478    1.0000 </r>
       <r>   -4.8201    1.0000 </r>
       <r>   -4.5717    1.0000 </r>
       <r>   -4.4501    1.0000 </r>
       <r>   -3.8944    1.0000 </r>
       <r>   -3.8569    1.0000 </r>
       <r>   -3.6413    1.0000 </r>
       <r>   -3.6253    1.0000 </r>
       <r>   -3.3964    1.0000 </r>
       <r>   -3.2095    1.0000 </r>
       <r>   -2.9091    1.0000 </r>
       <r>   -2.7431    1.0000 </r>
       <r>   -2.2960    1.0000 </r>
       <r>   -1.8535    1.0000 </r>
       <r>   -1.8440    1.0000 </r>
       <r>   -1.7799    1.0000 </r>
       <r>   -1.7364    1.0000 </r>
       <r>   -1.6105    1.0000 </r>
       <r>   -1.4458    1.0000 </r>
       <r>   -1.2699    1.0000 </r>
       <r>   -1.2283    1.0000 </r>
       <r>   -1.0444    1.0000 </r>
       <r>   -0.8632    1.0000 </r>
       <r>   -0.8178    1.0000 </r>
       <r>   -0.7900    1.0000 </r>
       <r>   -0.7718    1.0000 </r>
       <r>   -0.6738    1.0000 </r>
       <r>   -0.6187    1.0000 </r>
       <r>   -0.5820    1.0000 </r>
       <r>   -0.3580    1.0000 </r>
       <r>   -0.3293    1.0000 </r>
       <r>   -0.3031    1.0000 </r>
       <r>   -0.2381    1.0000 </r>
       <r>   -0.2310    1.0000 </r>
       <r>   -0.1360    1.0000 </r>
       <r>   -0.0290    1.0000 </r>
       <r>    0.0230    1.0000 </r>
       <r>    0.0914    1.0000 </r>
       <r>    0.1073    1.0000 </r>
       <r>    0.1410    1.0000 </r>
       <r>    0.1546    1.0000 </r>
       <r>    0.2354    1.0000 </r>
       <r>    0.4042    1.0002 </r>
       <r>    0.4933    1.0078 </r>
       <r>    0.4949    1.0082 </r>
       <r>    0.5363    1.0241 </r>
       <r>    0.5649    1.0348 </r>
       <r>    0.5891    1.0295 </r>
       <r>    0.7120    0.3504 </r>
       <r>    0.7282    0.2287 </r>
       <r>    0.7461    0.1186 </r>
       <r>    0.8164   -0.0355 </r>
       <r>    0.8426   -0.0283 </r>
       <r>    1.0200   -0.0000 </r>
       <r>    1.0495   -0.0000 </r>
       <r>    1.3000   -0.0000 </r>
       <r>    1.3914   -0.0000 </r>
       <r>    1.4385   -0.0000 </r>
       <r>    1.4730   -0.0000 </r>
       <r>    1.5024   -0.0000 </r>
       <r>    1.5852   -0.0000 </r>
       <r>    1.5952   -0.0000 </r>
       <r>    1.6330   -0.0000 </r>
       <r>    1.7075   -0.0000 </r>
       <r>    1.7267   -0.0000 </r>
       <r>    1.7758   -0.0000 </r>
       <r>    1.8081   -0.0000 </r>
       <r>    1.8842   -0.0000 </r>
       <r>    1.9245   -0.0000 </r>
       <r>    1.9680   -0.0000 </r>
       <r>    2.0643   -0.0000 </r>
       <r>    2.0870   -0.0000 </r>
       <r>    2.1389   -0.0000 </r>
       <r>    2.1666   -0.0000 </r>
       <r>    2.2383   -0.0000 </r>
       <r>    2.2602   -0.0000 </r>
       <r>    2.3065   -0.0000 </r>
       <r>    2.3255   -0.0000 </r>
       <r>    2.3259   -0.0000 </r>
       <r>    2.4003   -0.0000 </r>
       <r>    2.4376   -0.0000 </r>
       <r>    2.4437   -0.0000 </r>
       <r>    2.4465   -0.0000 </r>
       <r>    2.5006   -0.0000 </r>
       <r>    2.6348   -0.0000 </r>
       <r>    2.6804   -0.0000 </r>
       <r>    2.6849   -0.0000 </r>
       <r>    2.7649    0.0000 </r>
       <r>    2.7873    0.0000 </r>
       <r>    2.8806    0.0000 </r>
       <r>    3.0363    0.0000 </r>
       <r>    3.0695    0.0000 </r>
       <r>    3.2553    0.0000 </r>
       <r>    3.4568    0.0000 </r>
       <r>    3.4860    0.0000 </r>
       <r>    3.4932    0.0000 </r>
       <r>    3.5288    0.0000 </r>
       <r>    3.6211    0.0000 </r>
       <r>    3.6374    0.0000 </r>
       <r>    3.6688    0.0000 </r>
       <r>    3.7858    0.0000 </r>
       <r>    4.1627    0.0000 </r>
       <r>    4.2169    0.0000 </r>
       <r>    4.2715    0.0000 </r>
       <r>    4.2923    0.0000 </r>
       <r>    4.4433    0.0000 </r>
       <r>    4.4695    0.0000 </r>
       <r>    4.4923    0.0000 </r>
       <r>    4.5050    0.0000 </r>
       <r>    4.5732    0.0000 </r>
       <r>    4.6657    0.0000 </r>
       <r>    4.6889    0.0000 </r>
       <r>    4.7857    0.0000 </r>
       <r>    4.9160    0.0000 </r>
       <r>    4.9568    0.0000 </r>
       <r>    5.0456    0.0000 </r>
       <r>    5.2840    0.0000 </r>
       <r>    5.3370    0.0000 </r>
       <r>    5.4746    0.0000 </r>
      </set>
      <set comment="kpoint 3">
       <r>  -56.3787    1.0000 </r>
       <r>  -56.3744    1.0000 </r>
       <r>  -56.3735    1.0000 </r>
       <r>  -56.3610    1.0000 </r>
       <r>  -56.3609    1.0000 </r>
       <r>  -56.3347    1.0000 </r>
       <r>  -56.3191    1.0000 </r>
       <r>  -55.9948    1.0000 </r>
       <r>  -55.9899    1.0000 </r>
       <r>  -55.9188    1.0000 </r>
       <r>  -55.9165    1.0000 </r>
       <r>  -55.8628    1.0000 </r>
       <r>  -55.8250    1.0000 </r>
       <r>  -55.7617    1.0000 </r>
       <r>  -32.8062    1.0000 </r>
       <r>  -32.8009    1.0000 </r>
       <r>  -32.7642    1.0000 </r>
       <r>  -32.7585    1.0000 </r>
       <r>  -32.7582    1.0000 </r>
       <r>  -32.7329    1.0000 </r>
       <r>  -32.7051    1.0000 </r>
       <r>  -32.6673    1.0000 </r>
       <r>  -32.5923    1.0000 </r>
       <r>  -32.5921    1.0000 </r>
       <r>  -32.5918    1.0000 </r>
       <r>  -32.5817    1.0000 </r>
       <r>  -32.5814    1.0000 </r>
       <r>  -32.5805    1.0000 </r>
       <r>  -32.5715    1.0000 </r>
       <r>  -32.5707    1.0000 </r>
       <r>  -32.5687    1.0000 </r>
       <r>  -32.5643    1.0000 </r>
       <r>  -32.5547    1.0000 </r>
       <r>  -32.5362    1.0000 </r>
       <r>  -32.5319    1.0000 </r>
       <r>  -32.3485    1.0000 </r>
       <r>  -32.3414    1.0000 </r>
       <r>  -32.3307    1.0000 </r>
       <r>  -32.3277    1.0000 </r>
       <r>  -32.3183    1.0000 </r>
       <r>  -32.3155    1.0000 </r>
       <r>  -32.2608    1.0000 </r>
       <r>  -32.2251    1.0000 </r>
       <r>  -32.2240    1.0000 </r>
       <r>  -32.2099    1.0000 </r>
       <r>  -32.1941    1.0000 </r>
       <r>  -32.1927    1.0000 </r>
       <r>  -32.1643    1.0000 </r>
       <r>  -32.1631    1.0000 </r>
       <r>  -32.1203    1.0000 </r>
       <r>  -31.9784    1.0000 </r>
       <r>  -31.9608    1.0000 </r>
       <r>  -31.9461    1.0000 </r>
       <r>  -31.9343    1.0000 </r>
       <r>  -31.9192    1.0000 </r>
       <r>  -31.9009    1.0000 </r>
       <r>  -14.1269    1.0000 </r>
       <r>  -14.1267    1.0000 </r>
       <r>  -14.1112    1.0000 </r>
       <r>  -14.1034    1.0000 </r>
       <r>  -14.0738    1.0000 </r>
       <r>  -14.0345    1.0000 </r>
       <r>  -14.0338    1.0000 </r>
       <r>  -14.0238    1.0000 </r>
       <r>  -14.0109    1.0000 </r>
       <r>  -13.9744    1.0000 </r>
       <r>   -8.0823    1.0000 </r>
       <r>   -7.6769    1.0000 </r>
       <r>   -6.5348    1.0000 </r>
       <r>   -6.3415    1.0000 </r>
       <r>   -6.2806    1.0000 </r>
       <r>   -6.1753    1.0000 </r>
       <r>   -5.1115    1.0000 </r>
       <r>   -5.0298    1.0000 </r>
       <r>   -4.9452    1.0000 </r>
       <r>   -4.7709    1.0000 </r>
       <r>   -4.1639    1.0000 </r>
       <r>   -3.8777    1.0000 </r>
       <r>   -3.5378    1.0000 </r>
       <r>   -3.4704    1.0000 </r>
       <r>   -3.3279    1.0000 </r>
       <r>   -3.2242    1.0000 </r>
       <r>   -2.8983    1.0000 </r>
       <r>   -2.8813    1.0000 </r>
       <r>   -2.7057    1.0000 </r>
       <r>   -2.7027    1.0000 </r>
       <r>   -2.0316    1.0000 </r>
       <r>   -1.9822    1.0000 </r>
       <r>   -1.9442    1.0000 </r>
       <r>   -1.8816    1.0000 </r>
       <r>   -1.4744    1.0000 </r>
       <r>   -1.3990    1.0000 </r>
       <r>   -1.3810    1.0000 </r>
       <r>   -1.3245    1.0000 </r>
       <r>   -1.1677    1.0000 </r>
       <r>   -1.0422    1.0000 </r>
       <r>   -0.9115    1.0000 </r>
       <r>   -0.7242    1.0000 </r>
       <r>   -0.6799    1.0000 </r>
       <r>   -0.5943    1.0000 </r>
       <r>   -0.5557    1.0000 </r>
       <r>   -0.4669    1.0000 </r>
       <r>   -0.4539    1.0000 </r>
       <r>   -0.4212    1.0000 </r>
       <r>   -0.3282    1.0000 </r>
       <r>   -0.3151    1.0000 </r>
       <r>   -0.1159    1.0000 </r>
       <r>   -0.0589    1.0000 </r>
       <r>    0.0331    1.0000 </r>
       <r>    0.0418    1.0000 </r>
       <r>    0.0616    1.0000 </r>
       <r>    0.0714    1.0000 </r>
       <r>    0.1352    1.0000 </r>
       <r>    0.1753    1.0000 </r>
       <r>    0.2028    1.0000 </r>
       <r>    0.2736    1.0000 </r>
       <r>    0.3055    1.0000 </r>
       <r>    0.3810    1.0000 </r>
       <r>    0.3860    1.0001 </r>
       <r>    0.4844    1.0058 </r>
       <r>    0.6371    0.9055 </r>
       <r>    0.6519    0.8237 </r>
       <r>    0.7488    0.1048 </r>
       <r>    0.8112   -0.0350 </r>
       <r>    0.8266   -0.0341 </r>
       <r>    0.8670   -0.0173 </r>
       <r>    0.9985   -0.0001 </r>
       <r>    1.1458   -0.0000 </r>
       <r>    1.3169   -0.0000 </r>
       <r>    1.3304   -0.0000 </r>
       <r>    1.3600   -0.0000 </r>
       <r>    1.4322   -0.0000 </r>
       <r>    1.4827   -0.0000 </r>
       <r>    1.5252   -0.0000 </r>
       <r>    1.5331   -0.0000 </r>
       <r>    1.5962   -0.0000 </r>
       <r>    1.6255   -0.0000 </r>
       <r>    1.7590   -0.0000 </r>
       <r>    1.7623   -0.0000 </r>
       <r>    1.8988   -0.0000 </r>
       <r>    1.9229   -0.0000 </r>
       <r>    1.9483   -0.0000 </r>
       <r>    1.9879   -0.0000 </r>
       <r>    2.1264   -0.0000 </r>
       <r>    2.1581   -0.0000 </r>
       <r>    2.1585   -0.0000 </r>
       <r>    2.1710   -0.0000 </r>
       <r>    2.1898   -0.0000 </r>
       <r>    2.2534   -0.0000 </r>
       <r>    2.2993   -0.0000 </r>
       <r>    2.3420   -0.0000 </r>
       <r>    2.4151   -0.0000 </r>
       <r>    2.4153   -0.0000 </r>
       <r>    2.4233   -0.0000 </r>
       <r>    2.5299   -0.0000 </r>
       <r>    2.5543   -0.0000 </r>
       <r>    2.5853   -0.0000 </r>
       <r>    2.6235   -0.0000 </r>
       <r>    2.6451   -0.0000 </r>
       <r>    2.8030    0.0000 </r>
       <r>    2.9337    0.0000 </r>
       <r>    2.9510    0.0000 </r>
       <r>    3.0318    0.0000 </r>
       <r>    3.0847    0.0000 </r>
       <r>    3.1901    0.0000 </r>
       <r>    3.2176    0.0000 </r>
       <r>    3.2522    0.0000 </r>
       <r>    3.2890    0.0000 </r>
       <r>    3.4403    0.0000 </r>
       <r>    3.4851    0.0000 </r>
       <r>    3.5044    0.0000 </r>
       <r>    3.7254    0.0000 </r>
       <r>    3.8383    0.0000 </r>
       <r>    3.8767    0.0000 </r>
       <r>    3.9461    0.0000 </r>
       <r>    4.0516    0.0000 </r>
       <r>    4.0973    0.0000 </r>
       <r>    4.1575    0.0000 </r>
       <r>    4.3993    0.0000 </r>
       <r>    4.4862    0.0000 </r>
       <r>    4.4891    0.0000 </r>
       <r>    4.6186    0.0000 </r>
       <r>    4.6839    0.0000 </r>
       <r>    4.6897    0.0000 </r>
       <r>    4.8666    0.0000 </r>
       <r>    4.9245    0.0000 </r>
       <r>    4.9437    0.0000 </r>
       <r>    4.9941    0.0000 </r>
       <r>    5.0060    0.0000 </r>
       <r>    5.0304    0.0000 </r>
       <r>    5.1355    0.0000 </r>
       <r>    5.2161    0.0000 </r>
      </set>
      <set comment="kpoint 4">
       <r>  -56.3787    1.0000 </r>
       <r>  -56.3747    1.0000 </r>
       <r>  -56.3732    1.0000 </r>
       <r>  -56.3621    1.0000 </r>
       <r>  -56.3599    1.0000 </r>
       <r>  -56.3348    1.0000 </r>
       <r>  -56.3189    1.0000 </r>
       <r>  -55.9939    1.0000 </r>
       <r>  -55.9907    1.0000 </r>
       <r>  -55.9208    1.0000 </r>
       <r>  -55.9142    1.0000 </r>
       <r>  -55.8628    1.0000 </r>
       <r>  -55.8254    1.0000 </r>
       <r>  -55.7615    1.0000 </r>
       <r>  -32.8051    1.0000 </r>
       <r>  -32.8020    1.0000 </r>
       <r>  -32.7646    1.0000 </r>
       <r>  -32.7632    1.0000 </r>
       <r>  -32.7528    1.0000 </r>
       <r>  -32.7354    1.0000 </r>
       <r>  -32.7043    1.0000 </r>
       <r>  -32.6671    1.0000 </r>
       <r>  -32.6029    1.0000 </r>
       <r>  -32.5929    1.0000 </r>
       <r>  -32.5814    1.0000 </r>
       <r>  -32.5806    1.0000 </r>
       <r>  -32.5794    1.0000 </r>
       <r>  -32.5777    1.0000 </r>
       <r>  -32.5757    1.0000 </r>
       <r>  -32.5741    1.0000 </r>
       <r>  -32.5710    1.0000 </r>
       <r>  -32.5572    1.0000 </r>
       <r>  -32.5552    1.0000 </r>
       <r>  -32.5482    1.0000 </r>
       <r>  -32.5200    1.0000 </r>
       <r>  -32.3465    1.0000 </r>
       <r>  -32.3411    1.0000 </r>
       <r>  -32.3326    1.0000 </r>
       <r>  -32.3280    1.0000 </r>
       <r>  -32.3219    1.0000 </r>
       <r>  -32.3108    1.0000 </r>
       <r>  -32.2604    1.0000 </r>
       <r>  -32.2246    1.0000 </r>
       <r>  -32.2185    1.0000 </r>
       <r>  -32.2178    1.0000 </r>
       <r>  -32.1963    1.0000 </r>
       <r>  -32.1796    1.0000 </r>
       <r>  -32.1727    1.0000 </r>
       <r>  -32.1649    1.0000 </r>
       <r>  -32.1203    1.0000 </r>
       <r>  -31.9759    1.0000 </r>
       <r>  -31.9629    1.0000 </r>
       <r>  -31.9520    1.0000 </r>
       <r>  -31.9363    1.0000 </r>
       <r>  -31.9147    1.0000 </r>
       <r>  -31.8985    1.0000 </r>
       <r>  -14.1269    1.0000 </r>
       <r>  -14.1267    1.0000 </r>
       <r>  -14.1113    1.0000 </r>
       <r>  -14.1034    1.0000 </r>
       <r>  -14.0739    1.0000 </r>
       <r>  -14.0345    1.0000 </r>
       <r>  -14.0339    1.0000 </r>
       <r>  -14.0238    1.0000 </r>
       <r>  -14.0107    1.0000 </r>
       <r>  -13.9745    1.0000 </r>
       <r>   -8.3394    1.0000 </r>
       <r>   -7.2307    1.0000 </r>
       <r>   -7.1247    1.0000 </r>
       <r>   -6.0629    1.0000 </r>
       <r>   -5.7845    1.0000 </r>
       <r>   -5.6263    1.0000 </r>
       <r>   -5.3811    1.0000 </r>
       <r>   -5.1560    1.0000 </r>
       <r>   -4.9275    1.0000 </r>
       <r>   -4.6414    1.0000 </r>
       <r>   -4.3754    1.0000 </r>
       <r>   -4.0622    1.0000 </r>
       <r>   -4.0119    1.0000 </r>
       <r>   -3.9374    1.0000 </r>
       <r>   -3.9317    1.0000 </r>
       <r>   -3.4487    1.0000 </r>
       <r>   -2.8216    1.0000 </r>
       <r>   -2.6363    1.0000 </r>
       <r>   -2.3981    1.0000 </r>
       <r>   -2.2265    1.0000 </r>
       <r>   -2.1298    1.0000 </r>
       <r>   -2.1039    1.0000 </r>
       <r>   -1.9045    1.0000 </r>
       <r>   -1.6832    1.0000 </r>
       <r>   -1.5909    1.0000 </r>
       <r>   -1.5188    1.0000 </r>
       <r>   -1.2206    1.0000 </r>
       <r>   -1.1418    1.0000 </r>
       <r>   -1.0750    1.0000 </r>
       <r>   -1.0190    1.0000 </r>
       <r>   -0.9714    1.0000 </r>
       <r>   -0.7736    1.0000 </r>
       <r>   -0.7615    1.0000 </r>
       <r>   -0.6233    1.0000 </r>
       <r>   -0.5927    1.0000 </r>
       <r>   -0.5266    1.0000 </r>
       <r>   -0.4369    1.0000 </r>
       <r>   -0.3250    1.0000 </r>
       <r>   -0.3064    1.0000 </r>
       <r>   -0.1926    1.0000 </r>
       <r>   -0.0456    1.0000 </r>
       <r>   -0.0172    1.0000 </r>
       <r>    0.0365    1.0000 </r>
       <r>    0.0800    1.0000 </r>
       <r>    0.1132    1.0000 </r>
       <r>    0.1330    1.0000 </r>
       <r>    0.2147    1.0000 </r>
       <r>    0.2800    1.0000 </r>
       <r>    0.3153    1.0000 </r>
       <r>    0.3805    1.0000 </r>
       <r>    0.4088    1.0002 </r>
       <r>    0.5039    1.0108 </r>
       <r>    0.5145    1.0146 </r>
       <r>    0.5415    1.0265 </r>
       <r>    0.6577    0.7862 </r>
       <r>    0.7110    0.3588 </r>
       <r>    0.7942   -0.0253 </r>
       <r>    0.8684   -0.0167 </r>
       <r>    0.8885   -0.0095 </r>
       <r>    0.9234   -0.0028 </r>
       <r>    1.0179   -0.0000 </r>
       <r>    1.1672   -0.0000 </r>
       <r>    1.1866   -0.0000 </r>
       <r>    1.3045   -0.0000 </r>
       <r>    1.3368   -0.0000 </r>
       <r>    1.3981   -0.0000 </r>
       <r>    1.4930   -0.0000 </r>
       <r>    1.5853   -0.0000 </r>
       <r>    1.5869   -0.0000 </r>
       <r>    1.6119   -0.0000 </r>
       <r>    1.7721   -0.0000 </r>
       <r>    1.7837   -0.0000 </r>
       <r>    1.8370   -0.0000 </r>
       <r>    1.9097   -0.0000 </r>
       <r>    1.9291   -0.0000 </r>
       <r>    1.9365   -0.0000 </r>
       <r>    1.9568   -0.0000 </r>
       <r>    1.9592   -0.0000 </r>
       <r>    2.0491   -0.0000 </r>
       <r>    2.1517   -0.0000 </r>
       <r>    2.1527   -0.0000 </r>
       <r>    2.2245   -0.0000 </r>
       <r>    2.2472   -0.0000 </r>
       <r>    2.2817   -0.0000 </r>
       <r>    2.3026   -0.0000 </r>
       <r>    2.3627   -0.0000 </r>
       <r>    2.4300   -0.0000 </r>
       <r>    2.4417   -0.0000 </r>
       <r>    2.4755   -0.0000 </r>
       <r>    2.5622   -0.0000 </r>
       <r>    2.6076   -0.0000 </r>
       <r>    2.6509   -0.0000 </r>
       <r>    2.6622   -0.0000 </r>
       <r>    2.7263    0.0000 </r>
       <r>    2.7972    0.0000 </r>
       <r>    2.8916    0.0000 </r>
       <r>    2.9364    0.0000 </r>
       <r>    2.9926    0.0000 </r>
       <r>    3.1098    0.0000 </r>
       <r>    3.1833    0.0000 </r>
       <r>    3.2504    0.0000 </r>
       <r>    3.3522    0.0000 </r>
       <r>    3.5306    0.0000 </r>
       <r>    3.5465    0.0000 </r>
       <r>    3.5623    0.0000 </r>
       <r>    3.6451    0.0000 </r>
       <r>    3.8408    0.0000 </r>
       <r>    3.8421    0.0000 </r>
       <r>    3.9236    0.0000 </r>
       <r>    4.0169    0.0000 </r>
       <r>    4.0342    0.0000 </r>
       <r>    4.1349    0.0000 </r>
       <r>    4.2514    0.0000 </r>
       <r>    4.3385    0.0000 </r>
       <r>    4.4365    0.0000 </r>
       <r>    4.4841    0.0000 </r>
       <r>    4.4912    0.0000 </r>
       <r>    4.6563    0.0000 </r>
       <r>    4.7575    0.0000 </r>
       <r>    4.7873    0.0000 </r>
       <r>    4.9403    0.0000 </r>
       <r>    4.9476    0.0000 </r>
       <r>    5.1524    0.0000 </r>
       <r>    5.2531    0.0000 </r>
       <r>    5.2822    0.0000 </r>
       <r>    5.2982    0.0000 </r>
      </set>
      <set comment="kpoint 5">
       <r>  -56.3787    1.0000 </r>
       <r>  -56.3745    1.0000 </r>
       <r>  -56.3733    1.0000 </r>
       <r>  -56.3618    1.0000 </r>
       <r>  -56.3602    1.0000 </r>
       <r>  -56.3348    1.0000 </r>
       <r>  -56.3190    1.0000 </r>
       <r>  -55.9944    1.0000 </r>
       <r>  -55.9903    1.0000 </r>
       <r>  -55.9201    1.0000 </r>
       <r>  -55.9151    1.0000 </r>
       <r>  -55.8628    1.0000 </r>
       <r>  -55.8252    1.0000 </r>
       <r>  -55.7616    1.0000 </r>
       <r>  -32.8057    1.0000 </r>
       <r>  -32.8014    1.0000 </r>
       <r>  -32.7644    1.0000 </r>
       <r>  -32.7621    1.0000 </r>
       <r>  -32.7542    1.0000 </r>
       <r>  -32.7341    1.0000 </r>
       <r>  -32.7048    1.0000 </r>
       <r>  -32.6672    1.0000 </r>
       <r>  -32.6005    1.0000 </r>
       <r>  -32.5926    1.0000 </r>
       <r>  -32.5825    1.0000 </r>
       <r>  -32.5810    1.0000 </r>
       <r>  -32.5807    1.0000 </r>
       <r>  -32.5782    1.0000 </r>
       <r>  -32.5737    1.0000 </r>
       <r>  -32.5731    1.0000 </r>
       <r>  -32.5714    1.0000 </r>
       <r>  -32.5598    1.0000 </r>
       <r>  -32.5552    1.0000 </r>
       <r>  -32.5436    1.0000 </r>
       <r>  -32.5246    1.0000 </r>
       <r>  -32.3470    1.0000 </r>
       <r>  -32.3406    1.0000 </r>
       <r>  -32.3322    1.0000 </r>
       <r>  -32.3284    1.0000 </r>
       <r>  -32.3206    1.0000 </r>
       <r>  -32.3126    1.0000 </r>
       <r>  -32.2604    1.0000 </r>
       <r>  -32.2245    1.0000 </r>
       <r>  -32.2230    1.0000 </r>
       <r>  -32.2125    1.0000 </r>
       <r>  -32.1981    1.0000 </r>
       <r>  -32.1813    1.0000 </r>
       <r>  -32.1716    1.0000 </r>
       <r>  -32.1628    1.0000 </r>
       <r>  -32.1203    1.0000 </r>
       <r>  -31.9772    1.0000 </r>
       <r>  -31.9618    1.0000 </r>
       <r>  -31.9499    1.0000 </r>
       <r>  -31.9329    1.0000 </r>
       <r>  -31.9191    1.0000 </r>
       <r>  -31.8990    1.0000 </r>
       <r>  -14.1269    1.0000 </r>
       <r>  -14.1267    1.0000 </r>
       <r>  -14.1113    1.0000 </r>
       <r>  -14.1034    1.0000 </r>
       <r>  -14.0738    1.0000 </r>
       <r>  -14.0345    1.0000 </r>
       <r>  -14.0338    1.0000 </r>
       <r>  -14.0238    1.0000 </r>
       <r>  -14.0108    1.0000 </r>
       <r>  -13.9745    1.0000 </r>
       <r>   -8.2174    1.0000 </r>
       <r>   -7.3108    1.0000 </r>
       <r>   -7.0068    1.0000 </r>
       <r>   -6.4573    1.0000 </r>
       <r>   -5.9846    1.0000 </r>
       <r>   -5.7516    1.0000 </r>
       <r>   -5.6078    1.0000 </r>
       <r>   -4.9157    1.0000 </r>
       <r>   -4.7648    1.0000 </r>
       <r>   -4.5423    1.0000 </r>
       <r>   -4.2836    1.0000 </r>
       <r>   -3.9939    1.0000 </r>
       <r>   -3.8364    1.0000 </r>
       <r>   -3.7336    1.0000 </r>
       <r>   -3.4436    1.0000 </r>
       <r>   -3.3876    1.0000 </r>
       <r>   -2.9918    1.0000 </r>
       <r>   -2.6567    1.0000 </r>
       <r>   -2.6072    1.0000 </r>
       <r>   -2.3147    1.0000 </r>
       <r>   -2.0886    1.0000 </r>
       <r>   -1.9618    1.0000 </r>
       <r>   -1.7816    1.0000 </r>
       <r>   -1.5967    1.0000 </r>
       <r>   -1.4710    1.0000 </r>
       <r>   -1.4239    1.0000 </r>
       <r>   -1.3905    1.0000 </r>
       <r>   -1.2848    1.0000 </r>
       <r>   -1.2290    1.0000 </r>
       <r>   -1.0954    1.0000 </r>
       <r>   -0.9586    1.0000 </r>
       <r>   -0.8654    1.0000 </r>
       <r>   -0.8629    1.0000 </r>
       <r>   -0.7253    1.0000 </r>
       <r>   -0.6679    1.0000 </r>
       <r>   -0.6341    1.0000 </r>
       <r>   -0.5669    1.0000 </r>
       <r>   -0.4814    1.0000 </r>
       <r>   -0.3245    1.0000 </r>
       <r>   -0.2278    1.0000 </r>
       <r>   -0.1845    1.0000 </r>
       <r>   -0.0745    1.0000 </r>
       <r>   -0.0064    1.0000 </r>
       <r>    0.0481    1.0000 </r>
       <r>    0.0631    1.0000 </r>
       <r>    0.1660    1.0000 </r>
       <r>    0.2307    1.0000 </r>
       <r>    0.2474    1.0000 </r>
       <r>    0.3046    1.0000 </r>
       <r>    0.4009    1.0001 </r>
       <r>    0.4395    1.0009 </r>
       <r>    0.4930    1.0077 </r>
       <r>    0.5056    1.0114 </r>
       <r>    0.6273    0.9477 </r>
       <r>    0.6709    0.6897 </r>
       <r>    0.7134    0.3392 </r>
       <r>    0.7378    0.1656 </r>
       <r>    0.8004   -0.0306 </r>
       <r>    0.8749   -0.0141 </r>
       <r>    0.9760   -0.0002 </r>
       <r>    1.0223   -0.0000 </r>
       <r>    1.1290   -0.0000 </r>
       <r>    1.2595   -0.0000 </r>
       <r>    1.3111   -0.0000 </r>
       <r>    1.3868   -0.0000 </r>
       <r>    1.4231   -0.0000 </r>
       <r>    1.5041   -0.0000 </r>
       <r>    1.5991   -0.0000 </r>
       <r>    1.6252   -0.0000 </r>
       <r>    1.6706   -0.0000 </r>
       <r>    1.7059   -0.0000 </r>
       <r>    1.7650   -0.0000 </r>
       <r>    1.7905   -0.0000 </r>
       <r>    1.8351   -0.0000 </r>
       <r>    1.8808   -0.0000 </r>
       <r>    1.9416   -0.0000 </r>
       <r>    1.9707   -0.0000 </r>
       <r>    2.0572   -0.0000 </r>
       <r>    2.0939   -0.0000 </r>
       <r>    2.1139   -0.0000 </r>
       <r>    2.1632   -0.0000 </r>
       <r>    2.2273   -0.0000 </r>
       <r>    2.2592   -0.0000 </r>
       <r>    2.2759   -0.0000 </r>
       <r>    2.3228   -0.0000 </r>
       <r>    2.3684   -0.0000 </r>
       <r>    2.4739   -0.0000 </r>
       <r>    2.5073   -0.0000 </r>
       <r>    2.5621   -0.0000 </r>
       <r>    2.6181   -0.0000 </r>
       <r>    2.6510   -0.0000 </r>
       <r>    2.7246    0.0000 </r>
       <r>    2.7461    0.0000 </r>
       <r>    2.7583    0.0000 </r>
       <r>    2.8461    0.0000 </r>
       <r>    2.8703    0.0000 </r>
       <r>    2.9458    0.0000 </r>
       <r>    2.9930    0.0000 </r>
       <r>    3.0761    0.0000 </r>
       <r>    3.2187    0.0000 </r>
       <r>    3.2553    0.0000 </r>
       <r>    3.3306    0.0000 </r>
       <r>    3.3779    0.0000 </r>
       <r>    3.4802    0.0000 </r>
       <r>    3.5390    0.0000 </r>
       <r>    3.6306    0.0000 </r>
       <r>    3.7486    0.0000 </r>
       <r>    3.7965    0.0000 </r>
       <r>    3.8310    0.0000 </r>
       <r>    3.9062    0.0000 </r>
       <r>    4.0746    0.0000 </r>
       <r>    4.2927    0.0000 </r>
       <r>    4.3456    0.0000 </r>
       <r>    4.3532    0.0000 </r>
       <r>    4.4370    0.0000 </r>
       <r>    4.4712    0.0000 </r>
       <r>    4.6072    0.0000 </r>
       <r>    4.6293    0.0000 </r>
       <r>    4.6876    0.0000 </r>
       <r>    4.8546    0.0000 </r>
       <r>    4.9172    0.0000 </r>
       <r>    5.0297    0.0000 </r>
       <r>    5.1590    0.0000 </r>
       <r>    5.2596    0.0000 </r>
       <r>    5.3387    0.0000 </r>
       <r>    5.3826    0.0000 </r>
      </set>
      <set comment="kpoint 6">
       <r>  -56.3787    1.0000 </r>
       <r>  -56.3744    1.0000 </r>
       <r>  -56.3735    1.0000 </r>
       <r>  -56.3610    1.0000 </r>
       <r>  -56.3609    1.0000 </r>
       <r>  -56.3347    1.0000 </r>
       <r>  -56.3191    1.0000 </r>
       <r>  -55.9947    1.0000 </r>
       <r>  -55.9899    1.0000 </r>
       <r>  -55.9188    1.0000 </r>
       <r>  -55.9165    1.0000 </r>
       <r>  -55.8628    1.0000 </r>
       <r>  -55.8250    1.0000 </r>
       <r>  -55.7617    1.0000 </r>
       <r>  -32.8062    1.0000 </r>
       <r>  -32.8009    1.0000 </r>
       <r>  -32.7642    1.0000 </r>
       <r>  -32.7585    1.0000 </r>
       <r>  -32.7582    1.0000 </r>
       <r>  -32.7329    1.0000 </r>
       <r>  -32.7051    1.0000 </r>
       <r>  -32.6673    1.0000 </r>
       <r>  -32.5923    1.0000 </r>
       <r>  -32.5921    1.0000 </r>
       <r>  -32.5918    1.0000 </r>
       <r>  -32.5812    1.0000 </r>
       <r>  -32.5799    1.0000 </r>
       <r>  -32.5791    1.0000 </r>
       <r>  -32.5730    1.0000 </r>
       <r>  -32.5721    1.0000 </r>
       <r>  -32.5687    1.0000 </r>
       <r>  -32.5643    1.0000 </r>
       <r>  -32.5552    1.0000 </r>
       <r>  -32.5361    1.0000 </r>
       <r>  -32.5319    1.0000 </r>
       <r>  -32.3475    1.0000 </r>
       <r>  -32.3402    1.0000 </r>
       <r>  -32.3317    1.0000 </r>
       <r>  -32.3289    1.0000 </r>
       <r>  -32.3182    1.0000 </r>
       <r>  -32.3155    1.0000 </r>
       <r>  -32.2604    1.0000 </r>
       <r>  -32.2251    1.0000 </r>
       <r>  -32.2244    1.0000 </r>
       <r>  -32.2099    1.0000 </r>
       <r>  -32.1941    1.0000 </r>
       <r>  -32.1927    1.0000 </r>
       <r>  -32.1643    1.0000 </r>
       <r>  -32.1631    1.0000 </r>
       <r>  -32.1203    1.0000 </r>
       <r>  -31.9784    1.0000 </r>
       <r>  -31.9608    1.0000 </r>
       <r>  -31.9461    1.0000 </r>
       <r>  -31.9343    1.0000 </r>
       <r>  -31.9192    1.0000 </r>
       <r>  -31.9009    1.0000 </r>
       <r>  -14.1269    1.0000 </r>
       <r>  -14.1267    1.0000 </r>
       <r>  -14.1112    1.0000 </r>
       <r>  -14.1034    1.0000 </r>
       <r>  -14.0738    1.0000 </r>
       <r>  -14.0345    1.0000 </r>
       <r>  -14.0338    1.0000 </r>
       <r>  -14.0238    1.0000 </r>
       <r>  -14.0109    1.0000 </r>
       <r>  -13.9744    1.0000 </r>
       <r>   -8.0016    1.0000 </r>
       <r>   -7.5733    1.0000 </r>
       <r>   -6.7035    1.0000 </r>
       <r>   -6.6237    1.0000 </r>
       <r>   -6.2856    1.0000 </r>
       <r>   -6.1118    1.0000 </r>
       <r>   -5.3830    1.0000 </r>
       <r>   -5.2749    1.0000 </r>
       <r>   -4.5543    1.0000 </r>
       <r>   -4.5028    1.0000 </r>
       <r>   -4.0195    1.0000 </r>
       <r>   -3.7199    1.0000 </r>
       <r>   -3.5089    1.0000 </r>
       <r>   -3.4979    1.0000 </r>
       <r>   -3.3660    1.0000 </r>
       <r>   -3.1241    1.0000 </r>
       <r>   -2.9858    1.0000 </r>
       <r>   -2.8135    1.0000 </r>
       <r>   -2.6712    1.0000 </r>
       <r>   -2.3453    1.0000 </r>
       <r>   -2.0611    1.0000 </r>
       <r>   -1.9118    1.0000 </r>
       <r>   -1.8160    1.0000 </r>
       <r>   -1.7565    1.0000 </r>
       <r>   -1.6304    1.0000 </r>
       <r>   -1.6277    1.0000 </r>
       <r>   -1.3529    1.0000 </r>
       <r>   -1.3250    1.0000 </r>
       <r>   -1.2804    1.0000 </r>
       <r>   -1.2160    1.0000 </r>
       <r>   -1.0413    1.0000 </r>
       <r>   -1.0308    1.0000 </r>
       <r>   -0.8589    1.0000 </r>
       <r>   -0.8555    1.0000 </r>
       <r>   -0.6773    1.0000 </r>
       <r>   -0.6485    1.0000 </r>
       <r>   -0.5398    1.0000 </r>
       <r>   -0.5135    1.0000 </r>
       <r>   -0.4090    1.0000 </r>
       <r>   -0.1975    1.0000 </r>
       <r>   -0.0725    1.0000 </r>
       <r>   -0.0516    1.0000 </r>
       <r>    0.0117    1.0000 </r>
       <r>    0.0147    1.0000 </r>
       <r>    0.0832    1.0000 </r>
       <r>    0.1290    1.0000 </r>
       <r>    0.1846    1.0000 </r>
       <r>    0.2500    1.0000 </r>
       <r>    0.2855    1.0000 </r>
       <r>    0.2905    1.0000 </r>
       <r>    0.3528    1.0000 </r>
       <r>    0.4197    1.0004 </r>
       <r>    0.4475    1.0013 </r>
       <r>    0.5237    1.0184 </r>
       <r>    0.5804    1.0341 </r>
       <r>    0.7742    0.0094 </r>
       <r>    0.8191   -0.0354 </r>
       <r>    0.8312   -0.0328 </r>
       <r>    0.9127   -0.0042 </r>
       <r>    1.0084   -0.0000 </r>
       <r>    1.1381   -0.0000 </r>
       <r>    1.1951   -0.0000 </r>
[...]
       <r>    1.7540   -0.0000 </r>
       <r>    1.7857   -0.0000 </r>
       <r>    1.8416   -0.0000 </r>
       <r>    1.8490   -0.0000 </r>
       <r>    1.8548   -0.0000 </r>
       <r>    1.9677   -0.0000 </r>
       <r>    2.0475   -0.0000 </r>
       <r>    2.0621   -0.0000 </r>
       <r>    2.0881   -0.0000 </r>
       <r>    2.0891   -0.0000 </r>
       <r>    2.2824   -0.0000 </r>
       <r>    2.2849   -0.0000 </r>
       <r>    2.3169   -0.0000 </r>
       <r>    2.3174   -0.0000 </r>
       <r>    2.3927   -0.0000 </r>
       <r>    2.4194   -0.0000 </r>
       <r>    2.4258   -0.0000 </r>
       <r>    2.4787   -0.0000 </r>
       <r>    2.5181   -0.0000 </r>
       <r>    2.5816   -0.0000 </r>
       <r>    2.6951    0.0000 </r>
       <r>    2.7619    0.0000 </r>
       <r>    2.7906    0.0000 </r>
       <r>    2.8274    0.0000 </r>
       <r>    2.8769    0.0000 </r>
       <r>    2.9118    0.0000 </r>
       <r>    2.9181    0.0000 </r>
       <r>    3.0186    0.0000 </r>
       <r>    3.0831    0.0000 </r>
       <r>    3.1114    0.0000 </r>
       <r>    3.1720    0.0000 </r>
       <r>    3.1862    0.0000 </r>
       <r>    3.2640    0.0000 </r>
       <r>    3.4471    0.0000 </r>
       <r>    3.5797    0.0000 </r>
       <r>    3.5981    0.0000 </r>
       <r>    3.6701    0.0000 </r>
       <r>    3.7353    0.0000 </r>
       <r>    3.8107    0.0000 </r>
       <r>    3.8858    0.0000 </r>
       <r>    4.0137    0.0000 </r>
       <r>    4.1469    0.0000 </r>
       <r>    4.2636    0.0000 </r>
       <r>    4.3065    0.0000 </r>
       <r>    4.3170    0.0000 </r>
       <r>    4.6149    0.0000 </r>
       <r>    4.6813    0.0000 </r>
       <r>    4.8119    0.0000 </r>
       <r>    4.8533    0.0000 </r>
       <r>    4.9837    0.0000 </r>
       <r>    5.0403    0.0000 </r>
       <r>    5.2148    0.0000 </r>
       <r>    5.2273    0.0000 </r>
       <r>    5.2960    0.0000 </r>
       <r>    5.3374    0.0000 </r>
       <r>    5.3753    0.0000 </r>
      </set>
     </set>
    </set>
   </array>
  </eigenvalues>
  <separator name="orbital magnetization" >
   <v name="MAGDIPOLOUT">      0.00000000      0.00000000      0.00000000</v>
  </separator>
  <dos>
   <i name="efermi">      0.69400433 </i>
   <total>
    <array>
     <dimension dim="1">gridpoints</dimension>
     <dimension dim="2">spin</dimension>
     <field>energy</field>
     <field>total</field>
     <field>integrated</field>
     <set>
      <set comment="spin 1">
       <r>   -59.4713     0.0000     0.0000 </r>
       <r>   -59.2445     0.0000     0.0000 </r>
       <r>   -59.0177     0.0000     0.0000 </r>
       <r>   -58.7910     0.0000     0.0000 </r>
       <r>   -58.5642     0.0000     0.0000 </r>
       <r>   -58.3374     0.0000     0.0000 </r>
       <r>   -58.1106     0.0000     0.0000 </r>
       <r>   -57.8838     0.0000     0.0000 </r>
       <r>   -57.6570     0.0000     0.0000 </r>
       <r>   -57.4302     0.0000     0.0000 </r>
       <r>   -57.2034    -0.0000    -0.0000 </r>
       <r>   -56.9766    -0.0000    -0.0000 </r>
       <r>   -56.7498    -0.0000    -0.0000 </r>
       <r>   -56.5230    -1.3137    -0.2980 </r>
       <r>   -56.2962    57.1621    12.6662 </r>
       <r>   -56.0694     5.6750    13.9532 </r>
       <r>   -55.8426    44.6219    24.0732 </r>
       <r>   -55.6158    17.6386    28.0736 </r>
       <r>   -55.3890    -0.3245    28.0000 </r>
       <r>   -55.1622    -0.0000    28.0000 </r>
       <r>   -54.9354     0.0000    28.0000 </r>
       <r>   -54.7086     0.0000    28.0000 </r>
       <r>   -54.4818     0.0000    28.0000 </r>
       <r>   -54.2550     0.0000    28.0000 </r>
       <r>   -54.0282     0.0000    28.0000 </r>
       <r>   -53.8015     0.0000    28.0000 </r>
       <r>   -53.5747     0.0000    28.0000 </r>
       <r>   -53.3479     0.0000    28.0000 </r>
       <r>   -53.1211     0.0000    28.0000 </r>
       <r>   -52.8943     0.0000    28.0000 </r>
       <r>   -52.6675     0.0000    28.0000 </r>
       <r>   -52.4407     0.0000    28.0000 </r>
       <r>   -52.2139     0.0000    28.0000 </r>
       <r>   -51.9871     0.0000    28.0000 </r>
       <r>   -51.7603     0.0000    28.0000 </r>
       <r>   -51.5335     0.0000    28.0000 </r>
       <r>   -51.3067     0.0000    28.0000 </r>
       <r>   -51.0799     0.0000    28.0000 </r>
       <r>   -50.8531     0.0000    28.0000 </r>
       <r>   -50.6263     0.0000    28.0000 </r>
       <r>   -50.3995     0.0000    28.0000 </r>
       <r>   -50.1727     0.0000    28.0000 </r>
       <r>   -49.9459     0.0000    28.0000 </r>
       <r>   -49.7191     0.0000    28.0000 </r>
       <r>   -49.4923     0.0000    28.0000 </r>
       <r>   -49.2655     0.0000    28.0000 </r>
       <r>   -49.0387     0.0000    28.0000 </r>
       <r>   -48.8120     0.0000    28.0000 </r>
       <r>   -48.5852     0.0000    28.0000 </r>
       <r>   -48.3584     0.0000    28.0000 </r>
       <r>   -48.1316     0.0000    28.0000 </r>
       <r>   -47.9048     0.0000    28.0000 </r>
       <r>   -47.6780     0.0000    28.0000 </r>
       <r>   -47.4512     0.0000    28.0000 </r>
       <r>   -47.2244     0.0000    28.0000 </r>
       <r>   -46.9976     0.0000    28.0000 </r>
       <r>   -46.7708     0.0000    28.0000 </r>
       <r>   -46.5440     0.0000    28.0000 </r>
       <r>   -46.3172     0.0000    28.0000 </r>
       <r>   -46.0904     0.0000    28.0000 </r>
       <r>   -45.8636     0.0000    28.0000 </r>
       <r>   -45.6368     0.0000    28.0000 </r>
       <r>   -45.4100     0.0000    28.0000 </r>
       <r>   -45.1832     0.0000    28.0000 </r>
       <r>   -44.9564     0.0000    28.0000 </r>
       <r>   -44.7296     0.0000    28.0000 </r>
       <r>   -44.5028     0.0000    28.0000 </r>
       <r>   -44.2760     0.0000    28.0000 </r>
       <r>   -44.0492     0.0000    28.0000 </r>
       <r>   -43.8225     0.0000    28.0000 </r>
       <r>   -43.5957     0.0000    28.0000 </r>
       <r>   -43.3689     0.0000    28.0000 </r>
       <r>   -43.1421     0.0000    28.0000 </r>
       <r>   -42.9153     0.0000    28.0000 </r>
       <r>   -42.6885     0.0000    28.0000 </r>
       <r>   -42.4617     0.0000    28.0000 </r>
       <r>   -42.2349     0.0000    28.0000 </r>
       <r>   -42.0081     0.0000    28.0000 </r>
       <r>   -41.7813     0.0000    28.0000 </r>
       <r>   -41.5545     0.0000    28.0000 </r>
       <r>   -41.3277     0.0000    28.0000 </r>
       <r>   -41.1009     0.0000    28.0000 </r>
       <r>   -40.8741     0.0000    28.0000 </r>
       <r>   -40.6473     0.0000    28.0000 </r>
       <r>   -40.4205     0.0000    28.0000 </r>
       <r>   -40.1937     0.0000    28.0000 </r>
       <r>   -39.9669     0.0000    28.0000 </r>
       <r>   -39.7401     0.0000    28.0000 </r>
       <r>   -39.5133     0.0000    28.0000 </r>
       <r>   -39.2865     0.0000    28.0000 </r>
       <r>   -39.0597     0.0000    28.0000 </r>
       <r>   -38.8330     0.0000    28.0000 </r>
       <r>   -38.6062     0.0000    28.0000 </r>
       <r>   -38.3794     0.0000    28.0000 </r>
       <r>   -38.1526     0.0000    28.0000 </r>
       <r>   -37.9258     0.0000    28.0000 </r>
       <r>   -37.6990     0.0000    28.0000 </r>
       <r>   -37.4722     0.0000    28.0000 </r>
       <r>   -37.2454     0.0000    28.0000 </r>
       <r>   -37.0186     0.0000    28.0000 </r>
       <r>   -36.7918     0.0000    28.0000 </r>
       <r>   -36.5650     0.0000    28.0000 </r>
       <r>   -36.3382     0.0000    28.0000 </r>
       <r>   -36.1114     0.0000    28.0000 </r>
       <r>   -35.8846     0.0000    28.0000 </r>
       <r>   -35.6578     0.0000    28.0000 </r>
       <r>   -35.4310     0.0000    28.0000 </r>
       <r>   -35.2042     0.0000    28.0000 </r>
       <r>   -34.9774     0.0000    28.0000 </r>
       <r>   -34.7506     0.0000    28.0000 </r>
       <r>   -34.5238     0.0000    28.0000 </r>
       <r>   -34.2970     0.0000    28.0000 </r>
       <r>   -34.0702     0.0000    28.0000 </r>
       <r>   -33.8435     0.0000    28.0000 </r>
       <r>   -33.6167    -0.0000    28.0000 </r>
       <r>   -33.3899    -0.0000    28.0000 </r>
       <r>   -33.1631    -0.0000    28.0000 </r>
       <r>   -32.9363    -1.1172    27.7466 </r>
       <r>   -32.7095    50.5038    39.2007 </r>
       <r>   -32.4827   133.5490    69.4890 </r>
       <r>   -32.2559    64.5752    84.1343 </r>
       <r>   -32.0291    72.1862   100.5058 </r>
       <r>   -31.8023    52.0853   112.3186 </r>
       <r>   -31.5755    -1.4043   112.0001 </r>
       <r>   -31.3487    -0.0003   112.0000 </r>
       <r>   -31.1219    -0.0000   112.0000 </r>
       <r>   -30.8951     0.0000   112.0000 </r>
       <r>   -30.6683     0.0000   112.0000 </r>
       <r>   -30.4415     0.0000   112.0000 </r>
       <r>   -30.2147     0.0000   112.0000 </r>
       <r>   -29.9879     0.0000   112.0000 </r>
       <r>   -29.7611     0.0000   112.0000 </r>
       <r>   -29.5343     0.0000   112.0000 </r>
       <r>   -29.3075     0.0000   112.0000 </r>
       <r>   -29.0807     0.0000   112.0000 </r>
       <r>   -28.8539     0.0000   112.0000 </r>
       <r>   -28.6272     0.0000   112.0000 </r>
       <r>   -28.4004     0.0000   112.0000 </r>
       <r>   -28.1736     0.0000   112.0000 </r>
       <r>   -27.9468     0.0000   112.0000 </r>
       <r>   -27.7200     0.0000   112.0000 </r>
       <r>   -27.4932     0.0000   112.0000 </r>
       <r>   -27.2664     0.0000   112.0000 </r>
       <r>   -27.0396     0.0000   112.0000 </r>
       <r>   -26.8128     0.0000   112.0000 </r>
       <r>   -26.5860     0.0000   112.0000 </r>
       <r>   -26.3592     0.0000   112.0000 </r>
       <r>   -26.1324     0.0000   112.0000 </r>
       <r>   -25.9056     0.0000   112.0000 </r>
       <r>   -25.6788     0.0000   112.0000 </r>
       <r>   -25.4520     0.0000   112.0000 </r>
       <r>   -25.2252     0.0000   112.0000 </r>
       <r>   -24.9984     0.0000   112.0000 </r>
       <r>   -24.7716     0.0000   112.0000 </r>
       <r>   -24.5448     0.0000   112.0000 </r>
       <r>   -24.3180     0.0000   112.0000 </r>
       <r>   -24.0912     0.0000   112.0000 </r>
       <r>   -23.8644     0.0000   112.0000 </r>
       <r>   -23.6377     0.0000   112.0000 </r>
       <r>   -23.4109     0.0000   112.0000 </r>
       <r>   -23.1841     0.0000   112.0000 </r>
       <r>   -22.9573     0.0000   112.0000 </r>
       <r>   -22.7305     0.0000   112.0000 </r>
       <r>   -22.5037     0.0000   112.0000 </r>
       <r>   -22.2769     0.0000   112.0000 </r>
       <r>   -22.0501     0.0000   112.0000 </r>
       <r>   -21.8233     0.0000   112.0000 </r>
       <r>   -21.5965     0.0000   112.0000 </r>
       <r>   -21.3697     0.0000   112.0000 </r>
       <r>   -21.1429     0.0000   112.0000 </r>
       <r>   -20.9161     0.0000   112.0000 </r>
       <r>   -20.6893     0.0000   112.0000 </r>
       <r>   -20.4625     0.0000   112.0000 </r>
       <r>   -20.2357     0.0000   112.0000 </r>
       <r>   -20.0089     0.0000   112.0000 </r>
       <r>   -19.7821     0.0000   112.0000 </r>
       <r>   -19.5553     0.0000   112.0000 </r>
       <r>   -19.3285     0.0000   112.0000 </r>
       <r>   -19.1017     0.0000   112.0000 </r>
       <r>   -18.8749     0.0000   112.0000 </r>
       <r>   -18.6482     0.0000   112.0000 </r>
       <r>   -18.4214     0.0000   112.0000 </r>
       <r>   -18.1946     0.0000   112.0000 </r>
       <r>   -17.9678     0.0000   112.0000 </r>
       <r>   -17.7410     0.0000   112.0000 </r>
       <r>   -17.5142     0.0000   112.0000 </r>
       <r>   -17.2874     0.0000   112.0000 </r>
       <r>   -17.0606     0.0000   112.0000 </r>
       <r>   -16.8338     0.0000   112.0000 </r>
       <r>   -16.6070     0.0000   112.0000 </r>
       <r>   -16.3802     0.0000   112.0000 </r>
       <r>   -16.1534     0.0000   112.0000 </r>
       <r>   -15.9266     0.0000   112.0000 </r>
       <r>   -15.6998     0.0000   112.0000 </r>
       <r>   -15.4730     0.0000   112.0000 </r>
       <r>   -15.2462     0.0000   112.0000 </r>
       <r>   -15.0194    -0.0000   112.0000 </r>
       <r>   -14.7926    -0.0000   112.0000 </r>
       <r>   -14.5658    -0.0000   112.0000 </r>
       <r>   -14.3390    -0.1449   111.9671 </r>
       <r>   -14.1122    20.6327   116.6465 </r>
       <r>   -13.8854    69.0743   132.3123 </r>
       <r>   -13.6587    -1.3765   132.0001 </r>
       <r>   -13.4319    -0.0004   132.0000 </r>
       <r>   -13.2051    -0.0000   132.0000 </r>
       <r>   -12.9783     0.0000   132.0000 </r>
       <r>   -12.7515     0.0000   132.0000 </r>
       <r>   -12.5247     0.0000   132.0000 </r>
       <r>   -12.2979     0.0000   132.0000 </r>
       <r>   -12.0711     0.0000   132.0000 </r>
       <r>   -11.8443     0.0000   132.0000 </r>
       <r>   -11.6175     0.0000   132.0000 </r>
       <r>   -11.3907     0.0000   132.0000 </r>
       <r>   -11.1639     0.0000   132.0000 </r>
       <r>   -10.9371     0.0000   132.0000 </r>
       <r>   -10.7103     0.0000   132.0000 </r>
       <r>   -10.4835     0.0000   132.0000 </r>
       <r>   -10.2567     0.0000   132.0000 </r>
       <r>   -10.0299     0.0000   132.0000 </r>
       <r>    -9.8031     0.0000   132.0000 </r>
       <r>    -9.5763     0.0000   132.0000 </r>
       <r>    -9.3495    -0.0000   132.0000 </r>
       <r>    -9.1227    -0.0000   132.0000 </r>
       <r>    -8.8959    -0.0000   132.0000 </r>
       <r>    -8.6692    -0.0019   131.9996 </r>
       <r>    -8.4424     0.2106   132.0473 </r>
       <r>    -8.2156     3.8078   132.9109 </r>
       <r>    -7.9888     3.8193   133.7771 </r>
       <r>    -7.7620     0.9898   134.0016 </r>
       <r>    -7.5352     1.5005   134.3419 </r>
       <r>    -7.3084     4.5425   135.3721 </r>
       <r>    -7.0816     5.3323   136.5814 </r>
       <r>    -6.8548     3.3694   137.3456 </r>
       <r>    -6.6280     2.8576   137.9937 </r>
       <r>    -6.4012     4.7541   139.0719 </r>
       <r>    -6.1744     5.4823   140.3153 </r>
       <r>    -5.9476     6.8335   141.8651 </r>
       <r>    -5.7208     5.3887   143.0872 </r>
       <r>    -5.4940     8.3037   144.9704 </r>
       <r>    -5.2672     5.2358   146.1579 </r>
       <r>    -5.0404     4.4275   147.1620 </r>
       <r>    -4.8136     7.4313   148.8474 </r>
       <r>    -4.5868     6.5849   150.3408 </r>
       <r>    -4.3600     7.8619   152.1239 </r>
       <r>    -4.1332     8.0091   153.9403 </r>
       <r>    -3.9064    10.6309   156.3513 </r>
       <r>    -3.6797    12.6770   159.2264 </r>
       <r>    -3.4529     7.9142   161.0213 </r>
       <r>    -3.2261     9.4692   163.1689 </r>
       <r>    -2.9993     5.4280   164.3999 </r>
       <r>    -2.7725    10.0839   166.6869 </r>
       <r>    -2.5457     9.9811   168.9506 </r>
       <r>    -2.3189     9.6119   171.1305 </r>
       <r>    -2.0921     9.9363   173.3840 </r>
       <r>    -1.8653    12.9918   176.3305 </r>
       <r>    -1.6385    16.2024   180.0051 </r>
       <r>    -1.4117    17.7536   184.0316 </r>
       <r>    -1.1849    21.4217   188.8899 </r>
       <r>    -0.9581    20.4700   193.5324 </r>
       <r>    -0.7313    23.3332   198.8243 </r>
       <r>    -0.5045    28.1966   205.2192 </r>
       <r>    -0.2777    21.5237   210.1006 </r>
       <r>    -0.0509    23.8672   215.5136 </r>
       <r>     0.1759    40.1621   224.6222 </r>
       <r>     0.4027    32.2621   231.9391 </r>
       <r>     0.6295    35.1715   239.9158 </r>
       <r>     0.8563    37.5019   248.4211 </r>
       <r>     1.0831    25.0061   254.0924 </r>
       <r>     1.3098    20.1053   258.6521 </r>
       <r>     1.5366    33.7074   266.2968 </r>
       <r>     1.7634    37.7196   274.8514 </r>
       <r>     1.9902    44.0721   284.8468 </r>
       <r>     2.2170    42.6169   294.5121 </r>
       <r>     2.4438    49.2919   305.6913 </r>
       <r>     2.6706    42.7191   315.3798 </r>
       <r>     2.8974    34.2266   323.1422 </r>
       <r>     3.1242    28.2897   329.5582 </r>
       <r>     3.3510    26.0937   335.4761 </r>
       <r>     3.5778    27.2345   341.6528 </r>
       <r>     3.8046    21.8544   346.6093 </r>
       <r>     4.0314    22.2880   351.6641 </r>
       <r>     4.2582    20.4710   356.3068 </r>
       <r>     4.4850    25.5964   362.1120 </r>
       <r>     4.7118    27.3248   368.3091 </r>
       <r>     4.9386    20.9604   373.0628 </r>
       <r>     5.1654    23.3711   378.3633 </r>
       <r>     5.3922    21.7809   383.3031 </r>
       <r>     5.6190     3.1241   384.0116 </r>
       <r>     5.8458    -0.0513   384.0000 </r>
       <r>     6.0726    -0.0000   384.0000 </r>
       <r>     6.2994     0.0000   384.0000 </r>
       <r>     6.5261     0.0000   384.0000 </r>
       <r>     6.7529     0.0000   384.0000 </r>
       <r>     6.9797     0.0000   384.0000 </r>
       <r>     7.2065     0.0000   384.0000 </r>
       <r>     7.4333     0.0000   384.0000 </r>
       <r>     7.6601     0.0000   384.0000 </r>
       <r>     7.8869     0.0000   384.0000 </r>
       <r>     8.1137     0.0000   384.0000 </r>
       <r>     8.3405     0.0000   384.0000 </r>
       <r>     8.5673     0.0000   384.0000 </r>
      </set>
     </set>
    </array>
   </total>
  </dos>
 </calculation>
 <structure name="finalpos" >
  <crystal>
   <varray name="basis" >
    <v>       7.92942752       0.00000000       0.00000000 </v>
    <v>       0.00000000       8.24170653       0.00000000 </v>
    <v>       0.00000000       0.00000000      20.95457887 </v>
   </varray>
   <i name="volume">   1369.42394383 </i>
   <varray name="rec_basis" >
    <v>       0.12611251      -0.00000000      -0.00000000 </v>
    <v>       0.00000000       0.12133409      -0.00000000 </v>
    <v>       0.00000000       0.00000000       0.04772227 </v>
   </varray>
  </crystal>
  <varray name="positions" >
   <v>       0.00000000       0.00000000       0.35791700 </v>
   <v>       0.50000000       0.00000000       0.54712213 </v>
   <v>       0.00000000       0.50000000       0.35791700 </v>
   <v>       0.50000000       0.50000000       0.54712213 </v>
   <v>       0.75000000       0.00000000       0.45251956 </v>
   <v>       0.25000000       0.00000000       0.64172469 </v>
   <v>       0.75000000       0.50000000       0.45251956 </v>
   <v>       0.25000000       0.50000000       0.64172469 </v>
   <v>       0.25000000       0.00000000       0.45251956 </v>
   <v>       0.75000000       0.00000000       0.64172469 </v>
   <v>       0.25000000       0.50000000       0.45251956 </v>
   <v>       0.75000000       0.50000000       0.64172469 </v>
   <v>       0.00000000       0.00000000       0.54712213 </v>
   <v>       0.50000000       0.00000000       0.35791700 </v>
   <v>       0.00000000       0.50000000       0.54712213 </v>
   <v>       0.50000000       0.50000000       0.35791700 </v>
   <v>       0.00000000       0.74792877       0.45287787 </v>
   <v>       0.50000000       0.74792877       0.64208300 </v>
   <v>       0.00000000       0.25207123       0.45287787 </v>
   <v>       0.50000000       0.25207123       0.64208300 </v>
   <v>       0.75094688       0.74792877       0.54712213 </v>
   <v>       0.25094688       0.74792877       0.35791700 </v>
   <v>       0.75094688       0.25207123       0.54712213 </v>
   <v>       0.25094688       0.25207123       0.35791700 </v>
   <v>       0.24905312       0.74792877       0.54712213 </v>
   <v>       0.74905312       0.74792877       0.35791700 </v>
   <v>       0.24905312       0.25207123       0.54712213 </v>
   <v>       0.74905312       0.25207123       0.35791700 </v>
   <v>       0.00000000       0.74792877       0.64136638 </v>
   <v>       0.50000000       0.74792877       0.45216125 </v>
   <v>       0.00000000       0.25207123       0.64136638 </v>
   <v>       0.50000000       0.25207123       0.45216125 </v>
  </varray>
 </structure>
</modeling>
