unknown system                          
           1
     7.929428    0.000000    0.000000
     0.000000    8.241707    0.000000
     0.000000    0.000000   20.954579
   Ga   Ti   Al
     2    14    16
Direct configuration=     1
   0.00000000  0.00000000  0.35791700
   0.50000000  0.00000000  0.54712213
   0.00000000  0.50000000  0.35791700
   0.50000000  0.50000000  0.54712213
   0.75000000  0.00000000  0.45251956
   0.25000000  0.00000000  0.64172469
   0.75000000  0.50000000  0.45251956
   0.25000000  0.50000000  0.64172469
   0.25000000  0.00000000  0.45251956
   0.75000000  0.00000000  0.64172469
   0.25000000  0.50000000  0.45251956
   0.75000000  0.50000000  0.64172469
   0.00000000  0.00000000  0.54712213
   0.50000000  0.00000000  0.35791700
   0.00000000  0.50000000  0.54712213
   0.50000000  0.50000000  0.35791700
   0.00000000  0.74792877  0.45287787
   0.50000000  0.74792877  0.64208300
   0.00000000  0.25207123  0.45287787
   0.50000000  0.25207123  0.64208300
   0.75094688  0.74792877  0.54712213
   0.25094688  0.74792877  0.35791700
   0.75094688  0.25207123  0.54712213
   0.25094688  0.25207123  0.35791700
   0.24905312  0.74792877  0.54712213
   0.74905312  0.74792877  0.35791700
   0.24905312  0.25207123  0.54712213
   0.74905312  0.25207123  0.35791700
   0.00000000  0.74792877  0.64136638
   0.50000000  0.74792877  0.45216125
   0.00000000  0.25207123  0.64136638
   0.50000000  0.25207123  0.45216125
