  48  48   0   0
  0.3885273E+02  0.9968131E-09  0.7929428E-09  0.2602354E-08  0.5000000E-15
  1.000000000000000E-004
  CAR 
 unknown system                          
      7.40803762    -58.96912469  301      1.35033158      1.00000000
    -58.969  0.0000E+00  0.0000E+00
    -58.748  0.0000E+00  0.0000E+00
    -58.527  0.0000E+00  0.0000E+00
    -58.305  0.0000E+00  0.0000E+00
    -58.084  0.0000E+00  0.0000E+00
    -57.863  0.0000E+00  0.0000E+00
    -57.642  0.0000E+00  0.0000E+00
    -57.420  0.0000E+00  0.0000E+00
    -57.199  0.0000E+00  0.0000E+00
    -56.978  0.0000E+00  0.0000E+00
    -56.757 -0.2921E-26 -0.6463E-27
    -56.535 -0.4595E-13 -0.1017E-13
    -56.314 -0.3362E-04 -0.7439E-05
    -56.093 -0.6236E+00 -0.1380E+00
    -55.872  0.2400E+02  0.5173E+01
    -55.650  0.1759E+02  0.9065E+01
    -55.429  0.4104E+02  0.1815E+02
    -55.208  0.1014E+03  0.4059E+02
    -54.986  0.6403E+01  0.4201E+02
    -54.765 -0.2512E-01  0.4200E+02
    -54.544 -0.2510E-08  0.4200E+02
    -54.323  0.0000E+00  0.4200E+02
    -54.101  0.0000E+00  0.4200E+02
    -53.880  0.0000E+00  0.4200E+02
    -53.659  0.0000E+00  0.4200E+02
    -53.438  0.0000E+00  0.4200E+02
    -53.216  0.0000E+00  0.4200E+02
    -52.995  0.0000E+00  0.4200E+02
    -52.774  0.0000E+00  0.4200E+02
    -52.553  0.0000E+00  0.4200E+02
    -52.331  0.0000E+00  0.4200E+02
    -52.110  0.0000E+00  0.4200E+02
    -51.889  0.0000E+00  0.4200E+02
    -51.668  0.0000E+00  0.4200E+02
    -51.446  0.0000E+00  0.4200E+02
    -51.225  0.0000E+00  0.4200E+02
    -51.004  0.0000E+00  0.4200E+02
    -50.783  0.0000E+00  0.4200E+02
    -50.561  0.0000E+00  0.4200E+02
    -50.340  0.0000E+00  0.4200E+02
    -50.119  0.0000E+00  0.4200E+02
    -49.898  0.0000E+00  0.4200E+02
    -49.676  0.0000E+00  0.4200E+02
    -49.455  0.0000E+00  0.4200E+02
    -49.234  0.0000E+00  0.4200E+02
    -49.013  0.0000E+00  0.4200E+02
    -48.791  0.0000E+00  0.4200E+02
    -48.570  0.0000E+00  0.4200E+02
    -48.349  0.0000E+00  0.4200E+02
    -48.128  0.0000E+00  0.4200E+02
    -47.906  0.0000E+00  0.4200E+02
    -47.685  0.0000E+00  0.4200E+02
    -47.464  0.0000E+00  0.4200E+02
    -47.242  0.0000E+00  0.4200E+02
    -47.021  0.0000E+00  0.4200E+02
    -46.800  0.0000E+00  0.4200E+02
    -46.579  0.0000E+00  0.4200E+02
    -46.357  0.0000E+00  0.4200E+02
    -46.136  0.0000E+00  0.4200E+02
    -45.915  0.0000E+00  0.4200E+02
    -45.694  0.0000E+00  0.4200E+02
    -45.472  0.0000E+00  0.4200E+02
    -45.251  0.0000E+00  0.4200E+02
    -45.030  0.0000E+00  0.4200E+02
    -44.809  0.0000E+00  0.4200E+02
    -44.587  0.0000E+00  0.4200E+02
    -44.366  0.0000E+00  0.4200E+02
    -44.145  0.0000E+00  0.4200E+02
    -43.924  0.0000E+00  0.4200E+02
    -43.702  0.0000E+00  0.4200E+02
    -43.481  0.0000E+00  0.4200E+02
    -43.260  0.0000E+00  0.4200E+02
    -43.039  0.0000E+00  0.4200E+02
    -42.817  0.0000E+00  0.4200E+02
    -42.596  0.0000E+00  0.4200E+02
    -42.375  0.0000E+00  0.4200E+02
    -42.154  0.0000E+00  0.4200E+02
    -41.932  0.0000E+00  0.4200E+02
    -41.711  0.0000E+00  0.4200E+02
    -41.490  0.0000E+00  0.4200E+02
    -41.269  0.0000E+00  0.4200E+02
    -41.047  0.0000E+00  0.4200E+02
    -40.826  0.0000E+00  0.4200E+02
    -40.605  0.0000E+00  0.4200E+02
    -40.384  0.0000E+00  0.4200E+02
    -40.162  0.0000E+00  0.4200E+02
    -39.941  0.0000E+00  0.4200E+02
    -39.720  0.0000E+00  0.4200E+02
    -39.498  0.0000E+00  0.4200E+02
    -39.277  0.0000E+00  0.4200E+02
    -39.056  0.0000E+00  0.4200E+02
    -38.835  0.0000E+00  0.4200E+02
    -38.613  0.0000E+00  0.4200E+02
    -38.392  0.0000E+00  0.4200E+02
    -38.171  0.0000E+00  0.4200E+02
    -37.950  0.0000E+00  0.4200E+02
    -37.728  0.0000E+00  0.4200E+02
    -37.507  0.0000E+00  0.4200E+02
    -37.286  0.0000E+00  0.4200E+02
    -37.065  0.0000E+00  0.4200E+02
    -36.843  0.0000E+00  0.4200E+02
    -36.622  0.0000E+00  0.4200E+02
    -36.401  0.0000E+00  0.4200E+02
    -36.180  0.0000E+00  0.4200E+02
    -35.958  0.0000E+00  0.4200E+02
    -35.737  0.0000E+00  0.4200E+02
    -35.516  0.0000E+00  0.4200E+02
    -35.295  0.0000E+00  0.4200E+02
    -35.073  0.0000E+00  0.4200E+02
    -34.852  0.0000E+00  0.4200E+02
    -34.631  0.0000E+00  0.4200E+02
    -34.410  0.0000E+00  0.4200E+02
    -34.188  0.0000E+00  0.4200E+02
    -33.967  0.0000E+00  0.4200E+02
    -33.746  0.0000E+00  0.4200E+02
    -33.525  0.0000E+00  0.4200E+02
    -33.303 -0.7893E-35  0.4200E+02
    -33.082 -0.2168E-19  0.4200E+02
    -32.861 -0.2873E-08  0.4200E+02
    -32.640 -0.1591E-01  0.4200E+02
    -32.418  0.3790E+01  0.4283E+02
    -32.197  0.2832E+02  0.4910E+02
    -31.976  0.7750E+02  0.6625E+02
    -31.754  0.1278E+03  0.9452E+02
    -31.533  0.2120E+03  0.1414E+03
    -31.312  0.1191E+03  0.1678E+03
    -31.091  0.9750E+00  0.1680E+03
    -30.869 -0.1094E-01  0.1680E+03
    -30.648 -0.7450E-09  0.1680E+03
    -30.427  0.0000E+00  0.1680E+03
    -30.206  0.0000E+00  0.1680E+03
    -29.984  0.0000E+00  0.1680E+03
    -29.763  0.0000E+00  0.1680E+03
    -29.542  0.0000E+00  0.1680E+03
    -29.321  0.0000E+00  0.1680E+03
    -29.099  0.0000E+00  0.1680E+03
    -28.878  0.0000E+00  0.1680E+03
    -28.657  0.0000E+00  0.1680E+03
    -28.436  0.0000E+00  0.1680E+03
    -28.214  0.0000E+00  0.1680E+03
    -27.993  0.0000E+00  0.1680E+03
    -27.772  0.0000E+00  0.1680E+03
    -27.551  0.0000E+00  0.1680E+03
    -27.329  0.0000E+00  0.1680E+03
    -27.108  0.0000E+00  0.1680E+03
    -26.887  0.0000E+00  0.1680E+03
    -26.666  0.0000E+00  0.1680E+03
    -26.444  0.0000E+00  0.1680E+03
    -26.223  0.0000E+00  0.1680E+03
    -26.002  0.0000E+00  0.1680E+03
    -25.781  0.0000E+00  0.1680E+03
    -25.559  0.0000E+00  0.1680E+03
    -25.338  0.0000E+00  0.1680E+03
    -25.117  0.0000E+00  0.1680E+03
    -24.896  0.0000E+00  0.1680E+03
    -24.674  0.0000E+00  0.1680E+03
    -24.453  0.0000E+00  0.1680E+03
    -24.232  0.0000E+00  0.1680E+03
    -24.010  0.0000E+00  0.1680E+03
    -23.789  0.0000E+00  0.1680E+03
    -23.568  0.0000E+00  0.1680E+03
    -23.347  0.0000E+00  0.1680E+03
    -23.125  0.0000E+00  0.1680E+03
    -22.904  0.0000E+00  0.1680E+03
    -22.683  0.0000E+00  0.1680E+03
    -22.462  0.0000E+00  0.1680E+03
    -22.240  0.0000E+00  0.1680E+03
    -22.019  0.0000E+00  0.1680E+03
    -21.798  0.0000E+00  0.1680E+03
    -21.577  0.0000E+00  0.1680E+03
    -21.355  0.0000E+00  0.1680E+03
    -21.134  0.0000E+00  0.1680E+03
    -20.913  0.0000E+00  0.1680E+03
    -20.692  0.0000E+00  0.1680E+03
    -20.470  0.0000E+00  0.1680E+03
    -20.249  0.0000E+00  0.1680E+03
    -20.028  0.0000E+00  0.1680E+03
    -19.807  0.0000E+00  0.1680E+03
    -19.585  0.0000E+00  0.1680E+03
    -19.364  0.0000E+00  0.1680E+03
    -19.143  0.0000E+00  0.1680E+03
    -18.922  0.0000E+00  0.1680E+03
    -18.700  0.0000E+00  0.1680E+03
    -18.479  0.0000E+00  0.1680E+03
    -18.258  0.0000E+00  0.1680E+03
    -18.037  0.0000E+00  0.1680E+03
    -17.815  0.0000E+00  0.1680E+03
    -17.594  0.0000E+00  0.1680E+03
    -17.373  0.0000E+00  0.1680E+03
    -17.152  0.0000E+00  0.1680E+03
    -16.930  0.0000E+00  0.1680E+03
    -16.709  0.0000E+00  0.1680E+03
    -16.488  0.0000E+00  0.1680E+03
    -16.266  0.0000E+00  0.1680E+03
    -16.045  0.0000E+00  0.1680E+03
    -15.824  0.0000E+00  0.1680E+03
    -15.603  0.0000E+00  0.1680E+03
    -15.381  0.0000E+00  0.1680E+03
    -15.160  0.0000E+00  0.1680E+03
    -14.939  0.0000E+00  0.1680E+03
    -14.718  0.0000E+00  0.1680E+03
    -14.496 -0.9985E-36  0.1680E+03
    -14.275 -0.4597E-20  0.1680E+03
    -14.054 -0.1068E-08  0.1680E+03
    -13.833 -0.1240E-01  0.1680E+03
    -13.611  0.1733E+01  0.1684E+03
    -13.390  0.9718E+02  0.1899E+03
    -13.169  0.3762E+02  0.1982E+03
    -12.948 -0.9267E+00  0.1980E+03
    -12.726 -0.9394E-04  0.1980E+03
    -12.505 -0.2818E-12  0.1980E+03
    -12.284  0.0000E+00  0.1980E+03
    -12.063  0.0000E+00  0.1980E+03
    -11.841  0.0000E+00  0.1980E+03
    -11.620  0.0000E+00  0.1980E+03
    -11.399  0.0000E+00  0.1980E+03
    -11.178  0.0000E+00  0.1980E+03
    -10.956  0.0000E+00  0.1980E+03
    -10.735  0.0000E+00  0.1980E+03
    -10.514  0.0000E+00  0.1980E+03
    -10.293  0.0000E+00  0.1980E+03
    -10.071  0.0000E+00  0.1980E+03
     -9.850  0.0000E+00  0.1980E+03
     -9.629  0.0000E+00  0.1980E+03
     -9.408  0.0000E+00  0.1980E+03
     -9.186  0.0000E+00  0.1980E+03
     -8.965 -0.4586E-39  0.1980E+03
     -8.744 -0.5381E-23  0.1980E+03
     -8.522 -0.3089E-11  0.1980E+03
     -8.301 -0.7834E-04  0.1980E+03
     -8.080 -0.3491E-01  0.1980E+03
     -7.859  0.2911E+01  0.1986E+03
     -7.637  0.4341E+01  0.1996E+03
     -7.416  0.3825E+01  0.2004E+03
     -7.195  0.7208E+01  0.2020E+03
     -6.974 -0.1806E+00  0.2020E+03
     -6.752  0.1223E+01  0.2023E+03
     -6.531  0.6059E+01  0.2036E+03
     -6.310  0.4681E+01  0.2046E+03
     -6.089  0.7115E+01  0.2062E+03
     -5.867  0.6564E+01  0.2077E+03
     -5.646  0.9808E+01  0.2098E+03
     -5.425  0.6736E+01  0.2113E+03
     -5.204  0.9727E+01  0.2135E+03
     -4.982  0.1122E+02  0.2160E+03
     -4.761  0.8871E+01  0.2179E+03
     -4.540  0.8662E+01  0.2198E+03
     -4.319  0.1304E+02  0.2227E+03
     -4.097  0.8846E+01  0.2247E+03
     -3.876  0.1511E+02  0.2280E+03
     -3.655  0.1138E+02  0.2305E+03
     -3.434  0.1661E+02  0.2342E+03
     -3.212  0.1572E+02  0.2377E+03
     -2.991  0.1460E+02  0.2409E+03
     -2.770  0.1352E+02  0.2439E+03
     -2.549  0.1220E+02  0.2466E+03
     -2.327  0.1244E+02  0.2494E+03
     -2.106  0.1505E+02  0.2527E+03
     -1.885  0.1313E+02  0.2556E+03
     -1.664  0.1453E+02  0.2588E+03
     -1.442  0.1826E+02  0.2629E+03
     -1.221  0.2232E+02  0.2678E+03
     -1.000  0.2296E+02  0.2729E+03
     -0.778  0.2637E+02  0.2787E+03
     -0.557  0.2974E+02  0.2853E+03
     -0.336  0.3363E+02  0.2927E+03
     -0.115  0.3113E+02  0.2996E+03
      0.107  0.3444E+02  0.3072E+03
      0.328  0.3966E+02  0.3160E+03
      0.549  0.4569E+02  0.3261E+03
      0.770  0.4299E+02  0.3356E+03
      0.992  0.4413E+02  0.3454E+03
      1.213  0.4635E+02  0.3557E+03
      1.434  0.5574E+02  0.3680E+03
      1.655  0.5093E+02  0.3793E+03
      1.877  0.5826E+02  0.3922E+03
      2.098  0.5570E+02  0.4045E+03
      2.319  0.4632E+02  0.4147E+03
      2.540  0.4689E+02  0.4251E+03
      2.762  0.6338E+02  0.4391E+03
      2.983  0.7068E+02  0.4548E+03
      3.204  0.7217E+02  0.4707E+03
      3.425  0.5385E+02  0.4826E+03
      3.647  0.3941E+02  0.4914E+03
      3.868  0.3753E+02  0.4997E+03
      4.089  0.3006E+02  0.5063E+03
      4.310  0.2419E+02  0.5117E+03
      4.532  0.1491E+01  0.5120E+03
      4.753 -0.2409E-01  0.5120E+03
      4.974 -0.8779E-06  0.5120E+03
      5.195  0.0000E+00  0.5120E+03
      5.417  0.0000E+00  0.5120E+03
      5.638  0.0000E+00  0.5120E+03
      5.859  0.0000E+00  0.5120E+03
      6.080  0.0000E+00  0.5120E+03
      6.302  0.0000E+00  0.5120E+03
      6.523  0.0000E+00  0.5120E+03
      6.744  0.0000E+00  0.5120E+03
      6.966  0.0000E+00  0.5120E+03
      7.187  0.0000E+00  0.5120E+03
      7.408  0.0000E+00  0.5120E+03
