   48   48    1    1
  0.3885273E+02  0.9968131E-09  0.7929428E-09  0.2602354E-08  0.5000000E-15
  1.000000000000000E-004
  CAR 
 unknown system                          
    363     11    256
 
  0.1276756E-14  0.1276756E-14  0.1276756E-14  0.5000000E-01
      1        -55.951981   1.000000
      2        -55.950977   1.000000
      3        -55.886161   1.000000
      4        -55.669180   1.000000
      5        -55.668165   1.000000
      6        -55.619460   1.000000
      7        -55.565060   1.000000
      8        -55.459791   1.000000
      9        -55.458693   1.000000
     10        -55.417324   1.000000
     11        -55.414746   1.000000
     12        -55.318096   1.000000
     13        -55.303419   1.000000
     14        -55.284624   1.000000
     15        -55.281296   1.000000
     16        -55.276637   1.000000
     17        -55.265010   1.000000
     18        -55.264031   1.000000
     19        -55.260862   1.000000
     20        -55.250647   1.000000
     21        -55.245192   1.000000
     22        -32.383366   1.000000
     23        -32.382840   1.000000
     24        -32.320336   1.000000
     25        -32.174740   1.000000
     26        -32.174453   1.000000
     27        -32.121225   1.000000
     28        -32.103576   1.000000
     29        -32.094503   1.000000
     30        -32.088014   1.000000
     31        -32.085416   1.000000
     32        -32.085056   1.000000
     33        -32.013570   1.000000
     34        -31.956879   1.000000
     35        -31.901775   1.000000
     36        -31.883682   1.000000
     37        -31.869473   1.000000
     38        -31.866541   1.000000
     39        -31.864157   1.000000
     40        -31.834037   1.000000
     41        -31.818598   1.000000
     42        -31.811602   1.000000
     43        -31.805559   1.000000
     44        -31.798750   1.000000
     45        -31.768071   1.000000
     46        -31.767103   1.000000
     47        -31.766255   1.000000
     48        -31.763615   1.000000
     49        -31.750023   1.000000
     50        -31.743891   1.000000
     51        -31.714718   1.000000
     52        -31.706045   1.000000
     53        -31.697559   1.000000
     54        -31.691829   1.000000
     55        -31.686572   1.000000
     56        -31.681725   1.000000
     57        -31.675076   1.000000
     58        -31.668491   1.000000
     59        -31.662313   1.000000
     60        -31.660724   1.000000
     61        -31.653056   1.000000
     62        -31.649068   1.000000
     63        -31.630598   1.000000
     64        -31.630404   1.000000
     65        -31.622017   1.000000
     66        -31.610582   1.000000
     67        -31.607788   1.000000
     68        -31.589366   1.000000
     69        -31.556919   1.000000
     70        -31.552297   1.000000
     71        -31.540927   1.000000
     72        -31.536844   1.000000
     73        -31.488124   1.000000
     74        -31.461238   1.000000
     75        -31.443528   1.000000
     76        -31.443049   1.000000
     77        -31.435484   1.000000
     78        -31.432437   1.000000
     79        -31.428336   1.000000
     80        -31.409797   1.000000
     81        -31.384852   1.000000
     82        -31.375308   1.000000
     83        -31.362305   1.000000
     84        -31.360481   1.000000
     85        -13.565213   1.000000
     86        -13.564727   1.000000
     87        -13.539079   1.000000
     88        -13.533446   1.000000
     89        -13.525460   1.000000
     90        -13.520121   1.000000
     91        -13.493229   1.000000
     92        -13.486194   1.000000
     93        -13.477687   1.000000
     94        -13.472777   1.000000
     95        -13.374850   1.000000
     96        -13.358627   1.000000
     97        -13.339540   1.000000
     98        -13.310221   1.000000
     99        -13.287908   1.000000
    100         -8.012236   1.000000
    101         -7.342157   1.000000
    102         -6.429784   1.000000
    103         -6.144455   1.000000
    104         -5.878650   1.000000
    105         -5.530351   1.000000
    106         -5.344867   1.000000
    107         -5.014225   1.000000
    108         -4.981365   1.000000
    109         -4.782775   1.000000
    110         -4.756671   1.000000
    111         -4.645573   1.000000
    112         -4.324121   1.000000
    113         -4.216798   1.000000
    114         -4.041676   1.000000
    115         -4.037664   1.000000
    116         -3.873775   1.000000
    117         -3.629360   1.000000
    118         -3.498499   1.000000
    119         -3.486533   1.000000
    120         -3.314856   1.000000
    121         -3.230883   1.000000
    122         -3.041111   1.000000
    123         -2.660542   1.000000
    124         -2.503069   1.000000
    125         -2.366405   1.000000
    126         -2.338676   1.000000
    127         -1.996557   1.000000
    128         -1.752713   1.000000
    129         -1.412596   1.000000
    130         -1.406987   1.000000
    131         -1.361152   1.000000
    132         -1.318824   1.000000
    133         -1.305385   1.000000
    134         -1.275775   1.000000
    135         -1.158100   1.000000
    136         -1.072284   1.000000
    137         -0.990328   1.000000
    138         -0.925096   1.000000
    139         -0.854128   1.000000
    140         -0.713982   1.000000
    141         -0.692869   1.000000
    142         -0.664250   1.000000
    143         -0.518567   1.000000
    144         -0.473085   1.000000
    145         -0.393253   1.000000
    146         -0.320316   1.000000
    147         -0.262915   1.000000
    148         -0.165468   1.000000
    149         -0.070728   1.000000
    150         -0.044460   1.000000
    151          0.000585   1.000000
    152          0.007456   1.000000
    153          0.096127   1.000000
    154          0.149289   1.000000
    155          0.197837   1.000000
    156          0.237305   1.000000
    157          0.255276   1.000000
    158          0.258315   1.000000
    159          0.342333   1.000000
    160          0.398321   1.000000
    161          0.447201   1.000000
    162          0.499720   1.000000
    163          0.554587   1.000000
    164          0.626136   1.000000
    165          0.626558   1.000000
    166          0.687474   1.000000
    167          0.723402   1.000000
    168          0.769573   1.000000
    169          0.818346   1.000000
    170          0.867793   1.000000
    171          0.913077   1.000000
    172          1.011758   1.000009
    173          1.028952   1.000027
    174          1.050828   1.000096
    175          1.064280   1.000199
    176          1.065026   1.000207
    177          1.143651   1.006404
    178          1.191558   1.023633
    179          1.267944   0.995907
    180          1.278300   0.966767
    181          1.287644   0.931710
    182          1.351847   0.487175
    183          1.381056   0.253094
    184          1.419804   0.041983
    185          1.427062   0.018796
    186          1.471953  -0.035447
    187          1.487004  -0.032917
    188          1.542436  -0.010231
    189          1.550558  -0.007936
    190          1.590416  -0.001783
    191          1.650696  -0.000092
    192          1.682919  -0.000013
    193          1.770339  -0.000000
    194          1.788624  -0.000000
    195          1.793824  -0.000000
    196          1.816632  -0.000000
    197          1.872483  -0.000000
    198          1.895986  -0.000000
    199          1.919980  -0.000000
    200          1.932022  -0.000000
    201          2.017848  -0.000000
    202          2.040139  -0.000000
    203          2.104467  -0.000000
    204          2.163279  -0.000000
    205          2.169760  -0.000000
    206          2.240492  -0.000000
    207          2.250479  -0.000000
    208          2.301316  -0.000000
    209          2.333111  -0.000000
    210          2.408677  -0.000000
    211          2.415175  -0.000000
    212          2.432875  -0.000000
    213          2.474827  -0.000000
    214          2.520488  -0.000000
    215          2.544313  -0.000000
    216          2.604103  -0.000000
    217          2.639389  -0.000000
    218          2.683873  -0.000000
    219          2.714643  -0.000000
    220          2.752815  -0.000000
    221          2.776543  -0.000000
    222          2.780052  -0.000000
    223          2.820295  -0.000000
    224          2.859193  -0.000000
    225          2.874246  -0.000000
    226          2.880586  -0.000000
    227          2.915895  -0.000000
    228          2.916466  -0.000000
    229          2.956775  -0.000000
    230          2.996662  -0.000000
    231          3.024890  -0.000000
    232          3.049396  -0.000000
    233          3.089794  -0.000000
    234          3.094597  -0.000000
    235          3.099515  -0.000000
    236          3.174853  -0.000000
    237          3.210458  -0.000000
    238          3.228344  -0.000000
    239          3.278917  -0.000000
    240          3.315270  -0.000000
    241          3.344170  -0.000000
    242          3.396778   0.000000
    243          3.416929   0.000000
    244          3.478197   0.000000
    245          3.609310   0.000000
    246          3.650172   0.000000
    247          3.679066   0.000000
    248          3.736735   0.000000
    249          3.834242   0.000000
    250          3.868376   0.000000
    251          3.939207   0.000000
    252          4.049740   0.000000
    253          4.108685   0.000000
    254          4.134521   0.000000
    255          4.194540   0.000000
    256          4.390894   0.000000
 
  0.2500000E+00  0.1249001E-14  0.1290634E-14  0.1000000E+00
      1        -55.951981   1.000000
      2        -55.950977   1.000000
      3        -55.886161   1.000000
      4        -55.669180   1.000000
      5        -55.668165   1.000000
      6        -55.619460   1.000000
      7        -55.565060   1.000000
      8        -55.459791   1.000000
      9        -55.458693   1.000000
     10        -55.417324   1.000000
     11        -55.414746   1.000000
     12        -55.318096   1.000000
     13        -55.303418   1.000000
     14        -55.284626   1.000000
     15        -55.281296   1.000000
     16        -55.276637   1.000000
     17        -55.265011   1.000000
     18        -55.264031   1.000000
     19        -55.260862   1.000000
     20        -55.250639   1.000000
     21        -55.245200   1.000000
     22        -32.383365   1.000000
     23        -32.382840   1.000000
     24        -32.320337   1.000000
     25        -32.174740   1.000000
     26        -32.174452   1.000000
     27        -32.121226   1.000000
     28        -32.103576   1.000000
     29        -32.094505   1.000000
     30        -32.088015   1.000000
     31        -32.085417   1.000000
     32        -32.085056   1.000000
     33        -32.013570   1.000000
     34        -31.956877   1.000000
     35        -31.901775   1.000000
     36        -31.883683   1.000000
     37        -31.869340   1.000000
     38        -31.866651   1.000000
     39        -31.864155   1.000000
     40        -31.834037   1.000000
     41        -31.818599   1.000000
     42        -31.811601   1.000000
     43        -31.805588   1.000000
     44        -31.798752   1.000000
     45        -31.768051   1.000000
     46        -31.766997   1.000000
     47        -31.766189   1.000000
     48        -31.763702   1.000000
     49        -31.749934   1.000000
     50        -31.743887   1.000000
     51        -31.715444   1.000000
     52        -31.705898   1.000000
     53        -31.697564   1.000000
     54        -31.691764   1.000000
     55        -31.686398   1.000000
     56        -31.681704   1.000000
     57        -31.675175   1.000000
     58        -31.667882   1.000000
     59        -31.662529   1.000000
     60        -31.660709   1.000000
     61        -31.653415   1.000000
     62        -31.649072   1.000000
     63        -31.630837   1.000000
     64        -31.630144   1.000000
     65        -31.622021   1.000000
     66        -31.609970   1.000000
     67        -31.607805   1.000000
     68        -31.589907   1.000000
     69        -31.556923   1.000000
     70        -31.552259   1.000000
     71        -31.540926   1.000000
     72        -31.536797   1.000000
     73        -31.488119   1.000000
     74        -31.461237   1.000000
     75        -31.443519   1.000000
     76        -31.443054   1.000000
     77        -31.435487   1.000000
     78        -31.432442   1.000000
     79        -31.428325   1.000000
     80        -31.409802   1.000000
     81        -31.384848   1.000000
     82        -31.375309   1.000000
     83        -31.362304   1.000000
     84        -31.360494   1.000000
     85        -13.565207   1.000000
     86        -13.564727   1.000000
     87        -13.539065   1.000000
     88        -13.533458   1.000000
     89        -13.525457   1.000000
     90        -13.520118   1.000000
     91        -13.493228   1.000000
     92        -13.486195   1.000000
     93        -13.477687   1.000000
     94        -13.472778   1.000000
     95        -13.374849   1.000000
     96        -13.358628   1.000000
     97        -13.339540   1.000000
     98        -13.310220   1.000000
     99        -13.287908   1.000000
    100         -7.928290   1.000000
    101         -7.358305   1.000000
    102         -6.689203   1.000000
    103         -6.298443   1.000000
    104         -5.741873   1.000000
    105         -5.511461   1.000000
    106         -5.201701   1.000000
    107         -5.153455   1.000000
    108         -5.061279   1.000000
    109         -4.656871   1.000000
    110         -4.522438   1.000000
    111         -4.422790   1.000000
    112         -4.323738   1.000000
    113         -4.298217   1.000000
    114         -4.006093   1.000000
    115         -3.853885   1.000000
    116         -3.847349   1.000000
    117         -3.647921   1.000000
    118         -3.559738   1.000000
    119         -3.504231   1.000000
    120         -3.276300   1.000000
    121         -3.269856   1.000000
    122         -3.002783   1.000000
    123         -2.783260   1.000000
    124         -2.461738   1.000000
    125         -2.395703   1.000000
    126         -2.280237   1.000000
    127         -2.233475   1.000000
    128         -1.950202   1.000000
    129         -1.694359   1.000000
    130         -1.613550   1.000000
    131         -1.539025   1.000000
    132         -1.508888   1.000000
    133         -1.320549   1.000000
    134         -1.250587   1.000000
    135         -1.136566   1.000000
    136         -1.100279   1.000000
    137         -0.954132   1.000000
    138         -0.872750   1.000000
    139         -0.786806   1.000000
    140         -0.673899   1.000000
    141         -0.572942   1.000000
    142         -0.569896   1.000000
    143         -0.460834   1.000000
    144         -0.415907   1.000000
    145         -0.360917   1.000000
    146         -0.323184   1.000000
    147         -0.306102   1.000000
    148         -0.208981   1.000000
    149         -0.050487   1.000000
    150         -0.017531   1.000000
    151          0.035529   1.000000
    152          0.052411   1.000000
    153          0.082662   1.000000
    154          0.149424   1.000000
    155          0.182691   1.000000
    156          0.271994   1.000000
    157          0.318410   1.000000
    158          0.344825   1.000000
    159          0.413303   1.000000
    160          0.413814   1.000000
    161          0.484601   1.000000
    162          0.520911   1.000000
    163          0.555623   1.000000
    164          0.634736   1.000000
    165          0.638908   1.000000
    166          0.691002   1.000000
    167          0.747329   1.000000
    168          0.769820   1.000000
    169          0.803631   1.000000
    170          0.873614   1.000000
    171          0.930668   1.000000
    172          0.962949   1.000000
    173          1.008931   1.000008
    174          1.058546   1.000147
    175          1.071179   1.000286
    176          1.073414   1.000320
    177          1.145838   1.006896
    178          1.205169   1.029744
    179          1.215814   1.033571
    180          1.271531   0.986914
    181          1.289956   0.921693
    182          1.311489   0.802831
    183          1.380787   0.255035
    184          1.389383   0.195803
    185          1.426466   0.020513
    186          1.454513  -0.028940
    187          1.487270  -0.032831
    188          1.610842  -0.000715
    189          1.617116  -0.000530
    190          1.667811  -0.000034
    191          1.669265  -0.000031
    192          1.727816  -0.000001
    193          1.734117  -0.000000
    194          1.763986  -0.000000
    195          1.847213  -0.000000
    196          1.871435  -0.000000
    197          1.906477  -0.000000
    198          1.954136  -0.000000
    199          1.959968  -0.000000
    200          2.010212  -0.000000
    201          2.055548  -0.000000
    202          2.114669  -0.000000
    203          2.135316  -0.000000
    204          2.169859  -0.000000
    205          2.184505  -0.000000
    206          2.231452  -0.000000
    207          2.248645  -0.000000
    208          2.336827  -0.000000
    209          2.346966  -0.000000
    210          2.413837  -0.000000
    211          2.456769  -0.000000
    212          2.474202  -0.000000
    213          2.503772  -0.000000
    214          2.560417  -0.000000
    215          2.583400  -0.000000
    216          2.592803  -0.000000
    217          2.602159  -0.000000
    218          2.639081  -0.000000
    219          2.708760  -0.000000
    220          2.729202  -0.000000
    221          2.761538  -0.000000
    222          2.784923  -0.000000
    223          2.792037  -0.000000
    224          2.814307  -0.000000
    225          2.856153  -0.000000
    226          2.857703  -0.000000
    227          2.918837  -0.000000
    228          2.936629  -0.000000
    229          2.962724  -0.000000
    230          2.967725  -0.000000
    231          3.003566  -0.000000
    232          3.018592  -0.000000
    233          3.051084  -0.000000
    234          3.094724  -0.000000
    235          3.122509  -0.000000
    236          3.149855  -0.000000
    237          3.181472  -0.000000
    238          3.209417  -0.000000
    239          3.263211  -0.000000
    240          3.297144  -0.000000
    241          3.349623  -0.000000
    242          3.433051   0.000000
    243          3.475203   0.000000
    244          3.560432   0.000000
    245          3.583184   0.000000
    246          3.633187   0.000000
    247          3.656161   0.000000
    248          3.742285   0.000000
    249          3.848303   0.000000
    250          3.855622   0.000000
    251          3.889613   0.000000
    252          3.968792   0.000000
    253          4.052619   0.000000
    254          4.122494   0.000000
    255          4.238697   0.000000
    256          4.291831   0.000000
 
  0.5000000E+00  0.1276756E-14  0.8437695E-14  0.5000000E-01
      1        -55.951979   1.000000
      2        -55.950975   1.000000
      3        -55.886160   1.000000
      4        -55.669178   1.000000
      5        -55.668164   1.000000
      6        -55.619458   1.000000
      7        -55.565058   1.000000
      8        -55.459790   1.000000
      9        -55.458692   1.000000
     10        -55.417323   1.000000
     11        -55.414744   1.000000
     12        -55.318093   1.000000
     13        -55.303416   1.000000
     14        -55.284625   1.000000
     15        -55.281294   1.000000
     16        -55.276635   1.000000
     17        -55.265009   1.000000
     18        -55.264029   1.000000
     19        -55.260860   1.000000
     20        -55.250630   1.000000
     21        -55.245206   1.000000
     22        -32.383364   1.000000
     23        -32.382838   1.000000
     24        -32.320335   1.000000
     25        -32.174734   1.000000
     26        -32.174443   1.000000
     27        -32.121224   1.000000
     28        -32.103572   1.000000
     29        -32.094501   1.000000
     30        -32.088013   1.000000
     31        -32.085415   1.000000
     32        -32.085053   1.000000
     33        -32.013569   1.000000
     34        -31.956874   1.000000
     35        -31.901772   1.000000
     36        -31.883679   1.000000
     37        -31.869187   1.000000
     38        -31.866767   1.000000
     39        -31.864142   1.000000
     40        -31.834033   1.000000
     41        -31.818596   1.000000
     42        -31.811598   1.000000
     43        -31.805608   1.000000
     44        -31.798751   1.000000
     45        -31.768029   1.000000
     46        -31.766883   1.000000
     47        -31.766110   1.000000
     48        -31.763786   1.000000
     49        -31.749840   1.000000
     50        -31.743874   1.000000
     51        -31.716129   1.000000
     52        -31.705781   1.000000
     53        -31.697558   1.000000
     54        -31.691695   1.000000
     55        -31.686220   1.000000
     56        -31.681683   1.000000
     57        -31.675264   1.000000
     58        -31.667192   1.000000
     59        -31.662825   1.000000
     60        -31.660692   1.000000
     61        -31.653769   1.000000
     62        -31.649069   1.000000
     63        -31.630959   1.000000
     64        -31.630000   1.000000
     65        -31.622020   1.000000
     66        -31.609320   1.000000
     67        -31.607821   1.000000
     68        -31.590475   1.000000
     69        -31.556922   1.000000
     70        -31.552215   1.000000
     71        -31.540920   1.000000
     72        -31.536747   1.000000
     73        -31.488107   1.000000
     74        -31.461228   1.000000
     75        -31.443501   1.000000
     76        -31.443057   1.000000
     77        -31.435484   1.000000
     78        -31.432441   1.000000
     79        -31.428309   1.000000
     80        -31.409798   1.000000
     81        -31.384838   1.000000
     82        -31.375303   1.000000
     83        -31.362303   1.000000
     84        -31.360500   1.000000
     85        -13.565201   1.000000
     86        -13.564728   1.000000
     87        -13.539051   1.000000
     88        -13.533469   1.000000
     89        -13.525453   1.000000
     90        -13.520116   1.000000
     91        -13.493228   1.000000
     92        -13.486195   1.000000
     93        -13.477686   1.000000
     94        -13.472779   1.000000
     95        -13.374849   1.000000
     96        -13.358630   1.000000
     97        -13.339541   1.000000
     98        -13.310220   1.000000
     99        -13.287908   1.000000
    100         -7.791467   1.000000
    101         -7.462980   1.000000
    102         -6.784452   1.000000
    103         -6.457763   1.000000
    104         -5.794948   1.000000
    105         -5.332539   1.000000
    106         -5.279164   1.000000
    107         -5.240978   1.000000
    108         -4.985980   1.000000
    109         -4.507625   1.000000
    110         -4.445198   1.000000
    111         -4.318497   1.000000
    112         -4.113938   1.000000
    113         -4.041881   1.000000
    114         -4.038895   1.000000
    115         -3.897448   1.000000
    116         -3.860854   1.000000
    117         -3.683674   1.000000
    118         -3.583039   1.000000
    119         -3.445366   1.000000
    120         -3.307098   1.000000
    121         -3.298513   1.000000
    122         -3.033418   1.000000
    123         -2.988373   1.000000
    124         -2.676436   1.000000
    125         -2.288448   1.000000
    126         -2.182939   1.000000
    127         -2.116350   1.000000
    128         -1.937846   1.000000
    129         -1.931875   1.000000
    130         -1.877492   1.000000
    131         -1.725977   1.000000
    132         -1.612573   1.000000
    133         -1.503593   1.000000
    134         -1.361870   1.000000
    135         -1.235440   1.000000
    136         -1.098603   1.000000
    137         -0.934141   1.000000
    138         -0.846266   1.000000
    139         -0.711045   1.000000
    140         -0.686285   1.000000
    141         -0.642753   1.000000
    142         -0.613390   1.000000
    143         -0.330762   1.000000
    144         -0.293817   1.000000
    145         -0.230257   1.000000
    146         -0.223750   1.000000
    147         -0.184973   1.000000
    148         -0.155449   1.000000
    149         -0.076328   1.000000
    150         -0.058408   1.000000
    151         -0.041631   1.000000
    152          0.035577   1.000000
    153          0.141772   1.000000
    154          0.155682   1.000000
    155          0.248450   1.000000
    156          0.278852   1.000000
    157          0.282040   1.000000
    158          0.415003   1.000000
    159          0.444211   1.000000
    160          0.466076   1.000000
    161          0.518557   1.000000
    162          0.582421   1.000000
    163          0.590353   1.000000
    164          0.643306   1.000000
    165          0.661180   1.000000
    166          0.714795   1.000000
    167          0.739290   1.000000
    168          0.798925   1.000000
    169          0.851533   1.000000
    170          0.862234   1.000000
    171          0.897301   1.000000
    172          0.950535   1.000000
    173          0.967991   1.000000
    174          1.001975   1.000005
    175          1.053540   1.000112
    176          1.104677   1.001403
    177          1.107998   1.001620
    178          1.155477   1.009407
    179          1.155521   1.009420
    180          1.287417   0.932662
    181          1.317618   0.761106
    182          1.319340   0.748833
    183          1.358635   0.429999
    184          1.370500   0.333111
    185          1.415527   0.058033
    186          1.441417  -0.013231
    187          1.548059  -0.008598
    188          1.614190  -0.000610
    189          1.671309  -0.000028
    190          1.672733  -0.000025
    191          1.726960  -0.000001
    192          1.740738  -0.000000
    193          1.781645  -0.000000
    194          1.811668  -0.000000
    195          1.849853  -0.000000
    196          1.909872  -0.000000
    197          1.965181  -0.000000
    198          1.977404  -0.000000
    199          2.022823  -0.000000
    200          2.063724  -0.000000
    201          2.107711  -0.000000
    202          2.113878  -0.000000
    203          2.145551  -0.000000
    204          2.167392  -0.000000
    205          2.173301  -0.000000
    206          2.303790  -0.000000
    207          2.307346  -0.000000
    208          2.357323  -0.000000
    209          2.382134  -0.000000
    210          2.389904  -0.000000
    211          2.439904  -0.000000
    212          2.492126  -0.000000
    213          2.557262  -0.000000
    214          2.567801  -0.000000
    215          2.583555  -0.000000
    216          2.638473  -0.000000
    217          2.655623  -0.000000
    218          2.666597  -0.000000
    219          2.675179  -0.000000
    220          2.706304  -0.000000
    221          2.746960  -0.000000
    222          2.757794  -0.000000
    223          2.814591  -0.000000
    224          2.823624  -0.000000
    225          2.824543  -0.000000
    226          2.872417  -0.000000
    227          2.875830  -0.000000
    228          2.906719  -0.000000
    229          2.926593  -0.000000
    230          2.933655  -0.000000
    231          2.966864  -0.000000
    232          2.987517  -0.000000
    233          3.012155  -0.000000
    234          3.030908  -0.000000
    235          3.084933  -0.000000
    236          3.148084  -0.000000
    237          3.169157  -0.000000
    238          3.194505  -0.000000
    239          3.289063  -0.000000
    240          3.358799   0.000000
    241          3.374062   0.000000
    242          3.443876   0.000000
    243          3.494035   0.000000
    244          3.568441   0.000000
    245          3.619252   0.000000
    246          3.698182   0.000000
    247          3.760724   0.000000
    248          3.775309   0.000000
    249          3.813585   0.000000
    250          3.900184   0.000000
    251          3.919327   0.000000
    252          3.943005   0.000000
    253          4.011871   0.000000
    254          4.038096   0.000000
    255          4.116515   0.000000
    256          4.193360   0.000000
 
  0.1276756E-14  0.2000000E+00  0.8361367E-14  0.1000000E+00
      1        -55.951885   1.000000
      2        -55.951072   1.000000
      3        -55.886160   1.000000
      4        -55.669095   1.000000
      5        -55.668248   1.000000
      6        -55.619455   1.000000
      7        -55.565063   1.000000
      8        -55.459789   1.000000
      9        -55.458695   1.000000
     10        -55.417081   1.000000
     11        -55.414994   1.000000
     12        -55.317594   1.000000
     13        -55.303289   1.000000
     14        -55.287264   1.000000
     15        -55.281798   1.000000
     16        -55.275005   1.000000
     17        -55.265338   1.000000
     18        -55.261840   1.000000
     19        -55.260823   1.000000
     20        -55.250677   1.000000
     21        -55.246174   1.000000
     22        -32.383310   1.000000
     23        -32.382880   1.000000
     24        -32.320326   1.000000
     25        -32.174691   1.000000
     26        -32.174429   1.000000
     27        -32.119590   1.000000
     28        -32.105313   1.000000
     29        -32.094468   1.000000
     30        -32.088027   1.000000