       N       E                     dE             d eps       ncg     rms          rms(c)
DAV:   1     0.353648972860E+04    0.35365E+04   -0.17651E+05  5632   0.135E+03
DAV:   2     0.149322583770E+03   -0.33872E+04   -0.32978E+04  5888   0.411E+02
DAV:   3    -0.234813939328E+03   -0.38414E+03   -0.37432E+03  9216   0.124E+02
DAV:   4    -0.304196446727E+03   -0.69383E+02   -0.68594E+02 10240   0.398E+01
DAV:   5    -0.310399267640E+03   -0.62028E+01   -0.62020E+01  7744   0.100E+01    0.457E+01
DAV:   6    -0.358662980986E+03   -0.48264E+02   -0.66742E+02  9792   0.470E+01    0.883E+01
DAV:   7    -0.293929481338E+03    0.64733E+02   -0.11097E+03  9600   0.571E+01    0.449E+01
DAV:   8    -0.303984329749E+03   -0.10055E+02   -0.46700E+02  8512   0.318E+01    0.526E+01
DAV:   9    -0.272144745425E+03    0.31840E+02   -0.29623E+02  8128   0.232E+01    0.232E+01
DAV:  10    -0.266618787063E+03    0.55260E+01   -0.99126E+01  8896   0.104E+01    0.174E+01
DAV:  11    -0.261878848003E+03    0.47399E+01   -0.22328E+01  7872   0.812E+00    0.129E+01
DAV:  12    -0.259859771534E+03    0.20191E+01   -0.97920E+00  8704   0.645E+00    0.839E+00
DAV:  13    -0.259384486501E+03    0.47529E+00   -0.10236E+01  8384   0.705E+00    0.803E+00
DAV:  14    -0.259138682456E+03    0.24580E+00   -0.58118E+00  8320   0.396E+00    0.593E+00
DAV:  15    -0.258892906398E+03    0.24578E+00   -0.29156E+00  7680   0.310E+00    0.336E+00
DAV:  16    -0.259016383080E+03   -0.12348E+00   -0.20280E+00  8448   0.313E+00    0.494E+00
DAV:  17    -0.258841428013E+03    0.17496E+00   -0.19482E+00  8448   0.231E+00    0.247E+00
DAV:  18    -0.258818646851E+03    0.22781E-01   -0.61368E-01  8448   0.184E+00    0.210E+00
DAV:  19    -0.258807556222E+03    0.11091E-01   -0.38485E-01  8448   0.107E+00    0.167E+00
DAV:  20    -0.258784397047E+03    0.23159E-01   -0.19578E-01  8192   0.915E-01    0.632E-01
DAV:  21    -0.258785597443E+03   -0.12004E-02   -0.55080E-02  8320   0.582E-01    0.608E-01
DAV:  22    -0.258783092548E+03    0.25049E-02   -0.20388E-02  8320   0.436E-01    0.368E-01
DAV:  23    -0.258784751496E+03   -0.16589E-02   -0.17934E-02  8704   0.299E-01    0.284E-01
DAV:  24    -0.258785000911E+03   -0.24941E-03   -0.59296E-03  8000   0.231E-01    0.197E-01
DAV:  25    -0.258786175270E+03   -0.11744E-02   -0.46491E-03  7488   0.122E-01    0.147E-01
DAV:  26    -0.258786642219E+03   -0.46695E-03   -0.18374E-03  8384   0.127E-01    0.112E-01
DAV:  27    -0.258787496561E+03   -0.85434E-03   -0.14042E-03  7360   0.978E-02    0.649E-02
DAV:  28    -0.258787937083E+03   -0.44052E-03   -0.65641E-04  8320   0.738E-02    0.786E-02
DAV:  29    -0.258788371194E+03   -0.43411E-03   -0.56790E-04  7552   0.560E-02    0.344E-02
DAV:  30    -0.258788671497E+03   -0.30030E-03   -0.22326E-04  7744   0.379E-02    0.447E-02
DAV:  31    -0.258788911271E+03   -0.23977E-03   -0.15928E-04  7744   0.325E-02    0.225E-02
DAV:  32    -0.258789046999E+03   -0.13573E-03   -0.71020E-05  6400   0.191E-02    0.177E-02
DAV:  33    -0.258789121690E+03   -0.74691E-04   -0.28202E-05  6336   0.168E-02    0.731E-03
DAV:  34    -0.258789409522E+03   -0.28783E-03   -0.23577E-05  6336   0.755E-03    0.685E-03
DAV:  35    -0.258789587201E+03   -0.17768E-03   -0.11735E-05  6336   0.413E-03    0.391E-03
DAV:  36    -0.258789741561E+03   -0.15436E-03   -0.14156E-05  5952   0.346E-03    0.187E-03
DAV:  37    -0.258789809621E+03   -0.68059E-04   -0.35160E-06  5440   0.191E-03    0.832E-04
DAV:  38    -0.258789851229E+03   -0.41609E-04   -0.32735E-06  5632   0.133E-03    0.451E-04
DAV:  39    -0.258789859481E+03   -0.82522E-05   -0.32371E-07  5120   0.645E-04
   1 F= -.25878986E+03 E0= -.25878536E+03  d E =-.134967E-01
