 vasp.6.5.0 16Dec24 (build Apr 17 2025 17:55:45) complex                        
  
 executed on             LinuxIFC date 2025.06.10  15:07:34
 running   64 mpi-ranks, on    1 nodes
 distrk:  each k-point on   64 cores,    1 groups
 distr:  one band on NCORE=   1 cores,   64 groups


--------------------------------------------------------------------------------------------------------


 INCAR:
   ISTART = 0
   ICHARG = 2
   PREC = N
   LREAL = .FALSE.
   ENCUT = 520
   ALGO = N
   NELM = 500
   EDIFF = 1E-05
   IBRION = -1
   ISIF = 3
   NSW = 0
   EDIFFG = -0.01
   ISMEAR = 1
   SIGMA = 0.1
   LVHAR = .TRUE.
   LVTOT = .TRUE.

 POTCAR:    PAW_PBE Ga_d 06Jul2010                
 POTCAR:    PAW_PBE Ti_sv 26Sep2005               
 POTCAR:    PAW_PBE Al 04Jan2001                  
 -----------------------------------------------------------------------------
|                                                                             |
|           W    W    AA    RRRRR   N    N  II  N    N   GGGG   !!!           |
|           W    W   A  A   R    R  NN   N  II  NN   N  G    G  !!!           |
|           W    W  A    A  R    R  N N  N  II  N N  N  G       !!!           |
|           W WW W  AAAAAA  RRRRR   N  N N  II  N  N N  G  GGG   !            |
|           WW  WW  A    A  R   R   N   NN  II  N   NN  G    G                |
|           W    W  A    A  R    R  N    N  II  N    N   GGGG   !!!           |
|                                                                             |
|     For optimal performance we recommend to set                             |
|       NCORE = 2 up to number-of-cores-per-socket                            |
|     NCORE specifies how many cores store one orbital (NPAR=cpu/NCORE).      |
|     This setting can greatly improve the performance of VASP for DFT.       |
|     The default, NCORE=1 might be grossly inefficient on modern             |
|     multi-core architectures or massively parallel machines. Do your        |
|     own testing! More info at https://www.vasp.at/wiki/index.php/NCORE      |
|     Unfortunately you need to use the default for GW and RPA                |
|     calculations (for HF NCORE is supported but not extensively tested      |
|     yet).                                                                   |
|                                                                             |
 -----------------------------------------------------------------------------

 POTCAR:    PAW_PBE Ga_d 06Jul2010                
   SHA256 =  a60ddf36e14f00ea098d9e3914b3745f1b7105e68786148f49ae384e44b4226c Ga_d/POTCAR           
   COPYR  = (c) Copyright 06Jul2010 Georg Kresse                                                    
   COPYR  = This file is part of the software VASP. Any use, copying, and all other rights are regul
   COPYR  = If you do not have a valid VASP license, you may not use, copy or distribute this file. 
   VRHFIN =Ga: s2p1                                                                                 
   LEXCH  = PE                                                                                      
   EATOM  =  2148.8298 eV,  157.9345 Ry                                                             
                                                                                                    
   TITEL  = PAW_PBE Ga_d 06Jul2010                                                                  
   LULTRA =        F    use ultrasoft PP ?                                                          
   IUNSCR =        1    unscreen: 0-lin 1-nonlin 2-no                                               
   RPACOR =    1.700    partial core radius                                                         
   POMASS =   69.723; ZVAL   =   13.000    mass and valenz                                          
   RCORE  =    2.300    outmost cutoff radius                                                       
   RWIGS  =    2.300; RWIGS  =    1.217    wigner-seitz radius (au A)                               
   ENMAX  =  282.691; ENMIN  =  212.018 eV                                                          
   ICORE  =        3    local potential                                                             
   LCOR   =        T    correct aug charges                                                         
   LPAW   =        T    paw PP                                                                      
   EAUG   =  490.690                                                                                
   DEXC   =    0.000                                                                                
   RMAX   =    2.341    core radius for proj-oper                                                   
   RAUG   =    1.300    factor for augmentation sphere                                              
   RDEP   =    2.413    radius for radial grids                                                     
   RDEPT  =    1.856    core radius for aug-charge                                                  
                                                                                                    
   Atomic configuration                                                                             
    9 entries                                                                                       
     n  l   j            E        occ.                                                              
     1  0  0.50    -10228.7831   2.0000                                                             
     2  0  0.50     -1262.1604   2.0000                                                             
     2  1  1.50     -1098.6333   6.0000                                                             
     3  0  0.50      -148.1110   2.0000                                                             
     3  1  1.50       -98.8436   6.0000                                                             
     3  2  2.50       -19.1549  10.0000                                                             
     4  0  0.50        -8.9483   2.0000                                                             
     4  1  0.50        -2.5791   1.0000                                                             
     4  3  2.50        -2.7416   0.0000                                                             
   Description                                                                                      
     l       E           TYP  RCUT    TYP  RCUT                                                     
     2    -19.1549037     23  2.300                                                                 
     2     -5.4423304     23  2.300                                                                 
     0     -8.9483111     23  2.300                                                                 
     0     68.0291300     23  2.300                                                                 
     1     -2.5790802     23  2.100                                                                 
     1     81.6349560     23  2.300                                                                 
     3      6.8029130     23  2.300                                                                 
  local pseudopotential read in
  partial core-charges read in
  partial kinetic energy density read in
  atomic valenz-charges read in
  non local Contribution for L=           2  read in
    real space projection operators read in
  non local Contribution for L=           2  read in
    real space projection operators read in
  non local Contribution for L=           0  read in
    real space projection operators read in
  non local Contribution for L=           0  read in
    real space projection operators read in
  non local Contribution for L=           1  read in
    real space projection operators read in
  non local Contribution for L=           1  read in
    real space projection operators read in
    PAW grid and wavefunctions read in
 
   number of l-projection  operators is LMAX  =           6
   number of lm-projection operators is LMMAX =          18
 
 POTCAR:    PAW_PBE Ti_sv 26Sep2005               
   SHA256 =  4d747badb5a5ea28d858fbac70885b3f8929d6fd9e5b0dbe1ecb9878dc164da1 Ti_sv/POTCAR          
   COPYR  = (c) Copyright 26Sep2005 Georg Kresse                                                    
   COPYR  = This file is part of the software VASP. Any use, copying, and all other rights are regul
   COPYR  = If you do not have a valid VASP license, you may not use, copy or distribute this file. 
   VRHFIN =Ti: 3p4s3d                                                                               
   LEXCH  = PE                                                                                      
   EATOM  =  1588.0892 eV,  116.7213 Ry                                                             
                                                                                                    
   TITEL  = PAW_PBE Ti_sv 26Sep2005                                                                 
   LULTRA =        F    use ultrasoft PP ?                                                          
   IUNSCR =        1    unscreen: 0-lin 1-nonlin 2-no                                               
   RPACOR =    2.000    partial core radius                                                         
   POMASS =   47.880; ZVAL   =   12.000    mass and valenz                                          
   RCORE  =    2.300    outmost cutoff radius                                                       
   RWIGS  =    2.300; RWIGS  =    1.217    wigner-seitz radius (au A)                               
   ENMAX  =  274.610; ENMIN  =  205.957 eV                                                          
   ICORE  =        3    local potential                                                             
   LCOR   =        T    correct aug charges                                                         
   LPAW   =        T    paw PP                                                                      
   EAUG   =  482.848                                                                                
   RMAX   =    2.348    core radius for proj-oper                                                   
   RAUG   =    1.300    factor for augmentation sphere                                              
   RDEP   =    2.381    radius for radial grids                                                     
   RDEPT  =    1.930    core radius for aug-charge                                                  
                                                                                                    
   Atomic configuration                                                                             
    8 entries                                                                                       
     n  l   j            E        occ.                                                              
     1  0  0.50     -4865.3608   2.0000                                                             
     2  0  0.50      -533.1368   2.0000                                                             
     2  1  1.50      -440.5031   6.0000                                                             
     3  0  0.50       -59.3186   2.0000                                                             
     4  0  0.50        -3.7291   1.0000                                                             
     3  1  1.50       -35.7012   6.0000                                                             
     3  2  2.50        -1.9157   3.0000                                                             
     4  3  2.50        -1.3606   0.0000                                                             
   Description                                                                                      
     l       E           TYP  RCUT    TYP  RCUT                                                     
     0    -59.3185931     23  1.800                                                                 
     0     -3.7290822     23  2.300                                                                 
     1    -35.7012045     23  2.300                                                                 
     1     -1.3605826     23  2.300                                                                 
     2     -1.9156920     23  2.300                                                                 
     2     -0.0236318     23  2.300                                                                 
     3     -1.3605826     23  2.300                                                                 
  local pseudopotential read in
  partial core-charges read in
  partial kinetic energy density read in
  atomic valenz-charges read in
  non local Contribution for L=           0  read in
    real space projection operators read in
  non local Contribution for L=           0  read in
    real space projection operators read in
  non local Contribution for L=           1  read in
    real space projection operators read in
  non local Contribution for L=           1  read in
    real space projection operators read in
  non local Contribution for L=           2  read in
    real space projection operators read in
  non local Contribution for L=           2  read in
    real space projection operators read in
    PAW grid and wavefunctions read in
 
   number of l-projection  operators is LMAX  =           6
   number of lm-projection operators is LMMAX =          18
 
 POTCAR:    PAW_PBE Al 04Jan2001                  
   SHA256 =  17880443556af62b473fe41b62a467bd001ad55d2cabe504a3f22e34d4e9db96 Al/POTCAR             
   COPYR  = (c) Copyright 04Jan2001 Georg Kresse                                                    
   COPYR  = This file is part of the software VASP. Any use, copying, and all other rights are regul
   COPYR  = If you do not have a valid VASP license, you may not use, copy or distribute this file. 
   VRHFIN =Al: s2p1                                                                                 
   LEXCH  = PE                                                                                      
   EATOM  =    53.5387 eV,    3.9350 Ry                                                             
                                                                                                    
   TITEL  = PAW_PBE Al 04Jan2001                                                                    
   LULTRA =        F    use ultrasoft PP ?                                                          
   IUNSCR =        1    unscreen: 0-lin 1-nonlin 2-no                                               
   RPACOR =    1.500    partial core radius                                                         
   POMASS =   26.981; ZVAL   =    3.000    mass and valenz                                          
   RCORE  =    1.900    outmost cutoff radius                                                       
   RWIGS  =    2.650; RWIGS  =    1.402    wigner-seitz radius (au A)                               
   ENMAX  =  240.300; ENMIN  =  180.225 eV                                                          
   ICORE  =        2    local potential                                                             
   LCOR   =        T    correct aug charges                                                         
   LPAW   =        T    paw PP                                                                      
   EAUG   =  291.052                                                                                
   DEXC   =    0.000                                                                                
   RMAX   =    1.939    core radius for proj-oper                                                   
   RAUG   =    1.300    factor for augmentation sphere                                              
   RDEP   =    1.966    radius for radial grids                                                     
   RDEPT  =    1.856    core radius for aug-charge                                                  
                                                                                                    
   Atomic configuration                                                                             
    6 entries                                                                                       
     n  l   j            E        occ.                                                              
     1  0  0.50     -1511.1048   2.0000                                                             
     2  0  0.50      -108.1629   2.0000                                                             
     2  1  1.50       -69.6402   6.0000                                                             
     3  0  0.50        -7.7528   2.0000                                                             
     3  1  1.50        -2.7121   1.0000                                                             
     3  2  2.50        -2.7212   0.0000                                                             
   Description                                                                                      
     l       E           TYP  RCUT    TYP  RCUT                                                     
     0     -7.7528455     23  1.900                                                                 
     0     -3.3096929     23  1.900                                                                 
     1     -2.7120682     23  1.900                                                                 
     1     13.6058260     23  1.900                                                                 
     2     -2.7211652      7  1.900                                                                 
  local pseudopotential read in
  partial core-charges read in
  partial kinetic energy density read in
  atomic valenz-charges read in
  non local Contribution for L=           0  read in
    real space projection operators read in
  non local Contribution for L=           0  read in
    real space projection operators read in
  non local Contribution for L=           1  read in
    real space projection operators read in
  non local Contribution for L=           1  read in
    real space projection operators read in
    PAW grid and wavefunctions read in
 
   number of l-projection  operators is LMAX  =           4
   number of lm-projection operators is LMMAX =           8
 
 -----------------------------------------------------------------------------
|                                                                             |
|               ----> ADVICE to this user running VASP <----                  |
|                                                                             |
|     You have a (more or less) 'large supercell' and for larger cells it     |
|     might be more efficient to use real-space projection operators.         |
|     Therefore, try LREAL= Auto in the INCAR file.                           |
|     Mind: For very accurate calculation, you might also keep the            |
|     reciprocal projection scheme (i.e. LREAL=.FALSE.).                      |
|                                                                             |
 -----------------------------------------------------------------------------

  PAW_PBE Ga_d 06Jul2010                :
 energy of atom  1       EATOM=-2148.8298
 kinetic energy error for atom=    0.0026 (will be added to EATOM!!)
  PAW_PBE Ti_sv 26Sep2005               :
 energy of atom  2       EATOM=-1588.0892
 kinetic energy error for atom=    0.0042 (will be added to EATOM!!)
  PAW_PBE Al 04Jan2001                  :
 energy of atom  3       EATOM=  -53.5387
 kinetic energy error for atom=    0.0002 (will be added to EATOM!!)
 
 
 POSCAR: Generated by VASPKIT code
  positions in direct lattice
  No initial velocities read in


 exchange-correlation table for PE
   RHO(1)=    0.500       N(1)  =     2000
   RHO(2)=  100.500       N(2)  =     4000
 


--------------------------------------------------------------------------------------------------------


 ion  position               nearest neighbor table
   1  0.000  0.000  0.309-  25 2.73  39 2.75  33 2.75  30 3.06
   2  0.333  0.333  0.448-  47 2.73  26 2.73  42 2.75  36 2.75  37 2.75  31 2.75  45 3.06  28 3.06

   3  0.667  0.667  0.587-  48 2.73  27 2.73  40 2.75  34 2.75  38 2.75  32 2.75  43 3.06  29 3.06

   4  0.667  0.167  0.378-  28 2.71  33 2.73  36 2.73  39 2.73  42 2.73  47 3.04  25 3.04
   5  0.000  0.500  0.517-  45 2.71  29 2.71  31 2.73  37 2.73  40 2.73  34 2.73  48 3.04  26 3.04

   6  0.333  0.833  0.656-  43 2.71  38 2.73  32 2.73  41 2.73  35 2.73  27 3.04  46 3.04
   7  0.167  0.167  0.378-  31 2.72  25 2.75  47 2.75  30 2.75  45 2.75  39 3.06  36 3.06
   8  0.500  0.500  0.517-  42 2.72  32 2.72  48 2.75  26 2.75  28 2.75  43 2.75  37 3.06  34 3.06

   9  0.833  0.833  0.656-  40 2.72  46 2.75  27 2.75  29 2.75  44 2.75  35 3.06  38 3.06
  10  0.833  0.333  0.448-  39 2.70  34 2.70  45 2.73  28 2.73  25 2.73  48 2.73  42 3.03  31 3.03

  11  0.167  0.667  0.587-  37 2.70  35 2.70  43 2.73  29 2.73  26 2.73  46 2.73  40 3.03  32 3.03

  12  0.500  0.000  0.309-  36 2.70  30 2.73  47 2.73  33 3.03
  13  0.167  0.667  0.378-  37 2.72  47 2.75  25 2.75  45 2.75  30 2.75  33 3.06  42 3.06
  14  0.500  0.000  0.517-  36 2.72  38 2.72  48 2.75  26 2.75  28 2.75  43 2.75  31 3.06  40 3.06

  15  0.833  0.333  0.656-  34 2.72  46 2.75  27 2.75  29 2.75  44 2.75  41 3.06  32 3.06
  16  0.833  0.833  0.448-  33 2.70  40 2.70  45 2.73  28 2.73  25 2.73  48 2.73  36 3.03  37 3.03

  17  0.167  0.167  0.587-  31 2.70  41 2.70  43 2.73  29 2.73  46 2.73  26 2.73  34 3.03  38 3.03

  18  0.500  0.500  0.309-  42 2.70  30 2.73  47 2.73  39 3.03
  19  0.333  0.833  0.448-  30 2.72  43 2.72  42 2.74  36 2.74  31 2.74  37 2.74  48 3.05  25 3.05

  20  0.667  0.167  0.587-  28 2.72  44 2.72  40 2.74  34 2.74  32 2.74  38 2.74  26 3.05  46 3.05

  21  0.000  0.500  0.309-  45 2.72  33 2.74  39 2.74  47 3.05
  22  0.000  0.000  0.517-  25 2.70  46 2.70  37 2.72  31 2.72  34 2.72  40 2.72  28 3.03  43 3.03

  23  0.333  0.333  0.656-  26 2.70  32 2.72  38 2.72  35 2.72  41 2.72  44 3.03  29 3.03
  24  0.667  0.667  0.378-  48 2.70  39 2.72  42 2.72  33 2.72  36 2.72  30 3.03  45 3.03
  25  0.999  0.000  0.413-  22 2.70   1 2.73  16 2.73  10 2.73   7 2.75  13 2.75  37 2.93  31 2.93
                            33 2.96  39 2.96   4 3.04  19 3.05
  26  0.333  0.334  0.552-  23 2.70   2 2.73  11 2.73  17 2.73   8 2.75  14 2.75  32 2.93  38 2.93
                            37 2.96  31 2.96   5 3.04  20 3.05
  27  0.666  0.667  0.691-   3 2.73  15 2.75   9 2.75  32 2.96  38 2.96   6 3.04
  28  0.669  0.166  0.482-   4 2.71  20 2.72  16 2.73  10 2.73   8 2.75  14 2.75  34 2.93  40 2.93
                            36 2.96  42 2.96  22 3.03   2 3.06
  29  0.002  0.499  0.621-   5 2.71  11 2.73  17 2.73  15 2.75   9 2.75  41 2.93  35 2.93  40 2.96
                            34 2.96  23 3.03   3 3.06
  30  0.335  0.832  0.343-  19 2.72  18 2.73  12 2.73   7 2.75  13 2.75  42 2.93  36 2.93  24 3.03
                             1 3.06
  31  0.165  0.166  0.483-  17 2.70  22 2.72   7 2.72   5 2.73  19 2.74   2 2.75  43 2.93  25 2.93
                            26 2.96  45 2.96  10 3.03  14 3.06
  32  0.499  0.500  0.622-  23 2.72   8 2.72   6 2.73  20 2.74   3 2.75  26 2.93  44 2.93  43 2.96
                            27 2.96  11 3.03  15 3.06
  33  0.832  0.833  0.344-  16 2.70  24 2.72   4 2.73  21 2.74   1 2.75  45 2.93  25 2.96  12 3.03
                            13 3.06
  34  0.835  0.332  0.552-  10 2.70  22 2.72  15 2.72   5 2.73  20 2.74   3 2.75  28 2.93  46 2.93
                            29 2.96  48 2.96  17 3.03   8 3.06
  35  0.168  0.665  0.690-  11 2.70  23 2.72   6 2.73  29 2.93  46 2.96   9 3.06
  36  0.501  0.998  0.413-  12 2.70  24 2.72  14 2.72   4 2.73  19 2.74   2 2.75  48 2.93  30 2.93
                            47 2.96  28 2.96  16 3.03   7 3.06
  37  0.165  0.668  0.483-  11 2.70  22 2.72  13 2.72   5 2.73  19 2.74   2 2.75  43 2.93  25 2.93
                            26 2.96  45 2.96  16 3.03   8 3.06
  38  0.499  0.002  0.622-  23 2.72  14 2.72   6 2.73  20 2.74   3 2.75  26 2.93  44 2.93  43 2.96
                            27 2.96  17 3.03   9 3.06
  39  0.832  0.335  0.344-  10 2.70  24 2.72   4 2.73  21 2.74   1 2.75  45 2.93  25 2.96  18 3.03
                             7 3.06
  40  0.835  0.834  0.552-  16 2.70  22 2.72   9 2.72   5 2.73  20 2.74   3 2.75  28 2.93  46 2.93
                            29 2.96  48 2.96  11 3.03  14 3.06
  41  0.168  0.167  0.690-  17 2.70  23 2.72   6 2.73  29 2.93  46 2.96  15 3.06
  42  0.501  0.500  0.413-  18 2.70  24 2.72   8 2.72   4 2.73  19 2.74   2 2.75  48 2.93  30 2.93
                            47 2.96  28 2.96  10 3.03  13 3.06
  43  0.331  0.834  0.552-   6 2.71  19 2.72  11 2.73  17 2.73   8 2.75  14 2.75  37 2.93  31 2.93
                            32 2.96  38 2.96  22 3.03   3 3.06
  44  0.665  0.168  0.691-  20 2.72   9 2.75  15 2.75  32 2.93  38 2.93  23 3.03
  45  0.998  0.501  0.413-   5 2.71  21 2.72  10 2.73  16 2.73  13 2.75   7 2.75  33 2.93  39 2.93
                            37 2.96  31 2.96  24 3.03   2 3.06
  46  0.001  1.000  0.621-  22 2.70  17 2.73  11 2.73   9 2.75  15 2.75  34 2.93  40 2.93  35 2.96
                            41 2.96   6 3.04  20 3.05
  47  0.334  0.333  0.343-   2 2.73  18 2.73  12 2.73  13 2.75   7 2.75  36 2.96  42 2.96   4 3.04
                            21 3.05
  48  0.667  0.666  0.482-  24 2.70   3 2.73  10 2.73  16 2.73   8 2.75  14 2.75  42 2.93  36 2.93
                            40 2.96  34 2.96   5 3.04  19 3.05
 
  LATTYP: Found a base centered monoclinic cell.
 ALAT       =    18.2914932997
 B/A-ratio  =     0.4335035630
 C/A-ratio  =     1.4227125368
 COS(beta)  =    -0.1533071409
  
  Lattice vectors:
  
 A1 = (   9.9681310671,   0.0000000000,   0.0000000000)
 A2 = (   6.8142890717,   7.2752389252,   0.0000000000)
 A3 = (  -3.6604470762,  -1.5868168496,  25.7159018676)


Analysis of symmetry for initial positions (statically):
=====================================================================
 Subroutine PRICEL returns:
 Original cell was already a primitive cell.
 

 Routine SETGRP: Setting up the symmetry group for a 
 base centered monoclinic supercell.


 Subroutine GETGRP returns: Found  2 space group operations
 (whereof  2 operations were pure point group operations)
 out of a pool of  4 trial point group operations.


The static configuration has the point symmetry C_1h.


Analysis of symmetry for dynamics (positions and initial velocities):
=====================================================================
 Subroutine PRICEL returns:
 Original cell was already a primitive cell.
 

 Routine SETGRP: Setting up the symmetry group for a 
 base centered monoclinic supercell.


 Subroutine GETGRP returns: Found  2 space group operations
 (whereof  2 operations were pure point group operations)
 out of a pool of  4 trial point group operations.


The dynamic configuration has the point symmetry C_1h.


 Subroutine INISYM returns: Found  2 space group operations
 (whereof  2 operations are pure point group operations),
 and found     1 'primitive' translations


----------------------------------------------------------------------------------------

                                     Primitive cell                                     

  volume of cell :    1864.9310

  direct lattice vectors                    reciprocal lattice vectors
     6.814289072  7.275238925  0.000000000     0.100319708  0.043488951  0.016963200
    -3.153841995  7.275238925  0.000000000    -0.100319708  0.093963580 -0.008481600
    -3.660447076 -1.586816850 25.715901868     0.000000000  0.000000000  0.038886445

  length of vectors
     9.968131067  7.929427517 26.023536834     0.110648465  0.137713963  0.038886445

  position of ions in fractional coordinates (direct lattice)
     0.000000000  1.000000000  0.308690526
     0.333333333  0.333333333  0.447624372
     0.666666667  0.666666667  0.586558218
     0.666666667  0.166666667  0.378157449
     0.000000000  0.500000000  0.517091295
     0.333333333  0.833333333  0.656025141
     0.166666667  0.166666667  0.378157449
     0.500000000  0.500000000  0.517091295
     0.833333333  0.833333333  0.656025141
     0.833333333  0.333333333  0.447624372
     0.166666667  0.666666667  0.586558218
     0.500000000  1.000000000  0.308690526
     0.166666667  0.666666667  0.378157449
     0.500000000  1.000000000  0.517091295
     0.833333333  0.333333333  0.656025141
     0.833333333  0.833333333  0.447624372
     0.166666667  0.166666667  0.586558218
     0.500000000  0.500000000  0.308690526
     0.333333333  0.833333333  0.447624372
     0.666666667  0.166666667  0.586558218
     0.000000000  0.500000000  0.308690526
     0.000000000  1.000000000  0.517091295
     0.333333333  0.333333333  0.656025141
     0.666666667  0.666666667  0.378157449
     0.999250438  0.000374781  0.413441782
     0.332583771  0.333708114  0.552375628
     0.665917104  0.667041448  0.691309474
     0.668678738  0.165660631  0.482333178
     0.002012071  0.498993964  0.621267024
     0.335345405  0.832327298  0.343399332
     0.165285850  0.166410193  0.482645597
     0.498619183  0.499743526  0.621579443
     0.831952517  0.833076860  0.343711751
     0.834714150  0.331696043  0.551536993
     0.168047483  0.665029376  0.690470839
     0.501380817  0.998362710  0.412603147
     0.165285850  0.668303957  0.482645597
     0.498619183  0.001637290  0.621579443
     0.831952517  0.334970624  0.343711751
     0.834714150  0.833589807  0.551536993
     0.168047483  0.166923140  0.690470839
     0.501380817  0.500256474  0.412603147
     0.331321262  0.834339369  0.551849412
     0.664654595  0.167672702  0.690783258
     0.997987929  0.501006036  0.412915566
     0.000749562  0.999625219  0.620740808
     0.334082896  0.332958552  0.342873117
     0.667416229  0.666291886  0.481806962

  ion indices of the primitive-cell ions
   primitive index   ion index
                 1           1
                 2           2
                 3           3
                 4           4
                 5           5
                 6           6
                 7           7
                 8           8
                 9           9
                10          10
                11          11
                12          12
                13          13
                14          14
                15          15
                16          16
                17          17
                18          18
                19          19
                20          20
                21          21
                22          22
                23          23
                24          24
                25          25
                26          26
                27          27
                28          28
                29          29
                30          30
                31          31
                32          32
                33          33
                34          34
                35          35
                36          36
                37          37
                38          38
                39          39
                40          40
                41          41
                42          42
                43          43
                44          44
                45          45
                46          46
                47          47
                48          48

----------------------------------------------------------------------------------------

 
 
 KPOINTS: K-Spacing Value to Generate K-Mesh: 0.03

Automatic generation of k-mesh.
 Grid dimensions read from file:
 generate k-points for:    4    5    1

 Generating k-lattice:

  Cartesian coordinates                     Fractional coordinates (reciprocal lattice)
     0.025079927  0.010872238  0.004240800     0.250000000 -0.000000000  0.000000000
    -0.020063942  0.018792716 -0.001696320    -0.000000000  0.200000000  0.000000000
     0.000000000  0.000000000  0.038886445     0.000000000  0.000000000  1.000000000

  Length of vectors
     0.027662116  0.027542793  0.038886445

  Shift w.r.t. Gamma in fractional coordinates (k-lattice)
     0.000000000  0.000000000  0.000000000

 -----------------------------------------------------------------------------
|                                                                             |
|           W    W    AA    RRRRR   N    N  II  N    N   GGGG   !!!           |
|           W    W   A  A   R    R  NN   N  II  NN   N  G    G  !!!           |
|           W    W  A    A  R    R  N N  N  II  N N  N  G       !!!           |
|           W WW W  AAAAAA  RRRRR   N  N N  II  N  N N  G  GGG   !            |
|           WW  WW  A    A  R   R   N   NN  II  N   NN  G    G                |
|           W    W  A    A  R    R  N    N  II  N    N   GGGG   !!!           |
|                                                                             |
|     Your reciprocal lattice and k-lattice belong to different lattice       |
|     classes:                                                                |
|                                                                             |
|        The reciprocal lattice is base-centered monoclinic,                  |
|        whereas your k-lattice is triclinic.                                 |
|                                                                             |
|     Results are often still useful ...                                      |
|                                                                             |
 -----------------------------------------------------------------------------

 WARNING: IBZKPT: internal override: KBLOWUP is changed to .FALSE.
      ... skipping the blow-up phase ...

 
 Subroutine IBZKPT returns following result:
 ===========================================
 
 Found     11 irreducible k-points:
 
 Following reciprocal coordinates:
            Coordinates               Weight
  0.000000  0.000000  0.000000      1.000000
  0.250000  0.000000  0.000000      2.000000
  0.500000  0.000000  0.000000      1.000000
  0.000000  0.200000  0.000000      2.000000
  0.250000  0.200000  0.000000      2.000000
  0.500000  0.200000  0.000000      2.000000
 -0.250000  0.200000  0.000000      2.000000
  0.000000  0.400000  0.000000      2.000000
  0.250000  0.400000  0.000000      2.000000
  0.500000  0.400000  0.000000      2.000000
 -0.250000  0.400000  0.000000      2.000000
 
 Following cartesian coordinates:
            Coordinates               Weight
  0.000000  0.000000  0.000000      1.000000
  0.025080  0.010872  0.004241      2.000000
  0.050160  0.021744  0.008482      1.000000
 -0.020064  0.018793 -0.001696      2.000000
  0.005016  0.029665  0.002544      2.000000
  0.030096  0.040537  0.006785      2.000000
 -0.045144  0.007920 -0.005937      2.000000
 -0.040128  0.037585 -0.003393      2.000000
 -0.015048  0.048458  0.000848      2.000000
  0.010032  0.059330  0.005089      2.000000
 -0.065208  0.026713 -0.007633      2.000000
 


--------------------------------------------------------------------------------------------------------




 Dimension of arrays:
   k-points           NKPTS =     11   k-points in BZ     NKDIM =     11   number of bands    NBANDS=    256
   number of dos      NEDOS =    301   number of ions     NIONS =     48
   non local maximal  LDIM  =      6   non local SUM 2l+1 LMDIM =     18
   total plane-waves  NPLWV = 403200
   max r-space proj   IRMAX =      1   max aug-charges    IRDMAX=   8613
   dimension x,y,z NGX =    56 NGY =   48 NGZ =  150
   dimension x,y,z NGXF=   112 NGYF=   96 NGZF=  300
   support grid    NGXF=   112 NGYF=   96 NGZF=  300
   ions per type =               3  21  24
   NGX,Y,Z   is equivalent  to a cutoff of   9.34, 10.06,  9.58 a.u.
   NGXF,Y,Z  is equivalent  to a cutoff of  18.68, 20.13, 19.16 a.u.

 SYSTEM =  unknown system                          
 POSCAR =  Generated by VASPKIT code               

 Startparameter for this run:
   NWRITE =      2    write-flag & timer
   PREC   = n         normal or accurate (medium, high low for compatibility)
   ISTART =      0    job   : 0-new  1-cont  2-samecut
   ICHARG =      2    charge: 1-file 2-atom 10-const
   ISPIN  =      1    spin polarized calculation?
   LNONCOLLINEAR =      F non collinear calculations
   LSORBIT =      F    spin-orbit coupling
   INIWAV =      1    electr: 0-lowe 1-rand  2-diag
   LASPH  =      F    aspherical Exc in radial PAW
 Electronic Relaxation 1
   ENCUT  =  520.0 eV  38.22 Ry    6.18 a.u.  18.53 14.74 48.39*2*pi/ulx,y,z
   ENINI  =  520.0     initial cutoff
   ENAUG  =  490.7 eV  augmentation charge cutoff
   NELM   =    500;   NELMIN=  2; NELMDL= -5     # of ELM steps 
   EDIFF  = 0.1E-04   stopping-criterion for ELM
   LREAL  =      F    real-space projection
   NLSPLINE    = F    spline interpolate recip. space projectors
   LCOMPAT=      F    compatible to vasp.4.4
   GGA_COMPAT  = T    GGA compatible to vasp.4.4-vasp.4.6
   LMAXPAW     = -100 max onsite density
   LMAXMIX     =    2 max onsite mixed and CHGCAR
   VOSKOWN=      0    Vosko Wilk Nusair interpolation
   ROPT   =    0.00000   0.00000   0.00000
 Ionic relaxation
   EDIFFG = -.1E-01   stopping-criterion for IOM
   NSW    =      0    number of steps for IOM
   NBLOCK =      1;   KBLOCK =      1    inner block; outer block 
   IBRION =     -1    ionic relax: 0-MD 1-quasi-New 2-CG
   NFREE  =      0    steps in history (QN), initial steepest desc. (CG)
   ISIF   =      3    stress and relaxation
   IWAVPR =     10    prediction:  0-non 1-charg 2-wave 3-comb
   ISYM   =      2    0-nonsym 1-usesym 2-fastsym
   LCORR  =      T    Harris-Foulkes like correction to forces

   POTIM  = 0.5000    time-step for ionic-motion
   TEIN   =    0.0    initial temperature
   TEBEG  =    0.0;   TEEND  =   0.0 temperature during run
   SMASS  =  -3.00    Nose mass-parameter (am)
   estimated Nose-frequenzy (Omega)   =  0.10E-29 period in steps = 0.13E+47 mass=  -0.227E-26a.u.
   SCALEE = 1.0000    scale energy and forces
   NPACO  =    256;   APACO  = 10.0  distance and # of slots for P.C.
   PSTRESS=    0.0 pullay stress

  Mass of Ions in am
   POMASS =  69.72 47.88 26.98
  Ionic Valenz
   ZVAL   =  13.00 12.00  3.00
  Atomic Wigner-Seitz radii
   RWIGS  =  -1.00 -1.00 -1.00
  virtual crystal weights 
   VCA    =   1.00  1.00  1.00
   NELECT =     363.0000    total number of electrons
   NUPDOWN=      -1.0000    fix difference up-down

 DOS related values:
   EMIN   =  10.00;   EMAX   =-10.00  energy-range for DOS
   EFERMI =   0.00;   METHOD = LEGACY      
   ISMEAR =     1;   SIGMA  =   0.10  broadening in eV -4-tet -1-fermi 0-gaus
   EFERMI_NEDOS =   21; number of points for ismear=-14 and -15

 Electronic relaxation 2 (details)
   IALGO  =     38    algorithm
   LDIAG  =      T    sub-space diagonalisation (order eigenvalues)
   LSUBROT=      F    optimize rotation matrix (better conditioning)
   TURBO    =      0    0=normal 1=particle mesh
   IRESTART =      0    0=no restart 2=restart with 2 vectors
   NREBOOT  =      0    no. of reboots
   NMIN     =      0    reboot dimension
   EREF     =   0.00    reference energy to select bands
   IMIX   =      4    mixing-type and parameters
     AMIX     =   0.40;   BMIX     =  1.00
     AMIX_MAG =   1.60;   BMIX_MAG =  1.00
     AMIN     =   0.10
     WC   =   100.;   INIMIX=   1;  MIXPRE=   1;  MAXMIX= -45

 Intra band minimization:
   WEIMIN = 0.0000     energy-eigenvalue tresh-hold
   EBREAK =  0.98E-08  absolut break condition
   DEPER  =   0.30     relativ break condition  

   TIME   =   0.40     timestep for ELM

  volume/ion in A,a.u.               =      38.85       262.19
  Fermi-wavevector in a.u.,A,eV,Ry     =   0.948759  1.792895 12.247210  0.900145
  Thomas-Fermi vector in A             =   2.076978
 
 Write flags
   LWAVE        =      T    write WAVECAR
   LDOWNSAMPLE  =      F    k-point downsampling of WAVECAR
   LCHARG       =      T    write CHGCAR
   LVTOT        =      F    write LOCPOT, total local potential
   LVHAR        =      T    write LOCPOT, Hartree potential only
   WRT_POTENTIAL=  hartree ionic  ! write potential to hdf5 file
   LELF         =      F    write electronic localiz. function (ELF)
   LORBIT       =      0    0 simple, 1 ext, 2 COOP (PROOUT), +10 PAW based schemes


 Python interface
   PLUGINS active      =      F    recompile with -DPLUGINS to activate
 
 Dipole corrections
   LMONO      =      F    monopole corrections only (constant potential shift)
   LDIPOL     =      F    correct potential (dipole corrections)
   IDIPOL     =      0    1-x, 2-y, 3-z, 4-all directions 
   EPSILON    =  1.0000000 bulk dielectric constant
   LVACPOTAV  =      F  vacuum potentials using an averaging scheme for the charge density
   VACPOTFLAT =  0.1000000 required flatness to determine vacuum potential
 
Coulomb truncation method
  LTRUNCATE          =      F  Coulomb kernel truncation to be used
  IDIMENSIONALITY    =      3  Dimensionality of cutoff (0 molecules / 2 surfaces)
  ISURFACE           =     -1  Direction of surface normal
  LCOARSEN           =      F  Coarsen the charge grid before padding, preferred

 
 Exchange correlation treatment:
   GGA     = PE    functional components
   XC_C    = 1    coefficients multiplying the functional components
   LIBXC   =     F    Libxc                    
   VOSKOWN =     0    Vosko Wilk Nusair interpolation
   LHFCALC =     F    Hartree Fock is set to
   LHFONE  =     F    Hartree Fock one center treatment
   AEXX    =    0.0000 exact exchange contribution

 Parameters of functionals:
   PE:
     No parameter
 
 Van der Waals corrections
   IVDW    =     0    specifies the selected vdW correction

 Linear response parameters
   LEPSILON=     F    determine dielectric tensor
   LRPA    =     F    only Hartree local field effects (RPA)
   LNABLA  =     F    use nabla operator in PAW spheres
   LVEL    =     F    velocity operator in full k-point grid
   CSHIFT  =0.1000    complex shift for real part using Kramers Kronig
   OMEGAMAX=  -1.0    maximum frequency
   DEG_THRESHOLD= 0.2000000E-02 threshold for treating states as degnerate
   RTIME   =   -0.100 relaxation time in fs
  (WPLASMAI=    0.000 imaginary part of plasma frequency in eV, 0.658/RTIME)
   DFIELD  = 0.0000000 0.0000000 0.0000000 field for delta impulse in time
 
  Optional k-point grid parameters
   LKPOINTS_OPT  =     F    use optional k-point grid
   KPOINTS_OPT_MODE=     1    mode for optional k-point grid
 
 Orbital magnetization related:
   ORBITALMAG=     F  switch on orbital magnetization
   LCHIMAG   =     F  perturbation theory with respect to B field
   DQ        =  0.001000  dq finite difference perturbation B field
   LLRAUG    =     F  two centre corrections for induced B field
   LBONE     =     F  B-component reconstruction in AE one-centre
   LVGVCALC  =     T  calculate vGv susceptibility
   LVGVAPPL  =     F  apply vGv susceptibility instead of pGv for G=0

 Random number generation:
   RANDOM_GENERATOR = DEFAULT
   PCG_SEED         = not used


--------------------------------------------------------------------------------------------------------


 Static calculation
 charge density and potential will be updated during run
 non-spin polarized calculation
 Variant of blocked Davidson
 Davidson routine will perform the subspace rotation
 perform sub-space diagonalisation
    after iterative eigenvector-optimisation
 modified Broyden-mixing scheme, WC =      100.0
 initial mixing is a Kerker type mixing with AMIX =  0.4000 and BMIX =      1.0000
 Hartree-type preconditioning will be used
 using additional bands           74
 reciprocal scheme for non local part
 use partial core corrections
 calculate Harris-corrections to forces 
   (improved forces if not selfconsistent)
 use gradient corrections 
 use of overlap-Matrix (Vanderbilt PP)
 Methfessel and Paxton  Order N= 1 SIGMA  =   0.10


--------------------------------------------------------------------------------------------------------


  energy-cutoff  :      520.00
  volume of cell :     1864.93
      direct lattice vectors                 reciprocal lattice vectors
     6.814289072  7.275238925  0.000000000     0.100319708  0.043488951  0.016963200
    -3.153841995  7.275238925  0.000000000    -0.100319708  0.093963580 -0.008481600
    -3.660447076 -1.586816850 25.715901868     0.000000000  0.000000000  0.038886445

  length of vectors
     9.968131067  7.929427517 26.023536834     0.110648465  0.137713963  0.038886445


 
 k-points in units of 2pi/SCALE and weight: K-Spacing Value to Generate K-Mesh: 0.03
   0.00000000  0.00000000  0.00000000       0.050
   0.02507993  0.01087224  0.00424080       0.100
   0.05015985  0.02174448  0.00848160       0.050
  -0.02006394  0.01879272 -0.00169632       0.100
   0.00501599  0.02966495  0.00254448       0.100
   0.03009591  0.04053719  0.00678528       0.100
  -0.04514387  0.00792048 -0.00593712       0.100
  -0.04012788  0.03758543 -0.00339264       0.100
  -0.01504796  0.04845767  0.00084816       0.100
   0.01003197  0.05932991  0.00508896       0.100
  -0.06520781  0.02671319 -0.00763344       0.100
 
 k-points in reciprocal lattice and weights: K-Spacing Value to Generate K-Mesh: 0.03
   0.00000000  0.00000000  0.00000000       0.050
   0.25000000  0.00000000  0.00000000       0.100
   0.50000000  0.00000000  0.00000000       0.050
   0.00000000  0.20000000  0.00000000       0.100
   0.25000000  0.20000000  0.00000000       0.100
   0.50000000  0.20000000  0.00000000       0.100
  -0.25000000  0.20000000  0.00000000       0.100
   0.00000000  0.40000000  0.00000000       0.100
   0.25000000  0.40000000  0.00000000       0.100
   0.50000000  0.40000000  0.00000000       0.100
  -0.25000000  0.40000000  0.00000000       0.100
 
 position of ions in fractional coordinates (direct lattice) 
   0.00000000  0.00000000  0.30869053
   0.33333333  0.33333333  0.44762437
   0.66666667  0.66666667  0.58655822
   0.66666667  0.16666667  0.37815745
   0.00000000  0.50000000  0.51709130
   0.33333333  0.83333333  0.65602514
   0.16666667  0.16666667  0.37815745
   0.50000000  0.50000000  0.51709130
   0.83333333  0.83333333  0.65602514
   0.83333333  0.33333333  0.44762437
   0.16666667  0.66666667  0.58655822
   0.50000000  0.00000000  0.30869053
   0.16666667  0.66666667  0.37815745
   0.50000000  0.00000000  0.51709130
   0.83333333  0.33333333  0.65602514
   0.83333333  0.83333333  0.44762437
   0.16666667  0.16666667  0.58655822
   0.50000000  0.50000000  0.30869053
   0.33333333  0.83333333  0.44762437
   0.66666667  0.16666667  0.58655822
   0.00000000  0.50000000  0.30869053
   0.00000000  0.00000000  0.51709130
   0.33333333  0.33333333  0.65602514
   0.66666667  0.66666667  0.37815745
   0.99925044  0.00037478  0.41344178
   0.33258377  0.33370811  0.55237563
   0.66591710  0.66704145  0.69130947
   0.66867874  0.16566063  0.48233318
   0.00201207  0.49899396  0.62126702
   0.33534540  0.83232730  0.34339933
   0.16528585  0.16641019  0.48264560
   0.49861918  0.49974353  0.62157944
   0.83195252  0.83307686  0.34371175
   0.83471415  0.33169604  0.55153699
   0.16804748  0.66502938  0.69047084
   0.50138082  0.99836271  0.41260315
   0.16528585  0.66830396  0.48264560
   0.49861918  0.00163729  0.62157944
   0.83195252  0.33497062  0.34371175
   0.83471415  0.83358981  0.55153699
   0.16804748  0.16692314  0.69047084
   0.50138082  0.50025647  0.41260315
   0.33132126  0.83433937  0.55184941
   0.66465460  0.16767270  0.69078326
   0.99798793  0.50100604  0.41291557
   0.00074956  0.99962522  0.62074081
   0.33408290  0.33295855  0.34287312
   0.66741623  0.66629189  0.48180696
 
 position of ions in cartesian coordinates  (Angst):
  -1.12994533 -0.48983533  7.93825528
  -0.41835630  4.13986139 11.51106443
   0.29323274  8.76955810 15.08387358
   2.63299372  5.46263249  9.72465986
  -3.46970632  2.81709028 13.29746900
  -2.75811728  7.44678700 16.87027815
  -0.77415082  1.82501303  9.72465986
  -0.06256178  6.45470975 13.29746900
   0.64902725 11.08440646 16.87027815
   2.98878824  7.77748085 11.51106443
  -3.11391180  5.13193864 15.08387358
   2.27719920  3.14778413  7.93825528
  -2.35107181  5.46263249  9.72465986
   1.51435922  2.81709028 13.29746900
   2.22594825  7.44678700 16.87027815
   1.41186724 11.41510031 11.51106443
  -1.53699080  1.49431918 15.08387358
   0.70027820  6.78540360  7.93825528
  -1.99527730  7.77748085 11.51106443
   1.87015373  5.13193864 15.08387358
  -2.70686633  3.14778413  7.93825528
  -1.89278532 -0.82052918 13.29746900
  -1.18119628  3.80916754 16.87027815
   1.05607272  9.10025195  9.72465986
   5.29461758  6.61645592 10.63202829
  -0.80808246  3.97091371 14.20483744
  -0.09649342  8.60061042 17.77764659
   2.26854769  5.30464384 12.40363268
  -3.83415235  2.65910163 15.97644183
  -1.59688334  7.95018605  8.83082353
  -1.16522456  1.64729780 12.41166681
  -0.45363552  6.27699451 15.98447596
   1.78363348 11.56807893  8.83885766
   2.62299463  7.61072465 14.18327120
  -3.47970541  4.96518244 17.75608034
  -1.24243640 10.25626686 10.61046205
  -2.74811819  5.29869484 12.41166681
   1.11731284  2.65315264 15.98447596
   3.35458185  7.94423705  8.83885766
   1.04010100 11.26212169 14.18327120
  -1.90875704  1.34134056 17.75608034
   0.32851196  6.63242498 10.61046205
  -2.39367125  7.60477565 14.19130533
   1.47175978  4.95923344 17.76411447
   3.70902878 10.25031786 10.61849618
  -5.41974114  6.29296357 15.96290971
  -0.02863014  4.30880907  8.81729142
   0.68295890  8.93850578 12.39010057
 


--------------------------------------------------------------------------------------------------------


 k-point     1 :   0.0000 0.0000 0.0000  plane waves:   50279
 k-point     2 :   0.2500 0.0000 0.0000  plane waves:   50275
 k-point     3 :   0.5000 0.0000 0.0000  plane waves:   50108
 k-point     4 :   0.0000 0.2000 0.0000  plane waves:   50228
 k-point     5 :   0.2500 0.2000 0.0000  plane waves:   50217
 k-point     6 :   0.5000 0.2000 0.0000  plane waves:   50163
 k-point     7 :  -0.2500 0.2000 0.0000  plane waves:   50178
 k-point     8 :   0.0000 0.4000 0.0000  plane waves:   50235
 k-point     9 :   0.2500 0.4000 0.0000  plane waves:   50228
 k-point    10 :   0.5000 0.4000 0.0000  plane waves:   50205
 k-point    11 :  -0.2500 0.4000 0.0000  plane waves:   50201

 maximum and minimum number of plane-waves per node :     50279    50108

 maximum number of plane-waves:     50279
 maximum index in each direction: 
   IXMAX=   18   IYMAX=   14   IZMAX=   48
   IXMIN=  -19   IYMIN=  -15   IZMIN=  -48


 serial   3D FFT for wavefunctions
 parallel 3D FFT for charge:
    minimum data exchange during FFTs selected (reduces bandwidth)


 total amount of memory used by VASP MPI-rank0   367676. kBytes
=======================================================================

   base                                    :      30000. kBytes
   nonl-proj                               :     277678. kBytes
   fftplans                                :       3513. kBytes
   grid                                    :      19875. kBytes
   one-center                              :        746. kBytes
   wavefun                                 :      35864. kBytes
 
     INWAV:  cpu time      0.0000: real time      0.0000
 Broyden mixing: mesh for mixing (old mesh)
   NGX = 37   NGY = 29   NGZ = 97
  (NGX  =112   NGY  = 96   NGZ  =300)
  gives a total of 104081 points

 initial charge density was supplied:
 charge density of overlapping atoms calculated
 number of electron     363.0000000 magnetization 
 keeping initial charge density in first step


--------------------------------------------------------------------------------------------------------


 Maximum index for augmentation-charges          478 (set IRDMAX)


--------------------------------------------------------------------------------------------------------


 First call to EWALD:  gamma=   0.144
 Maximum number of real-space cells   4x   4x   2
 Maximum number of reciprocal cells   2x   2x   5

    FEWALD:  cpu time      0.0026: real time      0.0026


--------------------------------------- Ionic step        1  -------------------------------------------




--------------------------------------- Iteration      1(   1)  ---------------------------------------


    POTLOK:  cpu time      0.0819: real time      0.0819
    SETDIJ:  cpu time      0.0027: real time      0.0027
     EDDAV:  cpu time     15.5585: real time     15.5598
       DOS:  cpu time      0.0007: real time      0.0006
    --------------------------------------------
      LOOP:  cpu time     15.6438: real time     15.6464

 eigenvalue-minimisations  :  5632
 total energy-change (2. order) : 0.3536490E+04  (-0.1765079E+05)
 number of electron     363.0000000 magnetization 
 augmentation part      363.0000000 magnetization 

 Free energy of the ion-electron system (eV)
  ---------------------------------------------------
  alpha Z        PSCENC =       394.08315062
  Ewald energy   TEWEN  =     94614.24334644
  -Hartree energ DENC   =   -130249.96924939
  -exchange      EXHF   =         0.00000000
  -V(xc)+E(xc)   XCENC  =       795.72298763
  PAW double counting   =     32954.13995156   -32776.60752714
  entropy T*S    EENTRO =         0.00431132
  eigenvalues    EBANDS =     -3276.31656649
  atomic energy  EATOM  =     41081.18932405
  Solvation  Ediel_sol  =         0.00000000
  ---------------------------------------------------
  free energy    TOTEN  =      3536.48972860 eV

  energy without entropy =     3536.48541728  energy(sigma->0) =     3536.48829149


--------------------------------------------------------------------------------------------------------




--------------------------------------- Iteration      1(   2)  ---------------------------------------


     EDDAV:  cpu time     16.0804: real time     16.0851
       DOS:  cpu time      0.0005: real time      0.0005
    --------------------------------------------
      LOOP:  cpu time     16.0809: real time     16.0842

 eigenvalue-minimisations  :  5888
 total energy-change (2. order) :-0.3387167E+04  (-0.3297831E+04)
 number of electron     363.0000000 magnetization 
 augmentation part      363.0000000 magnetization 

 Free energy of the ion-electron system (eV)
  ---------------------------------------------------
  alpha Z        PSCENC =       394.08315062
  Ewald energy   TEWEN  =     94614.24334644
  -Hartree energ DENC   =   -130249.96924939
  -exchange      EXHF   =         0.00000000
  -V(xc)+E(xc)   XCENC  =       795.72298763
  PAW double counting   =     32954.13995156   -32776.60752714
  entropy T*S    EENTRO =         0.00538839
  eigenvalues    EBANDS =     -6663.48478838
  atomic energy  EATOM  =     41081.18932405
  Solvation  Ediel_sol  =         0.00000000
  ---------------------------------------------------
  free energy    TOTEN  =       149.32258377 eV

  energy without entropy =      149.31719538  energy(sigma->0) =      149.32078764


--------------------------------------------------------------------------------------------------------




--------------------------------------- Iteration      1(   3)  ---------------------------------------


     EDDAV:  cpu time     24.8158: real time     24.8169
       DOS:  cpu time      0.0005: real time      0.0005
    --------------------------------------------
      LOOP:  cpu time     24.8163: real time     24.8174

 eigenvalue-minimisations  :  9216
 total energy-change (2. order) :-0.3841365E+03  (-0.3743215E+03)
 number of electron     363.0000000 magnetization 
 augmentation part      363.0000000 magnetization 

 Free energy of the ion-electron system (eV)
  ---------------------------------------------------
  alpha Z        PSCENC =       394.08315062
  Ewald energy   TEWEN  =     94614.24334644
  -Hartree energ DENC   =   -130249.96924939
  -exchange      EXHF   =         0.00000000
  -V(xc)+E(xc)   XCENC  =       795.72298763
  PAW double counting   =     32954.13995156   -32776.60752714
  entropy T*S    EENTRO =         0.00118333
  eigenvalues    EBANDS =     -7047.61710642
  atomic energy  EATOM  =     41081.18932405
  Solvation  Ediel_sol  =         0.00000000
  ---------------------------------------------------
  free energy    TOTEN  =      -234.81393933 eV

  energy without entropy =     -234.81512265  energy(sigma->0) =     -234.81433377


--------------------------------------------------------------------------------------------------------




--------------------------------------- Iteration      1(   4)  ---------------------------------------


     EDDAV:  cpu time     27.7471: real time     27.7476
       DOS:  cpu time      0.0005: real time      0.0005
    --------------------------------------------
      LOOP:  cpu time     27.7476: real time     27.7481

 eigenvalue-minimisations  : 10240
 total energy-change (2. order) :-0.6938251E+02  (-0.6859368E+02)
 number of electron     363.0000000 magnetization 
 augmentation part      363.0000000 magnetization 

 Free energy of the ion-electron system (eV)
  ---------------------------------------------------
  alpha Z        PSCENC =       394.08315062
  Ewald energy   TEWEN  =     94614.24334644
  -Hartree energ DENC   =   -130249.96924939
  -exchange      EXHF   =         0.00000000
  -V(xc)+E(xc)   XCENC  =       795.72298763
  PAW double counting   =     32954.13995156   -32776.60752714
  entropy T*S    EENTRO =         0.00734081
  eigenvalues    EBANDS =     -7117.00577131
  atomic energy  EATOM  =     41081.18932405
  Solvation  Ediel_sol  =         0.00000000
  ---------------------------------------------------
  free energy    TOTEN  =      -304.19644673 eV

  energy without entropy =     -304.20378754  energy(sigma->0) =     -304.19889367


--------------------------------------------------------------------------------------------------------




--------------------------------------- Iteration      1(   5)  ---------------------------------------


     EDDAV:  cpu time     20.7906: real time     20.7908
       DOS:  cpu time      0.0005: real time      0.0005
    CHARGE:  cpu time      0.2436: real time      0.2436
    MIXING:  cpu time      0.0009: real time      0.0009
    --------------------------------------------
      LOOP:  cpu time     21.0356: real time     21.0357

 eigenvalue-minimisations  :  7744
 total energy-change (2. order) :-0.6202821E+01  (-0.6202005E+01)
 number of electron     362.9999864 magnetization 
 augmentation part       96.5161543 magnetization 

 Broyden mixing:
  rms(total) = 0.45668E+01    rms(broyden)= 0.45667E+01
  rms(prec ) = 0.50867E+01
  weight for this iteration     100.00

 Free energy of the ion-electron system (eV)
  ---------------------------------------------------
  alpha Z        PSCENC =       394.08315062
  Ewald energy   TEWEN  =     94614.24334644
  -Hartree energ DENC   =   -130249.96924939
  -exchange      EXHF   =         0.00000000
  -V(xc)+E(xc)   XCENC  =       795.72298763
  PAW double counting   =     32954.13995156   -32776.60752714
  entropy T*S    EENTRO =         0.00714920
  eigenvalues    EBANDS =     -7123.20840061
  atomic energy  EATOM  =     41081.18932405
  Solvation  Ediel_sol  =         0.00000000
  ---------------------------------------------------
  free energy    TOTEN  =      -310.39926764 eV

  energy without entropy =     -310.40641684  energy(sigma->0) =     -310.40165071


--------------------------------------------------------------------------------------------------------




--------------------------------------- Iteration      1(   6)  ---------------------------------------


    POTLOK:  cpu time      0.0459: real time      0.0459
    SETDIJ:  cpu time      0.0027: real time      0.0027
     EDDAV:  cpu time     26.2425: real time     26.2444
       DOS:  cpu time      0.0005: real time      0.0005
    CHARGE:  cpu time      0.2408: real time      0.2408
    MIXING:  cpu time      0.0010: real time      0.0010
    --------------------------------------------
      LOOP:  cpu time     26.5334: real time     26.5353

 eigenvalue-minimisations  :  9792
 total energy-change (2. order) :-0.4826371E+02  (-0.6674162E+02)
 number of electron     362.9999777 magnetization 
 augmentation part      117.8049725 magnetization 

 Broyden mixing:
  rms(total) = 0.88252E+01    rms(broyden)= 0.88251E+01
  rms(prec ) = 0.10984E+02
  weight for this iteration     100.00

 eigenvalues of (default mixing * dielectric matrix)
  average eigenvalue GAMMA=   0.3007
  0.3007

 Free energy of the ion-electron system (eV)
  ---------------------------------------------------
  alpha Z        PSCENC =       394.08315062
  Ewald energy   TEWEN  =     94614.24334644
  -Hartree energ DENC   =   -130099.11566039
  -exchange      EXHF   =         0.00000000
  -V(xc)+E(xc)   XCENC  =       764.24965602
  PAW double counting   =     35124.80825981   -34961.44040689
  entropy T*S    EENTRO =        -0.00020029
  eigenvalues    EBANDS =     -7276.68045036
  atomic energy  EATOM  =     41081.18932405
  Solvation  Ediel_sol  =         0.00000000
  ---------------------------------------------------
  free energy    TOTEN  =      -358.66298099 eV

  energy without entropy =     -358.66278070  energy(sigma->0) =     -358.66291422


--------------------------------------------------------------------------------------------------------




--------------------------------------- Iteration      1(   7)  ---------------------------------------


    POTLOK:  cpu time      0.0452: real time      0.0452
    SETDIJ:  cpu time      0.0033: real time      0.0033
     EDDAV:  cpu time     26.4367: real time     26.4407
       DOS:  cpu time      0.0005: real time      0.0005
    CHARGE:  cpu time      0.2427: real time      0.2427
    MIXING:  cpu time      0.0009: real time      0.0009
    --------------------------------------------
      LOOP:  cpu time     26.7295: real time     26.7335

 eigenvalue-minimisations  :  9600
 total energy-change (2. order) : 0.6473350E+02  (-0.1109657E+03)
 number of electron     362.9999855 magnetization 
 augmentation part      109.0905575 magnetization 

 Broyden mixing:
  rms(total) = 0.44923E+01    rms(broyden)= 0.44921E+01
  rms(prec ) = 0.62517E+01
  weight for this iteration     100.00

 eigenvalues of (default mixing * dielectric matrix)
  average eigenvalue GAMMA=   0.4035
  0.6118  0.1952

 Free energy of the ion-electron system (eV)
  ---------------------------------------------------
  alpha Z        PSCENC =       394.08315062
  Ewald energy   TEWEN  =     94614.24334644
  -Hartree energ DENC   =   -129950.96622079
  -exchange      EXHF   =         0.00000000
  -V(xc)+E(xc)   XCENC  =       773.33932402
  PAW double counting   =     35666.48149294   -35496.19166405
  entropy T*S    EENTRO =        -0.00790960
  eigenvalues    EBANDS =     -7376.10032495
  atomic energy  EATOM  =     41081.18932405
  Solvation  Ediel_sol  =         0.00000000
  ---------------------------------------------------
  free energy    TOTEN  =      -293.92948134 eV

  energy without entropy =     -293.92157173  energy(sigma->0) =     -293.92684480


--------------------------------------------------------------------------------------------------------




--------------------------------------- Iteration      1(   8)  ---------------------------------------


    POTLOK:  cpu time      0.0456: real time      0.0456
    SETDIJ:  cpu time      0.0038: real time      0.0038
     EDDAV:  cpu time     23.2761: real time     23.2779
       DOS:  cpu time      0.0005: real time      0.0005
    CHARGE:  cpu time      0.2434: real time      0.2434
    MIXING:  cpu time      0.0009: real time      0.0009
    --------------------------------------------
      LOOP:  cpu time     23.5703: real time     23.5722

 eigenvalue-minimisations  :  8512
 total energy-change (2. order) :-0.1005485E+02  (-0.4669969E+02)
 number of electron     362.9999844 magnetization 
 augmentation part      105.9425965 magnetization 

 Broyden mixing:
  rms(total) = 0.52603E+01    rms(broyden)= 0.52603E+01
  rms(prec ) = 0.74522E+01
  weight for this iteration     100.00

 eigenvalues of (default mixing * dielectric matrix)
  average eigenvalue GAMMA=   0.3417
  0.6865  0.1975  0.1410

 Free energy of the ion-electron system (eV)
  ---------------------------------------------------
  alpha Z        PSCENC =       394.08315062
  Ewald energy   TEWEN  =     94614.24334644
  -Hartree energ DENC   =   -130238.38706718
  -exchange      EXHF   =         0.00000000
  -V(xc)+E(xc)   XCENC  =       779.92594624
  PAW double counting   =     36529.48285365   -36350.02401551
  entropy T*S    EENTRO =         0.00191258
  eigenvalues    EBANDS =     -7114.49978063
  atomic energy  EATOM  =     41081.18932405
  Solvation  Ediel_sol  =         0.00000000
  ---------------------------------------------------
  free energy    TOTEN  =      -303.98432975 eV

  energy without entropy =     -303.98624233  energy(sigma->0) =     -303.98496727


--------------------------------------------------------------------------------------------------------




--------------------------------------- Iteration      1(   9)  ---------------------------------------


    POTLOK:  cpu time      0.0426: real time      0.0426
    SETDIJ:  cpu time      0.0032: real time      0.0032
     EDDAV:  cpu time     22.0693: real time     22.0731
       DOS:  cpu time      0.0005: real time      0.0005
    CHARGE:  cpu time      0.2446: real time      0.2446
    MIXING:  cpu time      0.0009: real time      0.0009
    --------------------------------------------
      LOOP:  cpu time     22.3611: real time     22.3649

 eigenvalue-minimisations  :  8128
 total energy-change (2. order) : 0.3183958E+02  (-0.2962318E+02)
 number of electron     362.9999854 magnetization 
 augmentation part      100.1712688 magnetization 

 Broyden mixing:
  rms(total) = 0.23224E+01    rms(broyden)= 0.23223E+01
  rms(prec ) = 0.31753E+01
  weight for this iteration     100.00

 eigenvalues of (default mixing * dielectric matrix)
  average eigenvalue GAMMA=   0.3777
  0.9190  0.2328  0.2328  0.1262

 Free energy of the ion-electron system (eV)
  ---------------------------------------------------
  alpha Z        PSCENC =       394.08315062
  Ewald energy   TEWEN  =     94614.24334644
  -Hartree energ DENC   =   -130352.99919084
  -exchange      EXHF   =         0.00000000
  -V(xc)+E(xc)   XCENC  =       781.45666102
  PAW double counting   =     36908.71666006   -36726.08301322
  entropy T*S    EENTRO =        -0.01756195
  eigenvalues    EBANDS =     -6972.73412161
  atomic energy  EATOM  =     41081.18932405
  Solvation  Ediel_sol  =         0.00000000
  ---------------------------------------------------
  free energy    TOTEN  =      -272.14474542 eV

  energy without entropy =     -272.12718348  energy(sigma->0) =     -272.13889144


--------------------------------------------------------------------------------------------------------




--------------------------------------- Iteration      1(  10)  ---------------------------------------


    POTLOK:  cpu time      0.0436: real time      0.0436
    SETDIJ:  cpu time      0.0028: real time      0.0028
     EDDAV:  cpu time     24.0630: real time     24.0655
       DOS:  cpu time      0.0005: real time      0.0005
    CHARGE:  cpu time      0.2469: real time      0.2469
    MIXING:  cpu time      0.0027: real time      0.0027
    --------------------------------------------
      LOOP:  cpu time     24.3594: real time     24.3619

 eigenvalue-minimisations  :  8896
 total energy-change (2. order) : 0.5525958E+01  (-0.9912576E+01)
 number of electron     362.9999857 magnetization 
 augmentation part      100.6621380 magnetization 

 Broyden mixing:
  rms(total) = 0.17425E+01    rms(broyden)= 0.17425E+01
  rms(prec ) = 0.22186E+01
  weight for this iteration     100.00

 eigenvalues of (default mixing * dielectric matrix)
  average eigenvalue GAMMA=   0.4433
  1.3197  0.3080  0.3080  0.1730  0.1077

 Free energy of the ion-electron system (eV)
  ---------------------------------------------------
  alpha Z        PSCENC =       394.08315062
  Ewald energy   TEWEN  =     94614.24334644
  -Hartree energ DENC   =   -130267.37997149
  -exchange      EXHF   =         0.00000000
  -V(xc)+E(xc)   XCENC  =       779.84657893
  PAW double counting   =     37303.23854611   -37118.04368310
  entropy T*S    EENTRO =        -0.00532506
  eigenvalues    EBANDS =     -7053.79075356
  atomic energy  EATOM  =     41081.18932405
  Solvation  Ediel_sol  =         0.00000000
  ---------------------------------------------------
  free energy    TOTEN  =      -266.61878706 eV

  energy without entropy =     -266.61346200  energy(sigma->0) =     -266.61701204


--------------------------------------------------------------------------------------------------------




--------------------------------------- Iteration      1(  11)  ---------------------------------------


    POTLOK:  cpu time      0.0504: real time      0.0504
    SETDIJ:  cpu time      0.0027: real time      0.0027
     EDDAV:  cpu time     21.1778: real time     21.1789
       DOS:  cpu time      0.0005: real time      0.0005
    CHARGE:  cpu time      0.2436: real time      0.2436
    MIXING:  cpu time      0.0011: real time      0.0011
    --------------------------------------------
      LOOP:  cpu time     21.4761: real time     21.4773

 eigenvalue-minimisations  :  7872
 total energy-change (2. order) : 0.4739939E+01  (-0.2232839E+01)
 number of electron     362.9999855 magnetization 
 augmentation part      101.6184576 magnetization 

 Broyden mixing:
  rms(total) = 0.12876E+01    rms(broyden)= 0.12876E+01
  rms(prec ) = 0.14869E+01
  weight for this iteration     100.00

 eigenvalues of (default mixing * dielectric matrix)
  average eigenvalue GAMMA=   0.5067
  1.6841  0.4227  0.4227  0.2031  0.2031  0.1046

 Free energy of the ion-electron system (eV)
  ---------------------------------------------------
  alpha Z        PSCENC =       394.08315062
  Ewald energy   TEWEN  =     94614.24334644
  -Hartree energ DENC   =   -130219.94441280
  -exchange      EXHF   =         0.00000000
  -V(xc)+E(xc)   XCENC  =       776.85975065
  PAW double counting   =     38013.60944117   -37823.30212188
  entropy T*S    EENTRO =        -0.01069352
  eigenvalues    EBANDS =     -7098.60663272
  atomic energy  EATOM  =     41081.18932405
  Solvation  Ediel_sol  =         0.00000000
  ---------------------------------------------------
  free energy    TOTEN  =      -261.87884800 eV

  energy without entropy =     -261.86815448  energy(sigma->0) =     -261.87528350


--------------------------------------------------------------------------------------------------------




--------------------------------------- Iteration      1(  12)  ---------------------------------------


    POTLOK:  cpu time      0.0436: real time      0.0436
    SETDIJ:  cpu time      0.0029: real time      0.0029
     EDDAV:  cpu time     23.2260: real time     23.2273
       DOS:  cpu time      0.0005: real time      0.0005
    CHARGE:  cpu time      0.2429: real time      0.2429
    MIXING:  cpu time      0.0010: real time      0.0010
    --------------------------------------------
      LOOP:  cpu time     23.5169: real time     23.5182

 eigenvalue-minimisations  :  8704
 total energy-change (2. order) : 0.2019076E+01  (-0.9791993E+00)
 number of electron     362.9999853 magnetization 
 augmentation part      102.7827421 magnetization 

 Broyden mixing:
  rms(total) = 0.83857E+00    rms(broyden)= 0.83855E+00
  rms(prec ) = 0.10101E+01
  weight for this iteration     100.00

 eigenvalues of (default mixing * dielectric matrix)
  average eigenvalue GAMMA=   0.5704
  1.9046  0.9057  0.3361  0.3361  0.2026  0.2026  0.1049

 Free energy of the ion-electron system (eV)
  ---------------------------------------------------
  alpha Z        PSCENC =       394.08315062
  Ewald energy   TEWEN  =     94614.24334644
  -Hartree energ DENC   =   -130197.73449433
  -exchange      EXHF   =         0.00000000
  -V(xc)+E(xc)   XCENC  =       774.65204522
  PAW double counting   =     38573.13462862   -38375.96074645
  entropy T*S    EENTRO =        -0.01216292
  eigenvalues    EBANDS =     -7123.45486279
  atomic energy  EATOM  =     41081.18932405
  Solvation  Ediel_sol  =         0.00000000
  ---------------------------------------------------
  free energy    TOTEN  =      -259.85977153 eV

  energy without entropy =     -259.84760862  energy(sigma->0) =     -259.85571723


--------------------------------------------------------------------------------------------------------




--------------------------------------- Iteration      1(  13)  ---------------------------------------


    POTLOK:  cpu time      0.0437: real time      0.0437
    SETDIJ:  cpu time      0.0029: real time      0.0030
     EDDAV:  cpu time     22.7674: real time     22.7680
       DOS:  cpu time      0.0005: real time      0.0005
    CHARGE:  cpu time      0.2421: real time      0.2421
    MIXING:  cpu time      0.0011: real time      0.0011
    --------------------------------------------
      LOOP:  cpu time     23.0578: real time     23.0585

 eigenvalue-minimisations  :  8384
 total energy-change (2. order) : 0.4752850E+00  (-0.1023554E+01)
 number of electron     362.9999846 magnetization 
 augmentation part      103.6776730 magnetization 

 Broyden mixing:
  rms(total) = 0.80319E+00    rms(broyden)= 0.80316E+00
  rms(prec ) = 0.95385E+00
  weight for this iteration     100.00

 eigenvalues of (default mixing * dielectric matrix)
  average eigenvalue GAMMA=   0.5729
  1.8915  1.2272  0.3879  0.3879  0.1050  0.2055  0.2055  0.1730

 Free energy of the ion-electron system (eV)
  ---------------------------------------------------
  alpha Z        PSCENC =       394.08315062
  Ewald energy   TEWEN  =     94614.24334644
  -Hartree energ DENC   =   -130239.10168611
  -exchange      EXHF   =         0.00000000
  -V(xc)+E(xc)   XCENC  =       773.61919550
  PAW double counting   =     39073.29324315   -38865.10403919
  entropy T*S    EENTRO =        -0.00840088
  eigenvalues    EBANDS =     -7091.59862008
  atomic energy  EATOM  =     41081.18932405
  Solvation  Ediel_sol  =         0.00000000
  ---------------------------------------------------
  free energy    TOTEN  =      -259.38448650 eV

  energy without entropy =     -259.37608562  energy(sigma->0) =     -259.38168621


--------------------------------------------------------------------------------------------------------




--------------------------------------- Iteration      1(  14)  ---------------------------------------


    POTLOK:  cpu time      0.0441: real time      0.0441
    SETDIJ:  cpu time      0.0033: real time      0.0033
     EDDAV:  cpu time     22.4466: real time     22.4503
       DOS:  cpu time      0.0006: real time      0.0006
    CHARGE:  cpu time      0.2411: real time      0.2411
    MIXING:  cpu time      0.0011: real time      0.0011
    --------------------------------------------
      LOOP:  cpu time     22.7368: real time     22.7404

 eigenvalue-minimisations  :  8320
 total energy-change (2. order) : 0.2458040E+00  (-0.5811839E+00)
 number of electron     362.9999848 magnetization 
 augmentation part      103.4279881 magnetization 

 Broyden mixing:
  rms(total) = 0.59292E+00    rms(broyden)= 0.59290E+00
  rms(prec ) = 0.69382E+00
  weight for this iteration     100.00

 eigenvalues of (default mixing * dielectric matrix)
  average eigenvalue GAMMA=   0.5742
  1.6128  1.6128  0.5033  0.5033  0.1049  0.2330  0.2330  0.2029  0.1622

 Free energy of the ion-electron system (eV)
  ---------------------------------------------------
  alpha Z        PSCENC =       394.08315062
  Ewald energy   TEWEN  =     94614.24334644
  -Hartree energ DENC   =   -130251.62516127
  -exchange      EXHF   =         0.00000000
  -V(xc)+E(xc)   XCENC  =       773.85530442
  PAW double counting   =     39177.02280795   -38963.33959429
  entropy T*S    EENTRO =        -0.00828474
  eigenvalues    EBANDS =     -7084.55957563
  atomic energy  EATOM  =     41081.18932405
  Solvation  Ediel_sol  =         0.00000000
  ---------------------------------------------------
  free energy    TOTEN  =      -259.13868246 eV

  energy without entropy =     -259.13039772  energy(sigma->0) =     -259.13592088


--------------------------------------------------------------------------------------------------------




--------------------------------------- Iteration      1(  15)  ---------------------------------------


    POTLOK:  cpu time      0.0438: real time      0.0439
    SETDIJ:  cpu time      0.0028: real time      0.0028
     EDDAV:  cpu time     20.8266: real time     20.8280
       DOS:  cpu time      0.0005: real time      0.0005
    CHARGE:  cpu time      0.2416: real time      0.2416
    MIXING:  cpu time      0.0012: real time      0.0012
    --------------------------------------------
      LOOP:  cpu time     21.1166: real time     21.1180

 eigenvalue-minimisations  :  7680
 total energy-change (2. order) : 0.2457761E+00  (-0.2915629E+00)
 number of electron     362.9999851 magnetization 
 augmentation part      103.0944134 magnetization 

 Broyden mixing:
  rms(total) = 0.33575E+00    rms(broyden)= 0.33573E+00
  rms(prec ) = 0.39185E+00
  weight for this iteration     100.00

 eigenvalues of (default mixing * dielectric matrix)
  average eigenvalue GAMMA=   0.6284
  1.8769  1.8769  0.7810  0.4249  0.4249  0.1049  0.2245  0.2245  0.1870  0.1580

 Free energy of the ion-electron system (eV)
  ---------------------------------------------------
  alpha Z        PSCENC =       394.08315062
  Ewald energy   TEWEN  =     94614.24334644
  -Hartree energ DENC   =   -130258.63800648
  -exchange      EXHF   =         0.00000000
  -V(xc)+E(xc)   XCENC  =       774.47314429
  PAW double counting   =     39185.67389758   -38966.12103330
  entropy T*S    EENTRO =        -0.01649068
  eigenvalues    EBANDS =     -7083.78023891
  atomic energy  EATOM  =     41081.18932405
  Solvation  Ediel_sol  =         0.00000000
  ---------------------------------------------------
  free energy    TOTEN  =      -258.89290640 eV

  energy without entropy =     -258.87641572  energy(sigma->0) =     -258.88740950


--------------------------------------------------------------------------------------------------------




--------------------------------------- Iteration      1(  16)  ---------------------------------------


    POTLOK:  cpu time      0.0431: real time      0.0431
    SETDIJ:  cpu time      0.0028: real time      0.0028
     EDDAV:  cpu time     22.9225: real time     22.9228
       DOS:  cpu time      0.0005: real time      0.0005
    CHARGE:  cpu time      0.2420: real time      0.2420
    MIXING:  cpu time      0.0013: real time      0.0013
    --------------------------------------------
      LOOP:  cpu time     23.2122: real time     23.2125

 eigenvalue-minimisations  :  8448
 total energy-change (2. order) :-0.1234767E+00  (-0.2027974E+00)
 number of electron     362.9999851 magnetization 
 augmentation part      102.9433830 magnetization 

 Broyden mixing:
  rms(total) = 0.49353E+00    rms(broyden)= 0.49352E+00
  rms(prec ) = 0.57805E+00
  weight for this iteration     100.00

 eigenvalues of (default mixing * dielectric matrix)
[...]
    238       3.3090     -0.00000
    239       3.3481     -0.00000
    240       3.4002      0.00000
    241       3.4327      0.00000
    242       3.4681      0.00000
    243       3.4871      0.00000
    244       3.5284      0.00000
    245       3.5883      0.00000
    246       3.6163      0.00000
    247       3.6464      0.00000
    248       3.7309      0.00000
    249       3.7798      0.00000
    250       3.8364      0.00000
    251       3.9159      0.00000
    252       3.9507      0.00000
    253       4.0799      0.00000
    254       4.1069      0.00000
    255       4.1462      0.00000
    256       4.2210      0.00000


--------------------------------------------------------------------------------------------------------


 soft charge-density along one line, spin component           1
         0         1         2         3         4         5         6         7         8         9
 total charge-density along one line
 
 pseudopotential strength for first ion, spin component:           1
-16.227   0.006   0.012   0.003   0.003   3.372  -0.003  -0.007
  0.006 -16.251   0.002  -0.010  -0.002  -0.003   3.385  -0.001
  0.012   0.002 -16.271   0.004   0.011  -0.007  -0.001   3.396
  0.003  -0.010   0.004 -16.269   0.006  -0.002   0.006  -0.002
  0.003  -0.002   0.011   0.006 -16.227  -0.002   0.001  -0.006
  3.372  -0.003  -0.007  -0.002  -0.002   3.270   0.001   0.003
 -0.003   3.385  -0.001   0.006   0.001   0.001   3.265   0.000
 -0.007  -0.001   3.396  -0.002  -0.006   0.003   0.000   3.260
 -0.002   0.006  -0.002   3.395  -0.003   0.001  -0.003   0.001
 -0.002   0.001  -0.006  -0.003   3.372   0.000  -0.000   0.003
  0.000   0.000  -0.000   0.000   0.000   0.002  -0.001   0.005
  0.004  -0.001   0.009  -0.003   0.004  -0.002   0.001  -0.004
 -0.001  -0.005   0.000   0.000   0.000  -0.001   0.006   0.000
  0.000  -0.000  -0.005  -0.001   0.000  -0.000  -0.000   0.006
 -0.001   0.000   0.000  -0.005  -0.001  -0.000  -0.000   0.001
 -0.000   0.009  -0.000  -0.000   0.001   0.005  -0.013  -0.001
 -0.000  -0.000   0.010  -0.000  -0.000   0.000   0.002  -0.013
  0.000  -0.000  -0.000   0.009   0.000   0.001   0.000  -0.002
 total augmentation occupancy for first ion, spin component:           1
  1.999  -0.000  -0.000  -0.000  -0.001   0.004  -0.000   0.000  -0.000  -0.002   0.000  -0.000  -0.004  -0.002   0.001   0.000
 -0.000   2.000  -0.000  -0.000   0.000  -0.000   0.005  -0.000  -0.001   0.000  -0.000   0.000   0.014  -0.001  -0.001   0.000
 -0.000  -0.000   2.001  -0.000  -0.000   0.000  -0.000   0.007  -0.000   0.000   0.004  -0.000   0.001   0.011   0.003  -0.000
 -0.000  -0.000  -0.000   2.000  -0.000  -0.000  -0.001  -0.000   0.004  -0.000  -0.001   0.000  -0.001  -0.003   0.012  -0.000
 -0.001   0.000  -0.000  -0.000   1.999  -0.002   0.000   0.000  -0.000   0.004   0.000  -0.000   0.004  -0.001  -0.003   0.000
  0.004  -0.000   0.000  -0.000  -0.002   0.011  -0.003  -0.000   0.002   0.002  -0.010   0.000  -0.019  -0.000   0.011  -0.000
 -0.000   0.005  -0.000  -0.001   0.000  -0.003   0.011   0.000   0.000   0.004   0.001  -0.000   0.066  -0.000  -0.003   0.001
  0.000  -0.000   0.007  -0.000   0.000  -0.000   0.000   0.016   0.001  -0.000  -0.009   0.000   0.005   0.078   0.011   0.000
 -0.000  -0.001  -0.000   0.004  -0.000   0.002   0.000   0.001   0.011  -0.001   0.003  -0.000  -0.003  -0.000   0.061  -0.000
 -0.002   0.000   0.000  -0.000   0.004   0.002   0.004  -0.000  -0.001   0.010  -0.009   0.000   0.022  -0.000  -0.007   0.000
  0.000  -0.000   0.004  -0.001   0.000  -0.010   0.001  -0.009   0.003  -0.009   1.698   0.012   0.010  -0.016   0.023   0.000
 -0.000   0.000  -0.000   0.000  -0.000   0.000  -0.000   0.000  -0.000   0.000   0.012   0.001  -0.001   0.010  -0.002  -0.000
 -0.004   0.014   0.001  -0.001   0.004  -0.019   0.066   0.005  -0.003   0.022   0.010  -0.001   0.766   0.010  -0.060   0.009
 -0.002  -0.001   0.011  -0.003  -0.001  -0.000  -0.000   0.078  -0.000  -0.000  -0.016   0.010   0.010   0.584   0.024  -0.000
  0.001  -0.001   0.003   0.012  -0.003   0.011  -0.003   0.011   0.061  -0.007   0.023  -0.002  -0.060   0.024   0.654  -0.001
  0.000   0.000  -0.000  -0.000   0.000  -0.000   0.001   0.000  -0.000   0.000   0.000  -0.000   0.009  -0.000  -0.001   0.000
 -0.000   0.000   0.000   0.000  -0.000   0.000  -0.000   0.001  -0.000   0.000   0.003   0.000  -0.000   0.007  -0.000  -0.000
  0.000  -0.000  -0.000   0.000   0.000   0.000  -0.000   0.000   0.001  -0.000   0.000  -0.000  -0.001  -0.000   0.008  -0.000


------------------------ aborting loop because EDIFF is reached ----------------------------------------


    CHARGE:  cpu time      0.2432: real time      0.2432
    FORLOC:  cpu time      0.0051: real time      0.0051
    FORNL :  cpu time      8.7949: real time      8.7952
    STRESS:  cpu time     15.5090: real time     15.5095
    FORCOR:  cpu time      0.0379: real time      0.0379
    FORHAR:  cpu time      0.0112: real time      0.0112
    MIXING:  cpu time      0.0030: real time      0.0030
    OFIELD:  cpu time      0.0000: real time      0.0000

  FORCE on cell =-STRESS in cart. coord.  units (eV):
  Direction    XX          YY          ZZ          XY          YZ          ZX
  --------------------------------------------------------------------------------------
  Alpha Z   394.08315   394.08315   394.08315
  Ewald  110968.31845112568.55051************  -854.23956   493.96538  1139.47249
  Hartree121325.86607122638.28760************  -700.59921   477.59533  1101.70984
  E(xc)   -1767.78801 -1766.65754 -1769.29121    -0.60333     0.44888     1.03536
  Local  ************************238228.47213  1567.64238  -986.21591 -2274.98854
  n-local  -173.25599  -207.92439  -212.57034    18.43511   -12.26492   -28.26367
  augment  1640.44272  1657.05219  1643.33061    -8.86940     4.35601    10.04123
  Kinetic  4173.76578  4229.58370  4227.16352   -29.62750     8.33362    19.20098
  Fock        0.00000     0.00000     0.00000     0.00000     0.00000     0.00000
  -------------------------------------------------------------------------------------
  Total     -27.32154   -12.51154    13.92860    -7.90591   -13.78202   -31.79216
  in kB     -23.47215   -10.74877    11.96617    -6.79203   -11.84024   -27.31291
  external pressure =       -7.42 kB  Pullay stress =        0.00 kB


 VOLUME and BASIS-vectors are now :
 -----------------------------------------------------------------------------
  energy-cutoff  :      520.00
  volume of cell :     1864.93
      direct lattice vectors                 reciprocal lattice vectors
     6.814289072  7.275238925  0.000000000     0.100319708  0.043488951  0.016963200
    -3.153841995  7.275238925  0.000000000    -0.100319708  0.093963580 -0.008481600
    -3.660447076 -1.586816850 25.715901868     0.000000000  0.000000000  0.038886445

  length of vectors
     9.968131067  7.929427517 26.023536834     0.110648465  0.137713963  0.038886445


 FORCES acting on ions
    electron-ion (+dipol)            ewald-force                    non-local-force                 convergence-correction
 -----------------------------------------------------------------------------------------------
   0.452E+02 0.196E+02 0.279E+04   -.429E+02 -.186E+02 -.279E+04   -.209E+01 -.907E+00 0.149E+01   0.666E-04 0.289E-04 0.234E-03
   -.365E+00 -.158E+00 0.681E+03   0.419E+00 0.182E+00 -.682E+03   -.108E+00 -.469E-01 0.654E+00   0.189E-04 0.820E-05 0.318E-03
   -.573E+00 -.248E+00 -.159E+04   0.323E+00 0.140E+00 0.159E+04   0.194E+00 0.840E-01 -.443E+00   0.849E-04 0.368E-04 0.908E-03
   -.625E+01 -.271E+01 0.169E+04   0.620E+01 0.269E+01 -.169E+04   -.605E-01 -.262E-01 0.658E-01   0.131E-03 0.566E-04 0.630E-03
   0.962E+00 0.417E+00 -.429E+03   -.112E+01 -.483E+00 0.428E+03   0.149E+00 0.644E-01 -.147E+00   0.147E-04 0.635E-05 0.642E-03
   -.539E+02 -.234E+02 -.246E+04   0.528E+02 0.229E+02 0.246E+04   0.637E+00 0.276E+00 0.340E+01   0.106E-04 0.459E-05 0.216E-03
   -.675E+01 -.329E+01 0.169E+04   0.677E+01 0.344E+01 -.169E+04   -.151E+00 0.262E+00 0.587E-01   0.155E-03 -.184E-03 0.500E-03
   0.336E+00 0.126E+00 -.428E+03   -.409E+00 -.315E+00 0.428E+03   0.111E+00 0.145E+00 -.175E+00   0.108E-03 -.128E-03 0.687E-03
   -.633E+02 -.372E+02 -.246E+04   0.619E+02 0.376E+02 0.246E+04   0.985E+00 -.745E+00 0.229E+01   -.145E-03 0.129E-03 0.114E-03
   -.487E-01 -.149E+00 0.629E+03   -.139E-02 0.586E-01 -.629E+03   0.924E-01 0.719E-01 0.303E+00   0.797E-04 -.216E-03 0.374E-03
   0.382E+01 -.158E+00 -.147E+04   -.356E+01 0.980E-01 0.147E+04   -.365E-01 -.125E-01 -.780E+00   -.333E-04 0.141E-03 0.651E-03
   0.373E+02 0.171E+02 0.259E+04   -.365E+02 -.169E+02 -.258E+04   -.247E+00 0.412E-01 -.666E+01   -.876E-05 -.117E-04 0.467E-04
   -.702E+01 -.268E+01 0.169E+04   0.714E+01 0.259E+01 -.169E+04   0.881E-01 -.290E+00 0.587E-01   -.283E-04 0.239E-03 0.500E-03
   0.322E+00 0.159E+00 -.428E+03   -.509E+00 -.832E-01 0.428E+03   0.182E+00 -.180E-01 -.175E+00   -.194E-04 0.166E-03 0.687E-03
   -.704E+02 -.208E+02 -.246E+04   0.698E+02 0.194E+02 0.246E+04   0.130E+00 0.123E+01 0.229E+01   -.501E-05 -.194E-03 0.114E-03
   -.142E+00 0.659E-01 0.629E+03   0.418E-01 -.410E-01 -.629E+03   0.116E+00 0.183E-01 0.303E+00   -.103E-03 0.206E-03 0.374E-03
   0.249E+01 0.289E+01 -.147E+04   -.236E+01 -.267E+01 0.147E+04   -.341E-01 -.181E-01 -.780E+00   0.800E-04 -.121E-03 0.651E-03
   0.380E+02 0.155E+02 0.259E+04   -.373E+02 -.151E+02 -.258E+04   -.139E+00 -.209E+00 -.666E+01   -.145E-04 0.160E-05 0.467E-04
   -.632E+00 -.274E+00 0.630E+03   0.423E+00 0.183E+00 -.629E+03   -.192E-01 -.832E-02 -.128E+00   -.185E-03 -.803E-04 0.248E-03
   -.198E+01 -.858E+00 -.147E+04   0.204E+01 0.883E+00 0.147E+04   0.695E-01 0.301E-01 -.333E+00   0.179E-03 0.776E-04 0.820E-03
   0.409E+02 0.177E+02 0.259E+04   -.405E+02 -.176E+02 -.258E+04   0.288E-01 0.125E-01 -.779E+01   0.361E-04 0.156E-04 -.520E-04
   0.115E+01 0.501E+00 -.430E+03   -.130E+01 -.564E+00 0.430E+03   0.100E+00 0.436E-01 -.121E+00   -.672E-04 -.291E-04 0.657E-03
   -.593E+02 -.257E+02 -.246E+04   0.574E+02 0.249E+02 0.245E+04   0.145E+01 0.630E+00 0.316E+01   0.171E-03 0.743E-04 0.212E-03
   -.702E+01 -.304E+01 0.169E+04   0.678E+01 0.294E+01 -.169E+04   0.164E+00 0.713E-01 -.824E-01   0.322E-04 0.140E-04 0.498E-03
   -.154E+00 -.667E-01 0.285E+03   -.347E+00 -.150E+00 -.284E+03   0.497E+00 0.215E+00 -.139E+01   0.167E-04 0.723E-05 0.110E-03
   -.120E+01 -.519E+00 -.242E+03   0.756E+00 0.328E+00 0.243E+03   0.451E+00 0.196E+00 -.166E+01   0.297E-04 0.129E-04 0.209E-03
   0.234E+02 0.101E+02 -.698E+03   -.216E+02 -.938E+01 0.696E+03   -.224E+01 -.973E+00 0.163E+01   0.237E-04 0.103E-04 -.428E-04
   -.577E+00 -.250E+00 0.241E+02   0.113E+01 0.489E+00 -.241E+02   -.423E+00 -.183E+00 0.146E+00   0.213E-04 0.923E-05 0.157E-03
   0.545E+01 0.236E+01 -.519E+03   -.462E+01 -.200E+01 0.518E+03   -.730E+00 -.316E+00 0.195E+01   -.362E-04 -.157E-04 0.149E-03
   -.152E+01 -.660E+00 0.562E+03   0.252E+01 0.109E+01 -.561E+03   -.465E+00 -.202E+00 -.142E+01   -.420E-04 -.182E-04 0.938E-04
   -.351E+00 0.988E+00 0.243E+02   -.151E+00 -.233E+01 -.237E+02   0.569E+00 0.140E+01 -.606E+00   0.172E-04 -.390E-04 0.110E-03
   0.489E+01 0.335E+01 -.519E+03   -.519E+01 -.453E+01 0.518E+03   0.286E+00 0.131E+01 0.126E+01   0.308E-04 -.289E-04 0.133E-03
   -.144E+01 0.633E+00 0.562E+03   0.929E+00 -.225E+01 -.561E+03   0.960E+00 0.197E+01 -.222E+01   -.181E-04 0.292E-04 0.849E-04
   -.132E+01 0.837E+00 -.238E+03   0.259E+01 -.142E+01 0.238E+03   -.137E+01 0.606E+00 0.513E+00   0.971E-05 -.791E-04 0.221E-03
   0.253E+02 0.102E+02 -.696E+03   -.230E+02 -.928E+01 0.692E+03   -.281E+01 -.113E+01 0.311E+01   0.476E-05 0.785E-05 -.333E-04
   -.158E-01 0.108E+01 0.289E+03   0.137E+01 -.167E+01 -.290E+03   -.133E+01 0.655E+00 0.578E+00   -.876E-05 0.667E-05 0.104E-03
   0.481E+00 -.931E+00 0.243E+02   -.180E+01 0.148E+01 -.237E+02   0.141E+01 -.544E+00 -.606E+00   -.167E-04 0.392E-04 0.110E-03
   0.579E+01 0.128E+01 -.519E+03   -.686E+01 -.691E+00 0.518E+03   0.115E+01 -.687E+00 0.126E+01   -.700E-07 0.422E-04 0.133E-03
   -.522E+00 -.148E+01 0.562E+03   -.100E+01 0.221E+01 -.561E+03   0.209E+01 -.645E+00 -.222E+01   0.891E-05 -.331E-04 0.849E-04
   -.288E+00 -.153E+01 -.238E+03   0.730E+00 0.286E+01 0.238E+03   -.496E+00 -.142E+01 0.513E+00   -.511E-04 0.612E-04 0.221E-03
   0.247E+02 0.115E+02 -.696E+03   -.225E+02 -.104E+02 0.692E+03   -.274E+01 -.128E+01 0.311E+01   0.898E-05 -.189E-05 -.333E-04
   0.776E+00 -.749E+00 0.289E+03   -.279E+00 0.214E+01 -.290E+03   -.435E+00 -.142E+01 0.578E+00   -.112E-05 -.110E-04 0.104E-03
   0.165E+00 0.716E-01 -.238E+03   -.657E+00 -.285E+00 0.238E+03   0.405E+00 0.176E+00 -.980E-01   -.324E-04 -.141E-04 0.187E-03
   0.224E+02 0.971E+01 -.695E+03   -.207E+02 -.897E+01 0.692E+03   -.215E+01 -.934E+00 0.279E+01   0.259E-04 0.112E-04 -.819E-04
   0.930E+00 0.403E+00 0.290E+03   -.163E+01 -.706E+00 -.290E+03   0.676E+00 0.293E+00 -.387E+00   0.152E-04 0.660E-05 0.103E-03
   0.642E+01 0.278E+01 -.517E+03   -.624E+01 -.271E+01 0.516E+03   -.334E+00 -.145E+00 0.216E+01   -.595E-04 -.258E-04 0.972E-04
   -.840E+00 -.364E+00 0.566E+03   0.114E+01 0.496E+00 -.567E+03   -.310E-02 -.134E-02 0.454E+00   -.894E-05 -.387E-05 0.943E-04
   0.692E+00 0.300E+00 0.282E+02   -.137E+00 -.594E-01 -.296E+02   -.505E+00 -.219E+00 0.183E+01   -.597E-05 -.259E-05 0.117E-03
 -----------------------------------------------------------------------------------------------
   0.593E+01 0.257E+01 -.109E+01   0.360E-13 0.187E-12 0.547E-12   -.594E+01 -.257E+01 0.108E+01   0.490E-03 0.212E-03 0.125E-01
 
 
 POSITION                                       TOTAL-FORCE (eV/Angst)
 -----------------------------------------------------------------------------------
     -1.12995     -0.48984      7.93826         0.224452      0.097301      0.271264
     -0.41836      4.13986     11.51106        -0.053814     -0.023329      0.045541
      0.29323      8.76956     15.08387        -0.056114     -0.024325      0.138176
      2.63299      5.46263      9.72466        -0.108877     -0.047199     -0.848463
     -3.46971      2.81709     13.29747        -0.005034     -0.002182     -0.191075
     -2.75812      7.44679     16.87028        -0.452379     -0.196108      0.387829
     -0.77415      1.82501      9.72466        -0.128754      0.407620     -0.535497
     -0.06256      6.45471     13.29747         0.038516     -0.043896     -0.215952
      0.64903     11.08441     16.87028        -0.365867     -0.256628     -0.008035
      2.98879      7.77748     11.51106         0.042368     -0.018287      0.356891
     -3.11391      5.13194     15.08387         0.217778     -0.072401      0.172541
      2.27720      3.14778      7.93826         0.498926      0.248101      0.807480
     -2.35107      5.46263      9.72466         0.209484     -0.372623     -0.535497
      1.51436      2.81709     13.29747        -0.005708      0.058119     -0.215952
      2.22595      7.44679     16.87028        -0.437410     -0.091595     -0.008035
      1.41187     11.41510     11.51106         0.015616      0.043423      0.356891
     -1.53699      1.49432     15.08387         0.096033      0.208439      0.172541
      0.70028      6.78540      7.93826         0.522146      0.194538      0.807480
     -1.99528      7.77748     11.51106        -0.229235     -0.099374      0.155389
      1.87015      5.13194     15.08387         0.127953      0.055468      0.526552
     -2.70687      3.14778      7.93826         0.443406      0.192218      0.812814
     -1.89279     -0.82053     13.29747        -0.046722     -0.020254     -0.037057
     -1.18120      3.80917     16.87028        -0.416210     -0.180429      0.575917
      1.05607      9.10025      9.72466        -0.072715     -0.031522     -1.161948
      5.29462      6.61646     10.63203        -0.003525     -0.001528     -0.267816
     -0.80808      3.97091     14.20484         0.010256      0.004446     -0.384182
     -0.09649      8.60061     17.77765        -0.518322     -0.224694     -0.376562
      2.26855      5.30464     12.40363         0.127843      0.055420      0.201804
     -3.83415      2.65910     15.97644         0.094517      0.040973      0.764966
     -1.59688      7.95019      8.83082         0.536363      0.232515     -0.503326
     -1.16522      1.64730     12.41167         0.066497      0.064705     -0.041910
     -0.45364      6.27699     15.98448        -0.011670      0.125951      0.560636
      1.78363     11.56808      8.83886         0.449174      0.354921     -0.621716
      2.62299      7.61072     14.18327        -0.103096      0.022053      0.006984
     -3.47971      4.96518     17.75608        -0.556186     -0.244891     -0.182259
     -1.24244     10.25627     10.61046         0.020388      0.066719     -0.224527
     -2.74812      5.29869     12.41167         0.092683      0.004300     -0.041910
      1.11731      2.65315     15.98448         0.083948     -0.094619      0.560636
      3.35458      7.94424      8.83886         0.566098      0.085203     -0.621716
      1.04010     11.26212     14.18327        -0.054382     -0.090320      0.006984
     -1.90876      1.34134     17.75608        -0.558947     -0.238523     -0.182259
      0.32851      6.63242     10.61046         0.062632     -0.030729     -0.224527
     -2.39367      7.60478     14.19131        -0.086750     -0.037606     -0.362986
      1.47176      4.95923     17.76411        -0.449721     -0.194956     -0.339858
      3.70903     10.25032     10.61850        -0.022380     -0.009702     -0.472221
     -5.41974      6.29296     15.96291        -0.154706     -0.067065      0.873003
     -0.02863      4.30881      8.81729         0.301295      0.130612     -0.375322
      0.68296      8.93851     12.39010         0.050153      0.021741      0.418287
 -----------------------------------------------------------------------------------
    total drift:                               -0.000600     -0.000232      0.000001


--------------------------------------------------------------------------------------------------------



  FREE ENERGIE OF THE ION-ELECTRON SYSTEM (eV)
  ---------------------------------------------------
  free  energy   TOTEN  =      -258.78985948 eV

  energy  without entropy=     -258.77636279  energy(sigma->0) =     -258.78536058
 


--------------------------------------------------------------------------------------------------------


    POTLOK:  cpu time      0.0452: real time      0.0452


--------------------------------------------------------------------------------------------------------


 writing wavefunctions
     LOOP+:  cpu time    868.8062: real time    868.8712
    4ORBIT:  cpu time      0.0000: real time      0.0000

 total amount of memory used by VASP MPI-rank0   367676. kBytes
=======================================================================

   base                                    :      30000. kBytes
   nonl-proj                               :     277678. kBytes
   fftplans                                :       3513. kBytes
   grid                                    :      19875. kBytes
   one-center                              :        746. kBytes
   wavefun                                 :      35864. kBytes
 
  
  
 General timing and accounting informations for this job:
 ========================================================
  
                  Total CPU time used (sec):      885.683
                            User time (sec):      846.063
                          System time (sec):       39.620
                         Elapsed time (sec):      886.002
  
                   Maximum memory used (kb):      597792.
                   Average memory used (kb):          N/A
  
                          Minor page faults:       115850
                          Major page faults:           34
                 Voluntary context switches:          134
