unknown system                          
           1
     6.814289    7.275239    0.000000
    -3.153842    7.275239    0.000000
    -3.660447   -1.586817   25.715902
   Ga   Ti   Al
     3    21    24
Direct configuration=     1
   0.00000000  0.00000000  0.30869053
   0.33333333  0.33333333  0.44762437
   0.66666667  0.66666667  0.58655822
   0.66666667  0.16666667  0.37815745
   0.00000000  0.50000000  0.51709130
   0.33333333  0.83333333  0.65602514
   0.16666667  0.16666667  0.37815745
   0.50000000  0.50000000  0.51709130
   0.83333333  0.83333333  0.65602514
   0.83333333  0.33333333  0.44762437
   0.16666667  0.66666667  0.58655822
   0.50000000  0.00000000  0.30869053
   0.16666667  0.66666667  0.37815745
   0.50000000  0.00000000  0.51709130
   0.83333333  0.33333333  0.65602514
   0.83333333  0.83333333  0.44762437
   0.16666667  0.16666667  0.58655822
   0.50000000  0.50000000  0.30869053
   0.33333333  0.83333333  0.44762437
   0.66666667  0.16666667  0.58655822
   0.00000000  0.50000000  0.30869053
   0.00000000  0.00000000  0.51709130
   0.33333333  0.33333333  0.65602514
   0.66666667  0.66666667  0.37815745
   0.99925044  0.00037478  0.41344178
   0.33258377  0.33370811  0.55237563
   0.66591710  0.66704145  0.69130947
   0.66867874  0.16566063  0.48233318
   0.00201207  0.49899396  0.62126702
   0.33534540  0.83232730  0.34339933
   0.16528585  0.16641019  0.48264560
   0.49861918  0.49974353  0.62157944
   0.83195252  0.83307686  0.34371175
   0.83471415  0.33169604  0.55153699
   0.16804748  0.66502938  0.69047084
   0.50138082  0.99836271  0.41260315
   0.16528585  0.66830396  0.48264560
   0.49861918  0.00163729  0.62157944
   0.83195252  0.33497062  0.34371175
   0.83471415  0.83358981  0.55153699
   0.16804748  0.16692314  0.69047084
   0.50138082  0.50025647  0.41260315
   0.33132126  0.83433937  0.55184941
   0.66465460  0.16767270  0.69078326
   0.99798793  0.50100604  0.41291557
   0.00074956  0.99962522  0.62074081
   0.33408290  0.33295855  0.34287312
   0.66741623  0.66629189  0.48180696
