  24  24   0   0
  0.1041704E+02  0.5582428E-09  0.5582428E-09  0.8022492E-09  0.1500000E-16
  1.000000000000000E-004
  CAR 
 unknown system                          
     12.08197018    -51.05926536  301      8.34700024      1.00000000
    -51.059  0.0000E+00  0.0000E+00
    -50.849  0.0000E+00  0.0000E+00
    -50.638  0.0000E+00  0.0000E+00
    -50.428  0.0000E+00  0.0000E+00
    -50.217  0.0000E+00  0.0000E+00
    -50.007  0.0000E+00  0.0000E+00
    -49.796 -0.3160E-29 -0.6651E-30
    -49.586 -0.2380E-22 -0.5010E-23
    -49.375 -0.1974E-16 -0.4154E-17
    -49.165 -0.1733E-11 -0.3648E-12
    -48.955 -0.1705E-07 -0.3589E-08
    -48.744 -0.1779E-04 -0.3748E-05
    -48.534 -0.1741E-02 -0.3701E-03
    -48.323 -0.2156E-02 -0.8240E-03
    -48.113  0.1311E+00  0.2677E-01
    -47.902  0.1130E+00  0.5055E-01
    -47.692 -0.5026E-02  0.4949E-01
    -47.481 -0.1224E-02  0.4923E-01
    -47.271 -0.9624E-05  0.4923E-01
    -47.060 -0.7252E-08  0.4923E-01
    -46.850 -0.5812E-12  0.4923E-01
    -46.639 -0.3366E-17  0.4923E-01
    -46.429  0.0000E+00  0.4923E-01
    -46.218  0.0000E+00  0.4923E-01
    -46.008  0.0000E+00  0.4923E-01
    -45.797  0.0000E+00  0.4923E-01
    -45.587  0.0000E+00  0.4923E-01
    -45.377  0.0000E+00  0.4923E-01
    -45.166  0.0000E+00  0.4923E-01
    -44.956  0.0000E+00  0.4923E-01
    -44.745  0.0000E+00  0.4923E-01
    -44.535  0.0000E+00  0.4923E-01
    -44.324  0.0000E+00  0.4923E-01
    -44.114  0.0000E+00  0.4923E-01
    -43.903  0.0000E+00  0.4923E-01
    -43.693  0.0000E+00  0.4923E-01
    -43.482  0.0000E+00  0.4923E-01
    -43.272  0.0000E+00  0.4923E-01
    -43.061  0.0000E+00  0.4923E-01
    -42.851  0.0000E+00  0.4923E-01
    -42.640  0.0000E+00  0.4923E-01
    -42.430  0.0000E+00  0.4923E-01
    -42.219  0.0000E+00  0.4923E-01
    -42.009  0.0000E+00  0.4923E-01
    -41.799  0.0000E+00  0.4923E-01
    -41.588  0.0000E+00  0.4923E-01
    -41.378  0.0000E+00  0.4923E-01
    -41.167  0.0000E+00  0.4923E-01
    -40.957  0.0000E+00  0.4923E-01
    -40.746  0.0000E+00  0.4923E-01
    -40.536  0.0000E+00  0.4923E-01
    -40.325  0.0000E+00  0.4923E-01
    -40.115  0.0000E+00  0.4923E-01
    -39.904  0.0000E+00  0.4923E-01
    -39.694  0.0000E+00  0.4923E-01
    -39.483  0.0000E+00  0.4923E-01
    -39.273  0.0000E+00  0.4923E-01
    -39.062  0.0000E+00  0.4923E-01
    -38.852  0.0000E+00  0.4923E-01
    -38.641  0.0000E+00  0.4923E-01
    -38.431  0.0000E+00  0.4923E-01
    -38.221  0.0000E+00  0.4923E-01
    -38.010  0.0000E+00  0.4923E-01
    -37.800  0.0000E+00  0.4923E-01
    -37.589  0.0000E+00  0.4923E-01
    -37.379  0.0000E+00  0.4923E-01
    -37.168  0.0000E+00  0.4923E-01
    -36.958  0.0000E+00  0.4923E-01
    -36.747  0.0000E+00  0.4923E-01
    -36.537  0.0000E+00  0.4923E-01
    -36.326  0.0000E+00  0.4923E-01
    -36.116  0.0000E+00  0.4923E-01
    -35.905  0.0000E+00  0.4923E-01
    -35.695  0.0000E+00  0.4923E-01
    -35.484  0.0000E+00  0.4923E-01
    -35.274  0.0000E+00  0.4923E-01
    -35.063  0.0000E+00  0.4923E-01
    -34.853  0.0000E+00  0.4923E-01
    -34.643  0.0000E+00  0.4923E-01
    -34.432  0.0000E+00  0.4923E-01
    -34.222  0.0000E+00  0.4923E-01
    -34.011  0.0000E+00  0.4923E-01
    -33.801  0.0000E+00  0.4923E-01
    -33.590  0.0000E+00  0.4923E-01
    -33.380  0.0000E+00  0.4923E-01
    -33.169  0.0000E+00  0.4923E-01
    -32.959  0.0000E+00  0.4923E-01
    -32.748  0.0000E+00  0.4923E-01
    -32.538  0.0000E+00  0.4923E-01
    -32.327  0.0000E+00  0.4923E-01
    -32.117  0.0000E+00  0.4923E-01
    -31.906  0.0000E+00  0.4923E-01
    -31.696  0.0000E+00  0.4923E-01
    -31.485  0.0000E+00  0.4923E-01
    -31.275  0.0000E+00  0.4923E-01
    -31.065  0.0000E+00  0.4923E-01
    -30.854  0.0000E+00  0.4923E-01
    -30.644  0.0000E+00  0.4923E-01
    -30.433  0.0000E+00  0.4923E-01
    -30.223  0.0000E+00  0.4923E-01
    -30.012  0.0000E+00  0.4923E-01
    -29.802  0.0000E+00  0.4923E-01
    -29.591  0.0000E+00  0.4923E-01
    -29.381  0.0000E+00  0.4923E-01
    -29.170  0.0000E+00  0.4923E-01
    -28.960  0.0000E+00  0.4923E-01
    -28.749  0.0000E+00  0.4923E-01
    -28.539  0.0000E+00  0.4923E-01
    -28.328  0.0000E+00  0.4923E-01
    -28.118  0.0000E+00  0.4923E-01
    -27.907  0.0000E+00  0.4923E-01
    -27.697  0.0000E+00  0.4923E-01
    -27.487  0.0000E+00  0.4923E-01
    -27.276  0.0000E+00  0.4923E-01
    -27.066  0.0000E+00  0.4923E-01
    -26.855  0.0000E+00  0.4923E-01
    -26.645  0.0000E+00  0.4923E-01
    -26.434 -0.1041E-35  0.4923E-01
    -26.224 -0.4916E-28  0.4923E-01
    -26.013 -0.2393E-21  0.4923E-01
    -25.803 -0.1245E-15  0.4923E-01
    -25.592 -0.7237E-11  0.4923E-01
    -25.382 -0.4638E-07  0.4923E-01
    -25.171 -0.3274E-04  0.4922E-01
    -24.961 -0.2423E-02  0.4871E-01
    -24.750 -0.5018E-02  0.4766E-01
    -24.540  0.1820E+00  0.8596E-01
    -24.329  0.3129E+00  0.1518E+00
    -24.119  0.1628E+00  0.1861E+00
    -23.909  0.5701E-01  0.1981E+00
    -23.698 -0.4856E-02  0.1970E+00
    -23.488 -0.5927E-03  0.1969E+00
    -23.277 -0.3834E-05  0.1969E+00
    -23.067 -0.2424E-08  0.1969E+00
    -22.856 -0.1620E-12  0.1969E+00
    -22.646  0.0000E+00  0.1969E+00
    -22.435  0.0000E+00  0.1969E+00
    -22.225  0.0000E+00  0.1969E+00
    -22.014  0.0000E+00  0.1969E+00
    -21.804  0.0000E+00  0.1969E+00
    -21.593  0.0000E+00  0.1969E+00
    -21.383  0.0000E+00  0.1969E+00
    -21.172  0.0000E+00  0.1969E+00
    -20.962  0.0000E+00  0.1969E+00
    -20.751  0.0000E+00  0.1969E+00
    -20.541  0.0000E+00  0.1969E+00
    -20.331  0.0000E+00  0.1969E+00
    -20.120  0.0000E+00  0.1969E+00
    -19.910  0.0000E+00  0.1969E+00
    -19.699  0.0000E+00  0.1969E+00
    -19.489  0.0000E+00  0.1969E+00
    -19.278  0.0000E+00  0.1969E+00
    -19.068  0.0000E+00  0.1969E+00
    -18.857  0.0000E+00  0.1969E+00
    -18.647  0.0000E+00  0.1969E+00
    -18.436  0.0000E+00  0.1969E+00
    -18.226  0.0000E+00  0.1969E+00
    -18.015  0.0000E+00  0.1969E+00
    -17.805  0.0000E+00  0.1969E+00
    -17.594  0.0000E+00  0.1969E+00
    -17.384  0.0000E+00  0.1969E+00
    -17.173  0.0000E+00  0.1969E+00
    -16.963  0.0000E+00  0.1969E+00
    -16.753  0.0000E+00  0.1969E+00
    -16.542  0.0000E+00  0.1969E+00
    -16.332  0.0000E+00  0.1969E+00
    -16.121  0.0000E+00  0.1969E+00
    -15.911  0.0000E+00  0.1969E+00
    -15.700  0.0000E+00  0.1969E+00
    -15.490  0.0000E+00  0.1969E+00
    -15.279  0.0000E+00  0.1969E+00
    -15.069  0.0000E+00  0.1969E+00
    -14.858  0.0000E+00  0.1969E+00
    -14.648  0.0000E+00  0.1969E+00
    -14.437  0.0000E+00  0.1969E+00
    -14.227  0.0000E+00  0.1969E+00
    -14.016  0.0000E+00  0.1969E+00
    -13.806  0.0000E+00  0.1969E+00
    -13.595  0.0000E+00  0.1969E+00
    -13.385  0.0000E+00  0.1969E+00
    -13.175  0.0000E+00  0.1969E+00
    -12.964  0.0000E+00  0.1969E+00
    -12.754  0.0000E+00  0.1969E+00
    -12.543  0.0000E+00  0.1969E+00
    -12.333  0.0000E+00  0.1969E+00
    -12.122  0.0000E+00  0.1969E+00
    -11.912  0.0000E+00  0.1969E+00
    -11.701  0.0000E+00  0.1969E+00
    -11.491  0.0000E+00  0.1969E+00
    -11.280  0.0000E+00  0.1969E+00
    -11.070  0.0000E+00  0.1969E+00
    -10.859  0.0000E+00  0.1969E+00
    -10.649  0.0000E+00  0.1969E+00
    -10.438  0.0000E+00  0.1969E+00
    -10.228  0.0000E+00  0.1969E+00
    -10.017  0.0000E+00  0.1969E+00
     -9.807  0.0000E+00  0.1969E+00
     -9.597  0.0000E+00  0.1969E+00
     -9.386  0.0000E+00  0.1969E+00
     -9.176  0.0000E+00  0.1969E+00
     -8.965  0.0000E+00  0.1969E+00
     -8.755  0.0000E+00  0.1969E+00
     -8.544  0.0000E+00  0.1969E+00
     -8.334  0.0000E+00  0.1969E+00
     -8.123  0.0000E+00  0.1969E+00
     -7.913  0.0000E+00  0.1969E+00
     -7.702  0.0000E+00  0.1969E+00
     -7.492  0.0000E+00  0.1969E+00
     -7.281  0.0000E+00  0.1969E+00
     -7.071  0.0000E+00  0.1969E+00
     -6.860  0.0000E+00  0.1969E+00
     -6.650  0.0000E+00  0.1969E+00
     -6.439  0.0000E+00  0.1969E+00
     -6.229  0.0000E+00  0.1969E+00
     -6.019  0.0000E+00  0.1969E+00
     -5.808  0.0000E+00  0.1969E+00
     -5.598  0.0000E+00  0.1969E+00
     -5.387  0.0000E+00  0.1969E+00
     -5.177  0.0000E+00  0.1969E+00
     -4.966  0.0000E+00  0.1969E+00
     -4.756  0.0000E+00  0.1969E+00
     -4.545  0.0000E+00  0.1969E+00
     -4.335  0.0000E+00  0.1969E+00
     -4.124  0.0000E+00  0.1969E+00
     -3.914  0.0000E+00  0.1969E+00
     -3.703  0.0000E+00  0.1969E+00
     -3.493  0.0000E+00  0.1969E+00
     -3.282  0.0000E+00  0.1969E+00
     -3.072  0.0000E+00  0.1969E+00
     -2.861  0.0000E+00  0.1969E+00
     -2.651  0.0000E+00  0.1969E+00
     -2.441  0.0000E+00  0.1969E+00
     -2.230  0.0000E+00  0.1969E+00
     -2.020 -0.2812E-33  0.1969E+00
     -1.809 -0.3029E-26  0.1969E+00
     -1.599 -0.3575E-20  0.1969E+00
     -1.388 -0.4524E-15  0.1969E+00
     -1.178 -0.6648E-11  0.1969E+00
     -0.967 -0.1136E-07  0.1969E+00
     -0.757 -0.2245E-05  0.1969E+00
     -0.546 -0.3966E-04  0.1969E+00
     -0.336  0.2277E-03  0.1970E+00
     -0.125  0.1661E-02  0.1973E+00
      0.085  0.2972E-02  0.1979E+00
      0.296  0.3965E-02  0.1988E+00
      0.506  0.4657E-02  0.1998E+00
      0.717  0.5426E-02  0.2009E+00
      0.927  0.6617E-02  0.2023E+00
      1.137  0.6684E-02  0.2037E+00
      1.348  0.9278E-02  0.2056E+00
      1.558  0.8962E-02  0.2075E+00
      1.769  0.9019E-02  0.2094E+00
      1.979  0.9887E-02  0.2115E+00
      2.190  0.9862E-02  0.2136E+00
      2.400  0.9052E-02  0.2155E+00
      2.611  0.9789E-02  0.2176E+00
      2.821  0.1134E-01  0.2199E+00
      3.032  0.9559E-02  0.2220E+00
      3.242  0.1011E-01  0.2241E+00
      3.453  0.1171E-01  0.2265E+00
      3.663  0.1408E-01  0.2295E+00
      3.874  0.1473E-01  0.2326E+00
      4.084  0.1231E-01  0.2352E+00
      4.295  0.1498E-01  0.2384E+00
      4.505  0.1350E-01  0.2412E+00
      4.715  0.1314E-01  0.2440E+00
      4.926  0.1178E-01  0.2464E+00
      5.136  0.1766E-01  0.2502E+00
      5.347  0.1876E-01  0.2541E+00
      5.557  0.1707E-01  0.2577E+00
      5.768  0.1765E-01  0.2614E+00
      5.978  0.2452E-01  0.2666E+00
      6.189  0.3228E-01  0.2734E+00
      6.399  0.3711E-01  0.2812E+00
      6.610  0.3711E-01  0.2890E+00
      6.820  0.4363E-01  0.2982E+00
      7.031  0.5575E-01  0.3099E+00
      7.241  0.4965E-01  0.3204E+00
      7.452  0.2845E-01  0.3263E+00
      7.662  0.3841E-01  0.3344E+00
      7.873  0.5141E-01  0.3452E+00
      8.083  0.6118E-01  0.3581E+00
      8.293  0.7932E-01  0.3748E+00
      8.504  0.7333E-01  0.3903E+00
      8.714  0.9857E-01  0.4110E+00
      8.925  0.2560E+00  0.4649E+00
      9.135  0.3154E+00  0.5313E+00
      9.346  0.5778E-01  0.5434E+00
      9.556 -0.8465E-02  0.5416E+00
      9.767 -0.4391E-03  0.5415E+00
      9.977 -0.2191E-05  0.5415E+00
     10.188 -0.1472E-08  0.5415E+00
     10.398 -0.1300E-12  0.5415E+00
     10.609 -0.1176E-17  0.5415E+00
     10.819  0.0000E+00  0.5415E+00
     11.030  0.0000E+00  0.5415E+00
     11.240  0.0000E+00  0.5415E+00
     11.451  0.0000E+00  0.5415E+00
     11.661  0.0000E+00  0.5415E+00
     11.871  0.0000E+00  0.5415E+00
     12.082  0.0000E+00  0.5415E+00
