   24   24  325    1
  0.1041704E+02  0.5582428E-09  0.5582428E-09  0.8022492E-09  0.1500000E-16
  1.000000000000000E-004
  CAR 
 unknown system                          
    123     60     88
 
  0.1276756E-14  0.1276756E-14  0.1276756E-14  0.2057613E-02
      1        -48.189209   1.000000
      2        -48.188423   1.000000
      3        -48.123068   1.000000
      4        -48.123068   1.000000
      5        -48.122419   1.000000
      6        -48.122419   1.000000
      7        -48.059482   1.000000
      8        -48.058857   1.000000
      9        -24.657857   1.000000
     10        -24.657832   1.000000
     11        -24.654939   1.000000
     12        -24.654915   1.000000
     13        -24.582139   1.000000
     14        -24.582139   1.000000
     15        -24.580506   1.000000
     16        -24.580506   1.000000
     17        -24.562001   1.000000
     18        -24.542287   1.000000
     19        -24.492319   1.000000
     20        -24.492319   1.000000
     21        -24.477788   1.000000
     22        -24.477788   1.000000
     23        -24.430586   1.000000
     24        -24.418295   1.000000
     25        -24.132555   1.000000
     26        -24.132555   1.000000
     27        -24.131835   1.000000
     28        -24.131835   1.000000
     29        -24.086013   1.000000
     30        -24.085983   1.000000
     31        -24.085240   1.000000
     32        -24.085224   1.000000
     33         -0.365345   1.000000
     34          1.243388   1.000000
     35          3.245130   1.000000
     36          3.780568   1.000000
     37          3.780782   1.000000
     38          4.083593   1.000000
     39          4.083593   1.000000
     40          4.234890   1.000000
     41          4.235139   1.000000
     42          5.250556   1.000000
     43          5.805128   1.000000
     44          5.805128   1.000000
     45          5.869067   1.000000
     46          6.299301   1.000000
     47          6.299301   1.000000
     48          6.452683   1.000000
     49          6.804552   1.000000
     50          6.804643   1.000000
     51          7.062443   1.000000
     52          7.062443   1.000000
     53          7.429170   1.000000
     54          7.498735   1.000000
     55          7.498887   1.000000
     56          7.544026   1.000000
     57          7.695293   1.000020
     58          7.819019   1.000606
     59          7.819019   1.000606
     60          8.174488   1.004367
     61          8.174488   1.004367
     62          8.322377   0.603319
     63          8.322377   0.603319
     64          8.429276   0.182379
     65          8.474846   0.063159
     66          8.827361  -0.001776
     67          8.827361  -0.001776
     68          8.829925  -0.001681
     69          8.829925  -0.001681
     70          8.834864  -0.001512
     71          8.852187  -0.001030
     72          8.852886  -0.001014
     73          8.941572  -0.000109
     74          8.941906  -0.000108
     75          8.944648  -0.000100
     76          8.945500  -0.000097
     77          8.951563  -0.000082
     78          8.976283  -0.000040
     79          9.004112  -0.000017
     80          9.004113  -0.000017
     81          9.011572  -0.000014
     82          9.011949  -0.000014
     83          9.017664  -0.000011
     84          9.017667  -0.000011
     85          9.018329  -0.000011
     86          9.018332  -0.000011
     87          9.033844  -0.000007
     88          9.103321  -0.000001
 
  0.1111111E+00  0.1276756E-14  0.1276756E-14  0.8230453E-02
      1        -48.187227   1.000000
      2        -48.186443   1.000000
      3        -48.125081   1.000000
      4        -48.124424   1.000000
      5        -48.121169   1.000000
      6        -48.120516   1.000000
      7        -48.061407   1.000000
      8        -48.060788   1.000000
      9        -24.655583   1.000000
     10        -24.652697   1.000000
     11        -24.642462   1.000000
     12        -24.639617   1.000000
     13        -24.584434   1.000000
     14        -24.582759   1.000000
     15        -24.567571   1.000000
     16        -24.565959   1.000000
     17        -24.559912   1.000000
     18        -24.540352   1.000000
     19        -24.494427   1.000000
     20        -24.490463   1.000000
     21        -24.479737   1.000000
     22        -24.476003   1.000000
     23        -24.432460   1.000000
     24        -24.420100   1.000000
     25        -24.148874   1.000000
     26        -24.148088   1.000000
     27        -24.131157   1.000000
     28        -24.130431   1.000000
     29        -24.101387   1.000000
     30        -24.100593   1.000000
     31        -24.087417   1.000000
     32        -24.086649   1.000000
     33         -0.303153   1.000000
     34          1.287168   1.000000
     35          3.288455   1.000000
     36          3.315400   1.000000
     37          3.589757   1.000000
     38          3.829535   1.000000
     39          4.144910   1.000000
     40          4.265820   1.000000
     41          5.064321   1.000000
     42          5.226398   1.000000
     43          5.823049   1.000000
     44          5.907455   1.000000
     45          6.032737   1.000000
     46          6.158829   1.000000
     47          6.289475   1.000000
     48          6.501519   1.000000
     49          6.667495   1.000000
     50          6.833827   1.000000
     51          6.841554   1.000000
     52          7.145576   1.000000
     53          7.227034   1.000000
     54          7.428297   1.000000
     55          7.452868   1.000000
     56          7.728466   1.000055
     57          7.776491   1.000208
     58          7.790211   1.000297
     59          7.856702   1.001434
     60          8.104893   1.035426
     61          8.237274   0.895631
     62          8.293748   0.716718
     63          8.353072   0.474322
     64          8.487966   0.038451
     65          8.490181   0.034696
     66          8.810213  -0.002531
     67          8.810784  -0.002502
     68          8.820975  -0.002030
     69          8.831420  -0.001628
     70          8.832294  -0.001598
     71          8.834756  -0.001516
     72          8.882082  -0.000510
     73          8.932947  -0.000138
     74          8.944821  -0.000099
     75          8.945553  -0.000097
     76          8.945604  -0.000097
     77          8.949195  -0.000088
     78          8.991079  -0.000026
     79          9.000476  -0.000019
     80          9.011046  -0.000014
     81          9.011589  -0.000014
     82          9.014142  -0.000013
     83          9.019392  -0.000011
     84          9.021630  -0.000010
     85          9.022619  -0.000010
     86          9.029759  -0.000008
     87          9.039559  -0.000006
     88          9.055880  -0.000003
 
  0.2222222E+00  0.1276756E-14  0.1276756E-14  0.8230453E-02
      1        -48.181524   1.000000
      2        -48.180754   1.000000
      3        -48.130866   1.000000
      4        -48.130190   1.000000
      5        -48.115685   1.000000
      6        -48.115036   1.000000
      7        -48.066959   1.000000
      8        -48.066341   1.000000
      9        -24.649055   1.000000
     10        -24.646280   1.000000
     11        -24.598035   1.000000
     12        -24.595354   1.000000
     13        -24.591051   1.000000
     14        -24.589280   1.000000
     15        -24.553901   1.000000
     16        -24.534786   1.000000
     17        -24.525510   1.000000
     18        -24.523986   1.000000
     19        -24.500508   1.000000
     20        -24.485383   1.000000
     21        -24.485137   1.000000
     22        -24.470869   1.000000
     23        -24.437860   1.000000
     24        -24.425293   1.000000
     25        -24.195704   1.000000
     26        -24.194730   1.000000
     27        -24.145526   1.000000
     28        -24.144653   1.000000
     29        -24.127134   1.000000
     30        -24.126407   1.000000
     31        -24.091473   1.000000
     32        -24.090712   1.000000
     33         -0.117827   1.000000
     34          1.417754   1.000000
     35          2.486394   1.000000
     36          3.177051   1.000000
     37          3.522487   1.000000
     38          3.974880   1.000000
     39          4.326345   1.000000
     40          4.355427   1.000000
     41          5.151120   1.000000
     42          5.807920   1.000000
     43          5.874141   1.000000
     44          5.943426   1.000000
     45          6.020158   1.000000
     46          6.060003   1.000000
     47          6.258680   1.000000
     48          6.549910   1.000000
     49          6.640338   1.000000
     50          6.654303   1.000000
     51          6.918961   1.000000
     52          6.950137   1.000000
     53          7.240182   1.000000
     54          7.383557   1.000000
     55          7.512907   1.000000
     56          7.705086   1.000028
     57          7.821142   1.000637
     58          7.929310   1.005945
     59          7.965009   1.010577
     60          8.050478   1.028420
     61          8.155217   1.020321
     62          8.250437   0.860514
     63          8.409529   0.249211
     64          8.535435  -0.018039
     65          8.664406  -0.023666
     66          8.749699  -0.007652
     67          8.755671  -0.006932
     68          8.758378  -0.006624
     69          8.763903  -0.006027
     70          8.846568  -0.001169
     71          8.849053  -0.001106
     72          8.905149  -0.000287
     73          8.934491  -0.000132
     74          8.943646  -0.000103
     75          8.944939  -0.000099
     76          8.956942  -0.000071
     77          8.960895  -0.000063
     78          8.988069  -0.000028
     79          8.992170  -0.000025
     80          8.992655  -0.000025
     81          9.007044  -0.000016
     82          9.013533  -0.000013
     83          9.021560  -0.000010
     84          9.031721  -0.000007
     85          9.035057  -0.000006
     86          9.053273  -0.000004
     87          9.054282  -0.000003
     88          9.082254  -0.000001
 
  0.3333333E+00  0.1276756E-14  0.1276756E-14  0.8230453E-02
      1        -48.172771   1.000000
      2        -48.172020   1.000000
      3        -48.139708   1.000000
      4        -48.139018   1.000000
      5        -48.107266   1.000000
      6        -48.106628   1.000000
      7        -48.075464   1.000000
      8        -48.074843   1.000000
      9        -24.639028   1.000000
     10        -24.636430   1.000000
     11        -24.601170   1.000000
     12        -24.599213   1.000000
     13        -24.544664   1.000000
     14        -24.529513   1.000000
     15        -24.527118   1.000000
     16        -24.526245   1.000000
     17        -24.509823   1.000000
     18        -24.493988   1.000000
     19        -24.476957   1.000000
     20        -24.462981   1.000000
     21        -24.460691   1.000000
     22        -24.459259   1.000000
     23        -24.446087   1.000000
     24        -24.433236   1.000000
     25        -24.266957   1.000000
     26        -24.265667   1.000000
     27        -24.212695   1.000000
     28        -24.211709   1.000000
     29        -24.120963   1.000000
     30        -24.120231   1.000000
     31        -24.097676   1.000000
     32        -24.096927   1.000000
     33          0.187248   1.000000
     34          1.632810   1.000000
     35          1.764569   1.000000
     36          2.721490   1.000000
     37          3.856192   1.000000
     38          4.212809   1.000000
     39          4.495059   1.000000
     40          4.620824   1.000000
     41          5.023297   1.000000
     42          5.369478   1.000000
     43          5.431974   1.000000
     44          5.950626   1.000000
     45          6.058205   1.000000
     46          6.199655   1.000000
     47          6.204817   1.000000
     48          6.702014   1.000000
     49          6.847195   1.000000
     50          6.983250   1.000000
     51          7.052104   1.000000
     52          7.123566   1.000000
     53          7.159856   1.000000
     54          7.569804   1.000000
     55          7.570605   1.000000
     56          7.700422   1.000024
     57          7.736530   1.000069
     58          7.893477   1.003068
     59          7.952542   1.008734
     60          8.128661   1.032213
     61          8.179715   0.998788
     62          8.259356   0.834305
     63          8.591312  -0.035456
     64          8.606395  -0.034730
     65          8.621025  -0.032807
     66          8.633675  -0.030491
     67          8.645345  -0.028019
     68          8.656055  -0.025596
     69          8.749110  -0.007725
     70          8.854552  -0.000977
     71          8.869131  -0.000696
     72          8.871252  -0.000662
     73          8.930727  -0.000146
     74          8.942639  -0.000105
     75          8.964044  -0.000058
     76          8.964699  -0.000056
     77          8.968953  -0.000050
     78          8.973808  -0.000043
     79          8.975014  -0.000042
     80          8.978002  -0.000038
     81          9.003614  -0.000018
     82          9.021215  -0.000010
     83          9.033292  -0.000007
     84          9.046956  -0.000004
     85          9.051362  -0.000004
     86          9.055879  -0.000003
     87          9.069118  -0.000002
     88          9.078338  -0.000001
 
  0.4444444E+00  0.1276756E-14  0.1276756E-14  0.8230453E-02
      1        -48.162013   1.000000
      2        -48.161277   1.000000
      3        -48.150529   1.000000
      4        -48.149817   1.000000
      5        -48.096918   1.000000
      6        -48.096283   1.000000
      7        -48.085876   1.000000
      8        -48.085242   1.000000
      9        -24.626706   1.000000
     10        -24.624326   1.000000
     11        -24.613560   1.000000
     12        -24.611394   1.000000
     13        -24.533325   1.000000
     14        -24.521222   1.000000
     15        -24.515743   1.000000
     16        -24.504539   1.000000
     17        -24.466906   1.000000
     18        -24.456185   1.000000
     19        -24.453293   1.000000
     20        -24.444721   1.000000
     21        -24.442954   1.000000
     22        -24.442669   1.000000
     23        -24.380530   1.000000
     24        -24.379241   1.000000
     25        -24.353538   1.000000
     26        -24.351877   1.000000
     27        -24.294413   1.000000
     28        -24.293275   1.000000
     29        -24.113375   1.000000
     30        -24.112644   1.000000
     31        -24.105286   1.000000
     32        -24.104546   1.000000
     33          0.606965   1.000000
     34          1.135176   1.000000
     35          1.927946   1.000000
     36          2.295491   1.000000
     37          4.300440   1.000000
     38          4.535689   1.000000
     39          4.669043   1.000000
     40          4.834290   1.000000
     41          4.854416   1.000000
     42          4.929650   1.000000
     43          5.017592   1.000000
     44          5.502838   1.000000
     45          6.040481   1.000000
     46          6.129484   1.000000
     47          6.433323   1.000000
     48          6.702892   1.000000
     49          7.084009   1.000000
     50          7.168546   1.000000
     51          7.219254   1.000000
     52          7.350486   1.000000
     53          7.400056   1.000000
     54          7.498064   1.000000
     55          7.553552   1.000000
     56          7.614602   1.000001
     57          7.756801   1.000123
     58          8.087549   1.034725
     59          8.122239   1.033664
     60          8.179505   0.999023
     61          8.257546   0.839777
     62          8.321145   0.608394
     63          8.346643   0.501512
     64          8.434327   0.166661
     65          8.491399   0.032682
     66          8.507260   0.009621
     67          8.693493  -0.017156
     68          8.746365  -0.008077
     69          8.774898  -0.004965
     70          8.781339  -0.004416
     71          8.898392  -0.000341
     72          8.900106  -0.000326
     73          8.931245  -0.000144
     74          8.932557  -0.000139
     75          8.933589  -0.000135
     76          8.938588  -0.000118
     77          8.954622  -0.000075
     78          8.955865  -0.000073
     79          8.997208  -0.000021
     80          8.999027  -0.000020
     81          9.013804  -0.000013
     82          9.027002  -0.000008
     83          9.047095  -0.000004
     84          9.047773  -0.000004
     85          9.063368  -0.000003
     86          9.064960  -0.000002
     87          9.067591  -0.000002
     88          9.069220  -0.000002
 
  0.1111111E+00  0.1111111E+00  0.1276756E-14  0.8230453E-02
      1        -48.185251   1.000000
      2        -48.184473   1.000000
      3        -48.123178   1.000000
      4        -48.123178   1.000000
      5        -48.122518   1.000000
      6        -48.122518   1.000000
      7        -48.063338   1.000000
      8        -48.062721   1.000000
      9        -24.640235   1.000000
     10        -24.640210   1.000000
     11        -24.637425   1.000000
     12        -24.637401   1.000000
     13        -24.570783   1.000000
     14        -24.569101   1.000000
     15        -24.568914   1.000000
     16        -24.567316   1.000000
     17        -24.557830   1.000000
     18        -24.538425   1.000000
     19        -24.492568   1.000000
     20        -24.492568   1.000000
     21        -24.477949   1.000000
     22        -24.477949   1.000000
     23        -24.434344   1.000000
     24        -24.421911   1.000000
     25        -24.148443   1.000000
     26        -24.147620   1.000000
     27        -24.146454   1.000000
     28        -24.145713   1.000000
     29        -24.102838   1.000000
     30        -24.102808   1.000000
     31        -24.102038   1.000000
     32        -24.102021   1.000000
     33         -0.241164   1.000000
     34          1.330974   1.000000
     35          3.339314   1.000000
     36          3.339436   1.000000
     37          3.385171   1.000000
     38          3.637112   1.000000
     39          3.637306   1.000000
     40          5.104584   1.000000
     41          5.104707   1.000000
     42          5.170862   1.000000
     43          5.939252   1.000000
     44          5.942377   1.000000
     45          6.050922   1.000000
     46          6.050941   1.000000
     47          6.381105   1.000000
     48          6.549682   1.000000
     49          6.707615   1.000000
     50          6.707690   1.000000
     51          6.870196   1.000000
     52          6.870288   1.000000
     53          7.037975   1.000000
     54          7.477494   1.000000
     55          7.758568   1.000129
     56          7.758637   1.000129
     57          7.762320   1.000142
     58          7.787730   1.000279
     59          7.869236   1.001876
     60          8.161011   1.016247
     61          8.161012   1.016246
     62          8.289765   0.731536
     63          8.317763   0.622258
     64          8.500475   0.018777
     65          8.539468  -0.020764
     66          8.802581  -0.002947
     67          8.808795  -0.002604
     68          8.815144  -0.002290
     69          8.815164  -0.002289
     70          8.829104  -0.001711
     71          8.867190  -0.000729
     72          8.867835  -0.000718
     73          8.933509  -0.000136
     74          8.933632  -0.000135
     75          8.937488  -0.000122
     76          8.951722  -0.000082
     77          8.952329  -0.000080
     78          9.001896  -0.000019
     79          9.002211  -0.000018
     80          9.005785  -0.000016
     81          9.006179  -0.000016
     82          9.022380  -0.000010
     83          9.022748  -0.000010
     84          9.026138  -0.000009
     85          9.031073  -0.000007
     86          9.034855  -0.000007
     87          9.035282  -0.000006
     88          9.045791  -0.000005
 
  0.2222222E+00  0.1111111E+00  0.1276756E-14  0.1646091E-01
      1        -48.179556   1.000000
      2        -48.178791   1.000000
      3        -48.128952   1.000000
      4        -48.128284   1.000000
      5        -48.117687   1.000000
      6        -48.117035   1.000000
      7        -48.068903   1.000000
      8        -48.068281   1.000000
      9        -24.633768   1.000000
     10        -24.631066   1.000000
     11        -24.595868   1.000000
     12        -24.593228   1.000000
     13        -24.576453   1.000000
     14        -24.574691   1.000000
     15        -24.551839   1.000000
     16        -24.532869   1.000000
     17        -24.527647   1.000000
     18        -24.526078   1.000000
     19        -24.498633   1.000000
     20        -24.487222   1.000000
     21        -24.483580   1.000000
     22        -24.472797   1.000000
     23        -24.439747   1.000000
     24        -24.427113   1.000000
     25        -24.194267   1.000000
     26        -24.193290   1.000000
     27        -24.147033   1.000000
     28        -24.146161   1.000000
     29        -24.143273   1.000000
     30        -24.142495   1.000000
     31        -24.106956   1.000000
     32        -24.106166   1.000000
     33         -0.056392   1.000000
     34          1.461649   1.000000
     35          2.539778   1.000000
     36          3.222887   1.000000
     37          3.488759   1.000000
     38          3.590840   1.000000
     39          3.778315   1.000000
     40          5.000062   1.000000
     41          5.223165   1.000000
     42          5.560128   1.000000
     43          5.978641   1.000000
     44          6.043894   1.000000
     45          6.100859   1.000000
     46          6.102608   1.000000
     47          6.424522   1.000000
     48          6.566431   1.000000
     49          6.668390   1.000000
     50          6.686204   1.000000
     51          6.776917   1.000000
     52          6.953741   1.000000
     53          6.977035   1.000000
     54          7.540469   1.000000
     55          7.716770   1.000039
     56          7.761501   1.000139
     57          7.856949   1.001442
     58          7.966567   1.010825
     59          7.977224   1.012624
     60          8.056322   1.029670
     61          8.118780   1.034253
     62          8.282718   0.757051
     63          8.306119   0.669040
     64          8.536729  -0.018944
     65          8.669017  -0.022600
     66          8.747911  -0.007878
     67          8.750631  -0.007536
     68          8.760314  -0.006409
     69          8.827098  -0.001785
     70          8.829415  -0.001700
     71          8.839055  -0.001380
     72          8.904204  -0.000294
     73          8.922876  -0.000180
     74          8.933445  -0.000136
     75          8.936358  -0.000125
     76          8.961279  -0.000062
     77          8.963370  -0.000059
     78          8.980411  -0.000036
     79          8.988183  -0.000028
     80          8.990343  -0.000026
     81          8.994380  -0.000023
     82          9.018352  -0.000011
     83          9.032616  -0.000007
     84          9.036081  -0.000006
     85          9.048536  -0.000004
     86          9.058356  -0.000003
     87          9.062410  -0.000003
     88          9.077580  -0.000002
 
  0.3333333E+00  0.1111111E+00  0.1276756E-14  0.1646091E-01
      1        -48.170815   1.000000
      2        -48.170064   1.000000
      3        -48.137787   1.000000
      4        -48.137095   1.000000
      5        -48.109258   1.000000
      6        -48.108615   1.000000
      7        -48.077419   1.000000
      8        -48.076794   1.000000
      9        -24.623864   1.000000
     10        -24.621322   1.000000
     11        -24.586451   1.000000
     12        -24.584531   1.000000
     13        -24.542635   1.000000
     14        -24.527468   1.000000
     15        -24.525096   1.000000
     16        -24.524351   1.000000
     17        -24.507914   1.000000
     18        -24.492170   1.000000
     19        -24.479014   1.000000
     20        -24.464895   1.000000
     21        -24.462736   1.000000
     22        -24.461288   1.000000
     23        -24.448032   1.000000
     24        -24.435075   1.000000
     25        -24.265379   1.000000
     26        -24.264093   1.000000
     27        -24.214334   1.000000
     28        -24.213338   1.000000
     29        -24.136994   1.000000
     30        -24.136214   1.000000
     31        -24.113290   1.000000
     32        -24.112500   1.000000
     33          0.247772   1.000000
     34          1.676858   1.000000
     35          1.820266   1.000000
     36          2.766493   1.000000
     37          3.726280   1.000000
     38          3.921972   1.000000
     39          4.009024   1.000000
     40          4.722256   1.000000
     41          5.128036   1.000000
     42          5.412670   1.000000
     43          5.480460   1.000000
     44          6.179149   1.000000
     45          6.201981   1.000000
     46          6.295774   1.000000
     47          6.407113   1.000000
     48          6.730048   1.000000
     49          6.751069   1.000000
     50          6.888384   1.000000
     51          7.084137   1.000000
     52          7.146853   1.000000
     53          7.172104   1.000000
     54          7.587818   1.000001
     55          7.603368   1.000001
     56          7.747566   1.000095
     57          7.881831   1.002433
     58          7.907637   1.004023
     59          7.991039   1.015220
     60          8.129114   1.032092
     61          8.205153   0.963056
     62          8.269961   0.800715
     63          8.438275   0.154796
     64          8.587664  -0.035385
     65          8.602059  -0.035091
     66          8.637799  -0.029645
     67          8.660097  -0.024664
     68          8.755119  -0.006996
     69          8.789848  -0.003768
     70          8.851948  -0.001036
     71          8.852086  -0.001033
     72          8.861189  -0.000839
     73          8.916962  -0.000211
     74          8.930768  -0.000146
     75          8.950027  -0.000086
     76          8.958693  -0.000067
     77          8.965976  -0.000054
     78          8.967539  -0.000052
     79          8.977891  -0.000038
     80          8.979716  -0.000036
     81          8.993847  -0.000024
     82          9.022863  -0.000010
     83          9.050607  -0.000004
     84          9.050818  -0.000004
     85          9.053449  -0.000004
     86          9.066154  -0.000002
     87          9.070048  -0.000002
     88          9.083603  -0.000001
 
  0.4444444E+00  0.1111111E+00  0.1276756E-14  0.1646091E-01
      1        -48.160065   1.000000
      2        -48.159333   1.000000
      3        -48.148594   1.000000
      4        -48.147882   1.000000
      5        -48.098895   1.000000
      6        -48.098259   1.000000
      7        -48.087840   1.000000
      8        -48.087207   1.000000
      9        -24.611682   1.000000
     10        -24.609341   1.000000
     11        -24.598692   1.000000
     12        -24.596565   1.000000
     13        -24.531337   1.000000
     14        -24.519276   1.000000
     15        -24.513869   1.000000
     16        -24.502694   1.000000
     17        -24.468924   1.000000
     18        -24.458162   1.000000
     19        -24.455186   1.000000
     20        -24.444838   1.000000
     21        -24.442821   1.000000
     22        -24.440790   1.000000
     23        -24.382443   1.000000
     24        -24.381130   1.000000
     25        -24.351802   1.000000
     26        -24.350153   1.000000
     27        -24.296176   1.000000
     28        -24.295028   1.000000
     29        -24.129271   1.000000
     30        -24.128487   1.000000
     31        -24.121039   1.000000
     32        -24.120253   1.000000
     33          0.666261   1.000000
     34          1.192838   1.000000
     35          1.972206   1.000000
     36          2.340040   1.000000
     37          4.033541   1.000000
     38          4.321536   1.000000
     39          4.362149   1.000000
     40          4.380803   1.000000
     41          4.702271   1.000000
     42          4.890236   1.000000
     43          5.662079   1.000000
     44          5.959083   1.000000
     45          6.266914   1.000000
     46          6.348841   1.000000
     47          6.398093   1.000000
     48          6.600196   1.000000
     49          7.115687   1.000000
     50          7.185155   1.000000
     51          7.247457   1.000000
     52          7.367298   1.000000
     53          7.423486   1.000000
     54          7.554447   1.000000
     55          7.595514   1.000001
     56          7.620442   1.000002
     57          7.763242   1.000146
     58          8.127761   1.032445
     59          8.186130   0.991152
     60          8.216703   0.941783
     61          8.258250   0.837660
     62          8.322506   0.602787
     63          8.326104   0.587886
     64          8.418495   0.217844
     65          8.454029   0.111213
     66          8.510086   0.006109
     67          8.687761  -0.018382
     68          8.776747  -0.004802
     69          8.792605  -0.003576
     70          8.795503  -0.003383
     71          8.881783  -0.000514
     72          8.890754  -0.000412
     73          8.915592  -0.000219
     74          8.919714  -0.000196
     75          8.924557  -0.000173
     76          8.925623  -0.000168
     77          8.949888  -0.000086
     78          8.950279  -0.000085
     79          8.998213  -0.000021
     80          9.000261  -0.000020
     81          9.014459  -0.000013
     82          9.026391  -0.000009
     83          9.029409  -0.000008
     84          9.052637  -0.000004
     85          9.069077  -0.000002
     86          9.073738  -0.000002