       N       E                     dE             d eps       ncg     rms          rms(c)
DAV:   1     0.146650347028E+04    0.14665E+04   -0.67822E+04 10560   0.169E+03
DAV:   2     0.353210729671E+03   -0.11133E+04   -0.11066E+04 10560   0.436E+02
DAV:   3     0.247151448566E+03   -0.10606E+03   -0.10545E+03 21032   0.111E+02
DAV:   4     0.241935019561E+03   -0.52164E+01   -0.52077E+01 13596   0.235E+01
DAV:   5     0.241609042905E+03   -0.32598E+00   -0.32597E+00 18480   0.454E+00    0.311E+01
DAV:   6     0.203180709128E+03   -0.38428E+02   -0.11972E+03 21120   0.341E+01    0.120E+02
DAV:   7     0.293450665368E+03    0.90270E+02   -0.32383E+03 18480   0.374E+01    0.133E+01
DAV:   8     0.284516085836E+03   -0.89346E+01   -0.12862E+02 16984   0.234E+01    0.128E+01
DAV:   9     0.287377688920E+03    0.28616E+01   -0.24839E+00 15840   0.348E+00    0.115E+01
DAV:  10     0.294870091158E+03    0.74924E+01   -0.47083E+00 19712   0.311E+00    0.846E+00
DAV:  11     0.297622565535E+03    0.27525E+01   -0.43944E+00 19360   0.162E+00    0.492E+00
DAV:  12     0.295940285681E+03   -0.16823E+01   -0.25097E+00 17732   0.191E+00    0.708E+00
DAV:  13     0.298045326060E+03    0.21050E+01   -0.36685E+00 16808   0.188E+00    0.381E+00
DAV:  14     0.298427645710E+03    0.38232E+00   -0.10702E+00 19580   0.113E+00    0.190E+00
DAV:  15     0.295937334034E+03   -0.24903E+01   -0.30878E+01 20812   0.254E+00    0.222E+01
DAV:  16     0.295696806301E+03   -0.24053E+00   -0.71461E-01 17732   0.120E+00    0.236E+01
DAV:  17     0.295748187550E+03    0.51381E-01   -0.22103E-01 17512   0.409E-01    0.235E+01
DAV:  18     0.294655151872E+03   -0.10930E+01   -0.10022E+00 19580   0.568E-01    0.284E+01
DAV:  19     0.292356755059E+03   -0.22984E+01   -0.28830E+00 20636   0.885E-01    0.369E+01
DAV:  20     0.292385230288E+03    0.28475E-01   -0.87963E-02 14916   0.510E-01    0.368E+01
DAV:  21     0.292623781894E+03    0.23855E+00   -0.14105E-01 17424   0.582E-01    0.365E+01
DAV:  22     0.288238356778E+03   -0.43854E+01   -0.96302E+00 15620   0.222E+00    0.501E+01
DAV:  23     0.287624276171E+03   -0.61408E+00   -0.28950E-01 17204   0.775E-01    0.517E+01
DAV:  24     0.293627821084E+03    0.60035E+01   -0.12408E+01 20108   0.160E+00    0.335E+01
DAV:  25     0.296420415411E+03    0.27926E+01   -0.69449E+00 20900   0.134E+00    0.195E+01
DAV:  26     0.293409509705E+03   -0.30109E+01   -0.65347E+00 15356   0.138E+00    0.332E+01
DAV:  27     0.293565700169E+03    0.15619E+00   -0.33438E-01 19404   0.700E-01    0.326E+01
DAV:  28     0.293009766753E+03   -0.55593E+00   -0.22413E-01 15708   0.648E-01    0.347E+01
DAV:  29     0.293553876226E+03    0.54411E+00   -0.14110E-01 17468   0.347E-01    0.328E+01
DAV:  30     0.293516691422E+03   -0.37185E-01   -0.31516E-02 16764   0.338E-01    0.332E+01
DAV:  31     0.292427465335E+03   -0.10892E+01   -0.53045E-01 20020   0.309E-01    0.374E+01
DAV:  32     0.292338308427E+03   -0.89157E-01   -0.96602E-03 16852   0.128E-01    0.377E+01
DAV:  33     0.293156398262E+03    0.81809E+00   -0.28333E-01 16896   0.283E-01    0.346E+01
DAV:  34     0.296126032580E+03    0.29696E+01   -0.62381E+00 20108   0.106E+00    0.207E+01
DAV:  35     0.296688044659E+03    0.56201E+00   -0.49644E-01 20152   0.523E-01    0.172E+01
DAV:  36     0.297110768507E+03    0.42272E+00   -0.32492E-01 16236   0.393E-01    0.144E+01
DAV:  37     0.297966696560E+03    0.85593E+00   -0.22669E+00 17996   0.757E-01    0.734E+00
DAV:  38     0.298115643886E+03    0.14895E+00   -0.15792E-01 16412   0.507E-01    0.629E+00
DAV:  39     0.298479635702E+03    0.36399E+00   -0.15292E+00 16280   0.961E-01    0.258E+00
DAV:  40     0.298401624360E+03   -0.78011E-01   -0.21565E-01 16500   0.597E-01    0.394E+00
DAV:  41     0.298483751178E+03    0.82127E-01   -0.10827E-01 19448   0.289E-01    0.299E+00
DAV:  42     0.298540691700E+03    0.56941E-01   -0.12607E-01 19800   0.257E-01    0.196E+00
DAV:  43     0.298535154519E+03   -0.55372E-02   -0.67107E-03 14696   0.143E-01    0.207E+00
DAV:  44     0.298566550006E+03    0.31395E-01   -0.58468E-02 20284   0.145E-01    0.133E+00
DAV:  45     0.298570113682E+03    0.35637E-02   -0.24487E-03 17292   0.665E-02    0.123E+00
DAV:  46     0.298585395241E+03    0.15282E-01   -0.57575E-02 18964   0.164E-01    0.535E-01
DAV:  47     0.298579843294E+03   -0.55519E-02   -0.99447E-03 17292   0.862E-02    0.772E-01
DAV:  48     0.298586176786E+03    0.63335E-02   -0.12432E-02 20416   0.776E-02    0.476E-01
DAV:  49     0.298587086423E+03    0.90964E-03   -0.21387E-03 18172   0.475E-02    0.378E-01
DAV:  50     0.298588720816E+03    0.16344E-02   -0.36179E-03 16940   0.538E-02    0.253E-01
DAV:  51     0.298589652427E+03    0.93161E-03   -0.37971E-03 19536   0.444E-02    0.147E-01
DAV:  52     0.298590038226E+03    0.38580E-03   -0.12220E-03 20240   0.319E-02    0.122E-01
DAV:  53     0.298590135950E+03    0.97724E-04   -0.16764E-03 20592   0.283E-02    0.144E-01
DAV:  54     0.298590382815E+03    0.24687E-03   -0.97261E-04 20592   0.239E-02    0.742E-02
DAV:  55     0.298590379374E+03   -0.34411E-05   -0.22805E-04 19316   0.125E-02    0.824E-02
DAV:  56     0.298590431667E+03    0.52292E-04   -0.40342E-04 18832   0.119E-02    0.509E-02
DAV:  57     0.298590425997E+03   -0.56695E-05   -0.81705E-05 14916   0.743E-03    0.514E-02
DAV:  58     0.298590432599E+03    0.66015E-05   -0.11246E-05 12232   0.372E-03    0.500E-02
DAV:  59     0.298590449473E+03    0.16875E-04   -0.55031E-06 12760   0.216E-03    0.451E-02
DAV:  60     0.298590470550E+03    0.21077E-04   -0.14920E-05 13860   0.316E-03    0.360E-02
DAV:  61     0.298590483162E+03    0.12612E-04   -0.56145E-06 13508   0.211E-03    0.297E-02
DAV:  62     0.298590492840E+03    0.96773E-05   -0.75270E-06 13860   0.253E-03    0.240E-02
DAV:  63     0.298590498107E+03    0.52676E-05   -0.30134E-06 13112   0.160E-03    0.200E-02
DAV:  64     0.298590504708E+03    0.66011E-05   -0.84185E-06 15312   0.267E-03    0.140E-02
DAV:  65     0.298590508388E+03    0.36797E-05   -0.54122E-06 13948   0.205E-03    0.844E-03
DAV:  66     0.298590510090E+03    0.17021E-05   -0.54637E-06 14256   0.197E-03    0.369E-03
DAV:  67     0.298590510309E+03    0.21845E-06   -0.82323E-07 13068   0.113E-03
   1 F= 0.29859051E+03 E0= 0.29858789E+03  d E =0.785117E-02
 Found     6 degrees of freedom:
 Adding 6 more for cell shape distortion
       N       E                     dE             d eps       ncg     rms          rms(c)
DAV:   1     0.298560802719E+03   -0.29707E-01   -0.14904E+01 17600   0.226E+01    0.516E+00
DAV:   2     0.295885479946E+03   -0.26753E+01   -0.35714E+01 28556   0.933E+00    0.229E+01
DAV:   3     0.295852686632E+03   -0.32793E-01   -0.18503E+02 31944   0.928E+00    0.101E+01
DAV:   4     0.296583354758E+03    0.73067E+00   -0.47575E+00 28248   0.486E+00    0.874E+00
DAV:   5     0.298334085011E+03    0.17507E+01   -0.31016E+00 33748   0.212E+00    0.580E+00
DAV:   6     0.298304835851E+03   -0.29249E-01   -0.20430E+01 31900   0.211E+00    0.988E+00
DAV:   7     0.298986864610E+03    0.68203E+00   -0.57745E+00 33748   0.139E+00    0.193E+00
DAV:   8     0.298928744380E+03   -0.58120E-01   -0.24733E-01 25168   0.703E-01    0.232E+00
DAV:   9     0.298947645403E+03    0.18901E-01   -0.44932E-02 31064   0.272E-01    0.191E+00
DAV:  10     0.298980330089E+03    0.32685E-01   -0.26107E-01 32428   0.272E-01    0.340E-01
DAV:  11     0.298974333405E+03   -0.59967E-02   -0.27205E-02 30536   0.197E-01    0.646E-01
DAV:  12     0.298971611154E+03   -0.27223E-02   -0.95814E-03 32252   0.940E-02    0.862E-01
DAV:  13     0.298978542215E+03    0.69311E-02   -0.21115E-02 33924   0.101E-01    0.396E-01
DAV:  14     0.298979727609E+03    0.11854E-02   -0.46357E-03 32912   0.540E-02    0.218E-01
DAV:  15     0.298979969181E+03    0.24157E-03   -0.20249E-03 32340   0.375E-02    0.109E-01
DAV:  16     0.298979931880E+03   -0.37300E-04   -0.46163E-03 33308   0.453E-02    0.806E-02
DAV:  17     0.298979994299E+03    0.62419E-04   -0.48565E-04 29216   0.277E-02    0.534E-02
DAV:  18     0.298980007505E+03    0.13206E-04   -0.24442E-04 33660   0.113E-02    0.122E-02
DAV:  19     0.298980007804E+03    0.29872E-06   -0.12647E-05 19360   0.504E-03    0.793E-03
DAV:  20     0.298980008115E+03    0.31114E-06   -0.94987E-06 21956   0.252E-03
   2 F= 0.29898001E+03 E0= 0.29897632E+03  d E =0.110640E-01
       N       E                     dE             d eps       ncg     rms          rms(c)
DAV:   1     0.296471755584E+03   -0.25083E+01   -0.53458E+01 20636   0.416E+01    0.110E+01
DAV:   2     0.290593216324E+03   -0.58785E+01   -0.10322E+02 28248   0.200E+01    0.133E+01
DAV:   3     0.279647540309E+03   -0.10946E+02   -0.28091E+02 32868   0.984E+00    0.603E+01
DAV:   4     0.293413015197E+03    0.13765E+02   -0.87673E+02 30932   0.204E+01    0.105E+01
DAV:   5     0.289898954273E+03   -0.35141E+01   -0.36507E+01 29084   0.840E+00    0.113E+01
DAV:   6     0.289213659538E+03   -0.68529E+00   -0.11928E+00 25872   0.196E+00    0.114E+01
DAV:   7     0.291301352061E+03    0.20877E+01   -0.32193E-01 29920   0.970E-01    0.106E+01
DAV:   8     0.293863219120E+03    0.25619E+01   -0.82668E-01 31196   0.104E+00    0.946E+00
DAV:   9     0.296202877495E+03    0.23397E+01   -0.14924E+00 30800   0.103E+00    0.781E+00
DAV:  10     0.297585969160E+03    0.13831E+01   -0.18733E+00 30756   0.970E-01    0.522E+00
DAV:  11     0.297256212723E+03   -0.32976E+00   -0.22602E-01 30184   0.362E-01    0.615E+00
DAV:  12     0.297661752249E+03    0.40554E+00   -0.27211E-01 34540   0.546E-01    0.518E+00
DAV:  13     0.298204591834E+03    0.54284E+00   -0.71219E+00 34452   0.158E+00    0.260E+00
DAV:  14     0.298175297921E+03   -0.29294E-01   -0.28488E+00 31636   0.106E+00    0.207E+00
DAV:  15     0.298144549252E+03   -0.30749E-01   -0.34958E+00 31724   0.153E+00    0.323E+00
DAV:  16     0.298177649422E+03    0.33100E-01   -0.15603E-01 25476   0.607E-01    0.282E+00
DAV:  17     0.298223078311E+03    0.45429E-01   -0.25152E+00 31812   0.912E-01    0.174E+00
DAV:  18     0.298254595580E+03    0.31517E-01   -0.10602E-01 28600   0.317E-01    0.965E-01
DAV:  19     0.298179879619E+03   -0.74716E-01   -0.26215E-01 34100   0.349E-01    0.233E+00
DAV:  20     0.298217358892E+03    0.37479E-01   -0.39340E-02 30448   0.186E-01    0.194E+00
DAV:  21     0.298247410821E+03    0.30052E-01   -0.83051E-02 32780   0.173E-01    0.112E+00
DAV:  22     0.298259631198E+03    0.12220E-01   -0.34462E-02 29040   0.163E-01    0.667E-01
DAV:  23     0.298262046259E+03    0.24151E-02   -0.11968E-02 34848   0.948E-02    0.392E-01
DAV:  24     0.298263328304E+03    0.12820E-02   -0.31014E-02 32736   0.112E-01    0.116E-01
DAV:  25     0.298262207417E+03   -0.11209E-02   -0.22314E-02 33352   0.101E-01    0.301E-01
DAV:  26     0.298263498453E+03    0.12910E-02   -0.10405E-02 33484   0.733E-02    0.266E-02
DAV:  27     0.298263437200E+03   -0.61253E-04   -0.74071E-04 26884   0.331E-02    0.150E-02
DAV:  28     0.298263423252E+03   -0.13948E-04   -0.14644E-04 29392   0.127E-02    0.258E-02
DAV:  29     0.298263420326E+03   -0.29254E-05   -0.37664E-04 30932   0.126E-02    0.322E-02
DAV:  30     0.298263432897E+03    0.12571E-04   -0.17980E-04 30668   0.889E-03    0.647E-03
DAV:  31     0.298263432637E+03   -0.26002E-06   -0.10505E-05 20636   0.433E-03    0.559E-03
DAV:  32     0.298263432831E+03    0.19407E-06   -0.84591E-07 21472   0.142E-03
   3 F= 0.29826343E+03 E0= 0.29826192E+03  d E =0.454077E-02
       N       E                     dE             d eps       ncg     rms          rms(c)
DAV:   1     0.297514844794E+03   -0.74859E+00   -0.46845E+01 21384   0.396E+01    0.106E+01
DAV:   2     0.273653771578E+03   -0.23861E+02   -0.27428E+02 30580   0.198E+01    0.687E+01
DAV:   3     0.293920239160E+03    0.20266E+02   -0.10581E+03 31900   0.232E+01    0.115E+01
DAV:   4     0.289184266533E+03   -0.47360E+01   -0.48938E+01 29216   0.124E+01    0.115E+01
DAV:   5     0.291131329031E+03    0.19471E+01   -0.12217E+00 24596   0.261E+00    0.110E+01
DAV:   6     0.295345668428E+03    0.42143E+01   -0.25434E+00 31724   0.171E+00    0.870E+00
DAV:   7     0.297854122838E+03    0.25085E+01   -0.30725E+00 33352   0.171E+00    0.585E+00
DAV:   8     0.298445032334E+03    0.59091E+00   -0.59072E-01 30888   0.739E-01    0.451E+00
DAV:   9     0.298847939635E+03    0.40291E+00   -0.79560E+00 34584   0.183E+00    0.407E+00
DAV:  10     0.298565651725E+03   -0.28229E+00   -0.89428E-01 30140   0.770E-01    0.708E+00
DAV:  11     0.298942493594E+03    0.37684E+00   -0.19020E+00 32868   0.930E-01    0.242E+00
DAV:  12     0.298922324733E+03   -0.20169E-01   -0.62321E-02 27456   0.348E-01    0.263E+00
DAV:  13     0.298402593199E+03   -0.51973E+00   -0.29436E+00 33396   0.111E+00    0.865E+00
DAV:  14     0.298465859276E+03    0.63266E-01   -0.72559E-02 26268   0.399E-01    0.821E+00
DAV:  15     0.298724612649E+03    0.25875E+00   -0.53543E-01 34056   0.440E-01    0.553E+00
DAV:  16     0.298943257273E+03    0.21864E+00   -0.10970E+00 32252   0.534E-01    0.197E+00
DAV:  17     0.298971413835E+03    0.28157E-01   -0.97639E-02 30976   0.279E-01    0.120E+00
DAV:  18     0.298973710452E+03    0.22966E-02   -0.28719E-02 28908   0.178E-01    0.847E-01
DAV:  19     0.298975858954E+03    0.21485E-02   -0.93452E-03 33572   0.946E-02    0.677E-01
DAV:  20     0.298978621647E+03    0.27627E-02   -0.12314E-02 34540   0.952E-02    0.386E-01
DAV:  21     0.298980023946E+03    0.14023E-02   -0.97931E-03 31636   0.651E-02    0.110E-01
DAV:  22     0.298979881043E+03   -0.14290E-03   -0.82675E-04 26048   0.336E-02    0.124E-01
DAV:  23     0.298979975141E+03    0.94098E-04   -0.53333E-04 33836   0.158E-02    0.670E-02
DAV:  24     0.298979890315E+03   -0.84826E-04   -0.20885E-04 31460   0.109E-02    0.101E-01
DAV:  25     0.298979949508E+03    0.59193E-04   -0.80984E-05 26444   0.657E-03    0.763E-02
DAV:  26     0.298979976282E+03    0.26773E-04   -0.50180E-05 27456   0.553E-03    0.549E-02
DAV:  27     0.298979999805E+03    0.23524E-04   -0.74993E-05 31504   0.586E-03    0.303E-02
DAV:  28     0.298980002829E+03    0.30241E-05   -0.91322E-06 20284   0.341E-03    0.240E-02
DAV:  29     0.298980007750E+03    0.49210E-05   -0.41407E-05 25916   0.392E-03    0.529E-03
DAV:  30     0.298980007804E+03    0.53811E-07   -0.61347E-06 20592   0.238E-03
   4 F= 0.29898001E+03 E0= 0.29897634E+03  d E =0.109975E-01
       N       E                     dE             d eps       ncg     rms          rms(c)
DAV:   1     0.296477342135E+03   -0.25027E+01   -0.52877E+01 19536   0.417E+01    0.109E+01
DAV:   2     0.289691219495E+03   -0.67861E+01   -0.11458E+02 28556   0.203E+01    0.136E+01
DAV:   3     0.283493584743E+03   -0.61976E+01   -0.24006E+02 32648   0.966E+00    0.524E+01
DAV:   4     0.291929822070E+03    0.84362E+01   -0.78712E+02 31020   0.199E+01    0.108E+01
DAV:   5     0.289286848195E+03   -0.26430E+01   -0.28621E+01 28820   0.746E+00    0.114E+01
DAV:   6     0.289233702189E+03   -0.53146E-01   -0.80282E-01 26092   0.168E+00    0.114E+01
DAV:   7     0.291998945491E+03    0.27652E+01   -0.58496E-01 31636   0.104E+00    0.104E+01
DAV:   8     0.294631238399E+03    0.26323E+01   -0.10475E+00 31020   0.104E+00    0.910E+00
DAV:   9     0.296738794060E+03    0.21076E+01   -0.16626E+00 31856   0.104E+00    0.725E+00
DAV:  10     0.297816997310E+03    0.10782E+01   -0.17735E+00 31196   0.927E-01    0.450E+00
DAV:  11     0.297800960616E+03   -0.16037E-01   -0.14282E-02 24508   0.198E-01    0.453E+00
DAV:  12     0.297700521098E+03   -0.10044E+00   -0.37641E-02 31856   0.130E-01    0.495E+00
DAV:  13     0.297873048953E+03    0.17253E+00   -0.10205E-01 31856   0.225E-01    0.425E+00
DAV:  14     0.297555864708E+03   -0.31718E+00   -0.35237E-01 33836   0.516E-01    0.554E+00
DAV:  15     0.297900707029E+03    0.34484E+00   -0.50392E-01 26488   0.145E+00    0.499E+00
DAV:  16     0.298124519888E+03    0.22381E+00   -0.48219E-01 33880   0.626E-01    0.346E+00
DAV:  17     0.297984642779E+03   -0.13988E+00   -0.18037E-01 31460   0.297E-01    0.440E+00
DAV:  18     0.298099310811E+03    0.11467E+00   -0.58333E+00 34452   0.146E+00    0.348E+00
DAV:  19     0.298218223221E+03    0.11891E+00   -0.33920E-01 26356   0.753E-01    0.213E+00
DAV:  20     0.298214455246E+03   -0.37680E-02   -0.94577E-02 27368   0.434E-01    0.203E+00
DAV:  21     0.298201553837E+03   -0.12901E-01   -0.12214E-02 31372   0.144E-01    0.229E+00
DAV:  22     0.298221139325E+03    0.19585E-01   -0.21878E-02 33880   0.106E-01    0.185E+00
DAV:  23     0.298224241751E+03    0.31024E-02   -0.12756E+00 30448   0.601E-01    0.190E+00
DAV:  24     0.298258381556E+03    0.34140E-01   -0.30122E-01 32472   0.343E-01    0.768E-01
DAV:  25     0.298240684196E+03   -0.17697E-01   -0.16590E-01 31944   0.286E-01    0.142E+00
DAV:  26     0.298246480905E+03    0.57967E-02   -0.74564E-03 23716   0.170E-01    0.128E+00
DAV:  27     0.298260548945E+03    0.14068E-01   -0.68774E-02 34452   0.216E-01    0.558E-01
DAV:  28     0.298260920321E+03    0.37138E-03   -0.10236E-03 24288   0.791E-02    0.508E-01
DAV:  29     0.298262601211E+03    0.16809E-02   -0.40206E-03 27500   0.205E-01    0.308E-01
DAV:  30     0.298259800320E+03   -0.28009E-02   -0.58813E-02 34540   0.180E-01    0.552E-01
DAV:  31     0.298263296120E+03    0.34958E-02   -0.18366E-02 33396   0.938E-02    0.155E-01
DAV:  32     0.298262345799E+03   -0.95032E-03   -0.30317E-03 32824   0.461E-02    0.285E-01
DAV:  33     0.298263415754E+03    0.10700E-02   -0.68478E-03 33088   0.538E-02    0.544E-02
DAV:  34     0.298263337657E+03   -0.78097E-04   -0.35785E-04 28732   0.237E-02    0.705E-02
DAV:  35     0.298263391615E+03    0.53959E-04   -0.90405E-05 26312   0.210E-02    0.551E-02
DAV:  36     0.298263405891E+03    0.14276E-04   -0.96194E-04 31768   0.200E-02    0.495E-02
DAV:  37     0.298263432643E+03    0.26752E-04   -0.20228E-04 31328   0.147E-02    0.871E-03
DAV:  38     0.298263432241E+03   -0.40221E-06   -0.14581E-05 23628   0.756E-03    0.632E-03
DAV:  39     0.298263432574E+03    0.33362E-06   -0.15656E-06 21120   0.227E-03
   5 F= 0.29826343E+03 E0= 0.29826193E+03  d E =0.450347E-02
       N       E                     dE             d eps       ncg     rms          rms(c)
DAV:   1     0.297030436776E+03   -0.12330E+01   -0.45257E+01 15840   0.374E+01    0.126E+01
DAV:   2     0.232981400736E+03   -0.64049E+02   -0.68249E+02 19888   0.240E+01    0.105E+02
DAV:   3     0.296494528517E+03    0.63513E+02   -0.20407E+03 20504   0.296E+01    0.113E+01
DAV:   4     0.288189203050E+03   -0.83053E+01   -0.99955E+01 17292   0.169E+01    0.118E+01
DAV:   5     0.288732382375E+03    0.54318E+00   -0.26348E+00 15752   0.259E+00    0.114E+01
DAV:   6     0.292290927399E+03    0.35585E+01   -0.11978E+00 18260   0.197E+00    0.992E+00
DAV:   7     0.295935562238E+03    0.36446E+01   -0.22467E+00 18700   0.168E+00    0.800E+00
DAV:   8     0.296790138111E+03    0.85458E+00   -0.28924E-01 17556   0.558E-01    0.731E+00
DAV:   9     0.297978447472E+03    0.11883E+01   -0.12849E+00 20284   0.102E+00    0.543E+00
DAV:  10     0.298071396898E+03    0.92949E-01   -0.32404E-02 14124   0.389E-01    0.543E+00
DAV:  11     0.288221770965E+03   -0.98496E+01   -0.13943E+02 20768   0.447E+00    0.457E+01
DAV:  12     0.289427440786E+03    0.12057E+01   -0.13341E+00 14652   0.205E+00    0.441E+01
DAV:  13     0.290605962259E+03    0.11785E+01   -0.79239E-01 20152   0.664E-01    0.409E+01
DAV:  14     0.295482679417E+03    0.48767E+01   -0.93391E+00 19052   0.182E+00    0.280E+01
DAV:  15     0.272337299389E+03   -0.23145E+02   -0.12513E+02 19800   0.527E+00    0.762E+01
DAV:  16     0.270069086456E+03   -0.22682E+01   -0.81252E+00 16192   0.399E+00    0.795E+01
DAV:  17     0.263304455477E+03   -0.67646E+01   -0.10246E+01 20460   0.196E+00    0.884E+01
DAV:  18     0.275437704475E+03    0.12133E+02   -0.12566E+01 18656   0.353E+00    0.747E+01
DAV:  19     0.272044861117E+03   -0.33928E+01   -0.20665E+00 16368   0.160E+00    0.794E+01
DAV:  20     0.269479144072E+03   -0.25657E+01   -0.97228E-01 18744   0.830E-01    0.826E+01
DAV:  21     0.294927455012E+03    0.25448E+02   -0.10163E+02 19668   0.564E+00    0.409E+01
DAV:  22     0.294217435175E+03   -0.71002E+00   -0.32759E+00 18040   0.293E+00    0.396E+01
DAV:  23     0.299481384224E+03    0.52639E+01   -0.10727E+02 19844   0.432E+00    0.369E+00
DAV:  24     0.293835040914E+03   -0.56463E+01   -0.40571E+01 17600   0.588E+00    0.106E+01
DAV:  25     0.293139791371E+03   -0.69525E+00   -0.11652E+00 17336   0.156E+00    0.108E+01
DAV:  26     0.290383004959E+03   -0.27568E+01   -0.78458E-01 18480   0.109E+00    0.114E+01
DAV:  27     0.285179965253E+03   -0.52030E+01   -0.10715E+00 18304   0.130E+00    0.122E+01
DAV:  28     0.279249093578E+03   -0.59309E+01   -0.57465E-01 18084   0.119E+00    0.126E+01
DAV:  29     0.274583474349E+03   -0.46656E+01   -0.31422E-01 15928   0.933E-01    0.134E+01
DAV:  30     0.264547718884E+03   -0.10036E+02   -0.52191E-01 16148   0.159E+00    0.139E+01
DAV:  31     0.254092478791E+03   -0.10455E+02   -0.51987E-01 14168   0.118E+00    0.151E+01
DAV:  32     0.259451428250E+03    0.53589E+01   -0.10109E-01 14344   0.869E-01    0.147E+01
DAV:  33     0.273992585146E+03    0.14541E+02   -0.82485E-01 15532   0.133E+00    0.134E+01
DAV:  34     0.288626890782E+03    0.14634E+02   -0.28880E+00 18172   0.185E+00    0.113E+01
DAV:  35     0.297857900588E+03    0.92310E+01   -0.12215E+01 18480   0.232E+00    0.544E+00
DAV:  36     0.298493460370E+03    0.63556E+00   -0.80018E-01 15532   0.120E+00    0.405E+00
DAV:  37     0.297747410913E+03   -0.74605E+00   -0.16666E+00 20636   0.925E-01    0.656E+00
DAV:  38     0.297174189740E+03   -0.57322E+00   -0.37719E+01 19492   0.242E+00    0.180E+01
DAV:  39     0.281408684565E+03   -0.15766E+02   -0.46695E+02 17600   0.190E+01    0.132E+01
DAV:  40     0.266280188661E+03   -0.15128E+02   -0.44865E+02 21120   0.700E+00    0.823E+01
DAV:  41     0.233671637377E+03   -0.32609E+02   -0.56664E+03 17996   0.795E+01    0.163E+01
DAV:  42     0.291049536885E+03    0.57378E+02   -0.15774E+02 17160   0.189E+01    0.954E+00
DAV:  43     0.268070249044E+03   -0.22979E+02   -0.15016E+01 17556   0.595E+00    0.131E+01
DAV:  44     0.264685125867E+03   -0.33851E+01   -0.59905E-01 16016   0.170E+00    0.138E+01
DAV:  45     0.283141659780E+03    0.18457E+02   -0.18531E+00 16676   0.196E+00    0.121E+01
DAV:  46     0.295459724804E+03    0.12318E+02   -0.65336E+00 18480   0.225E+00    0.894E+00
DAV:  47     0.298825773415E+03    0.33660E+01   -0.96895E+00 19448   0.202E+00    0.241E+00
DAV:  48     0.298901351502E+03    0.75578E-01   -0.28434E+00 19448   0.142E+00    0.271E+00
DAV:  49     0.297337075238E+03   -0.15643E+01   -0.23828E+01 19228   0.299E+00    0.801E+00
DAV:  50     0.298313201542E+03    0.97613E+00   -0.13271E+00 16984   0.115E+00    0.579E+00
DAV:  51     0.297193049234E+03   -0.11202E+01   -0.36076E+01 18656   0.236E+00    0.180E+01
DAV:  52     0.297162819997E+03   -0.30229E-01   -0.10664E+02 19140   0.619E+00    0.826E+00
DAV:  53     0.298938285426E+03    0.17755E+01   -0.17462E+01 20196   0.305E+00    0.317E+00
DAV:  54     0.297664131680E+03   -0.12742E+01   -0.21512E+01 19536   0.307E+00    0.713E+00
DAV:  55     0.298348148867E+03    0.68402E+00   -0.24964E+01 20460   0.233E+00    0.937E+00
DAV:  56     0.298955401780E+03    0.60725E+00   -0.46092E+00 19052   0.168E+00    0.313E+00
DAV:  57     0.293806073386E+03   -0.51493E+01   -0.70376E+01 18480   0.582E+00    0.108E+01
DAV:  58     0.298608484438E+03    0.48024E+01   -0.95570E+00 20460   0.229E+00    0.479E+00
DAV:  59     0.298975869070E+03    0.36738E+00   -0.45593E+00 20900   0.133E+00    0.110E+00
DAV:  60     0.298920013936E+03   -0.55855E-01   -0.11724E+00 18040   0.812E-01    0.176E+00
DAV:  61     0.297410284718E+03   -0.15097E+01   -0.91840E+00 18436   0.186E+00    0.791E+00
DAV:  62     0.297488034256E+03    0.77750E-01   -0.90143E-02 16544   0.523E-01    0.769E+00
DAV:  63     0.297309945794E+03   -0.17809E+00   -0.23616E-02 19712   0.134E-01    0.794E+00
DAV:  64     0.297486240661E+03    0.17629E+00   -0.23367E-02 18700   0.106E-01    0.767E+00
DAV:  65     0.297450754112E+03   -0.35487E-01   -0.14444E-03 16412   0.435E-02    0.773E+00
DAV:  66     0.297762979849E+03    0.31223E+00   -0.87891E-02 18392   0.204E-01    0.719E+00
DAV:  67     0.298801199132E+03    0.10382E+01   -0.26384E+00 18436   0.939E-01    0.336E+00
DAV:  68     0.298835557554E+03    0.34358E-01   -0.21570E-02 16324   0.205E-01    0.314E+00
DAV:  69     0.298824247720E+03   -0.11310E-01   -0.58192E-03 15796   0.142E-01    0.322E+00
DAV:  70     0.298962268973E+03    0.13802E+00   -0.59387E-01 19316   0.397E-01    0.962E-01
DAV:  71     0.298974429820E+03    0.12161E-01   -0.70783E-02 19756   0.187E-01    0.227E-01
DAV:  72     0.298974299943E+03   -0.12988E-03   -0.10146E-02 18084   0.919E-02    0.131E-01
DAV:  73     0.298974164680E+03   -0.13526E-03   -0.12991E-03 18612   0.371E-02    0.129E-01
DAV:  74     0.298962806678E+03   -0.11358E-01   -0.89399E-02 20372   0.162E-01    0.927E-01
DAV:  75     0.298959628489E+03   -0.31782E-02   -0.23422E-03 18172   0.521E-02    0.104E+00
DAV:  76     0.298962326315E+03    0.26978E-02   -0.83644E-04 16940   0.414E-02    0.990E-01
DAV:  77     0.298946106033E+03   -0.16220E-01   -0.27827E-02 19360   0.117E-01    0.151E+00
DAV:  78     0.298940730042E+03   -0.53760E-02   -0.23651E-03 20108   0.525E-02    0.163E+00
DAV:  79     0.298938361757E+03   -0.23683E-02   -0.63544E-04 19096   0.278E-02    0.169E+00
DAV:  80     0.298922067076E+03   -0.16295E-01   -0.14696E-02 19360   0.795E-02    0.202E+00
DAV:  81     0.298941776240E+03    0.19709E-01   -0.17729E-02 20064   0.107E-01    0.163E+00
DAV:  82     0.298926142879E+03   -0.15633E-01   -0.14508E-02 15972   0.174E-01    0.199E+00
DAV:  83     0.298949342390E+03    0.23200E-01   -0.26943E-02 21120   0.100E-01    0.151E+00
DAV:  84     0.298967371951E+03    0.18030E-01   -0.47088E-02 20108   0.124E-01    0.848E-01
DAV:  85     0.298974503914E+03    0.71320E-02   -0.45452E-02 20416   0.125E-01    0.197E-01
DAV:  86     0.298974319937E+03   -0.18398E-03   -0.12613E-03 15048   0.459E-02    0.199E-01
DAV:  87     0.298973040011E+03   -0.12799E-02   -0.28127E-02 20504   0.924E-02    0.364E-01
DAV:  88     0.298974451898E+03    0.14119E-02   -0.53010E-03 19844   0.500E-02    0.159E-01
DAV:  89     0.298974292447E+03   -0.15945E-03   -0.39135E-04 18128   0.235E-02    0.167E-01
DAV:  90     0.298974194827E+03   -0.97621E-04   -0.86171E-05 18436   0.108E-02    0.188E-01
DAV:  91     0.298974300900E+03    0.10607E-03   -0.49667E-05 17072   0.115E-02    0.172E-01
DAV:  92     0.298974663503E+03    0.36260E-03   -0.47789E-03 19624   0.456E-02    0.485E-02
DAV:  93     0.298974680822E+03    0.17319E-04   -0.13259E-04 17072   0.145E-02    0.266E-02
DAV:  94     0.298974678586E+03   -0.22365E-05   -0.42080E-05 17160   0.995E-03    0.340E-02
DAV:  95     0.298974690554E+03    0.11969E-04   -0.28465E-05 13200   0.555E-03    0.180E-02
DAV:  96     0.298974678365E+03   -0.12189E-04   -0.76954E-05 16588   0.798E-03    0.394E-02
DAV:  97     0.298974663704E+03   -0.14661E-04   -0.32053E-05 17732   0.609E-03    0.537E-02
DAV:  98     0.298974698104E+03    0.34400E-04   -0.11652E-04 16808   0.715E-03    0.193E-02
DAV:  99     0.298974701170E+03    0.30658E-05   -0.51490E-06 12452   0.318E-03    0.144E-02
DAV: 100     0.298974703662E+03    0.24927E-05   -0.11692E-05 13376   0.256E-03    0.471E-03
DAV: 101     0.298974703649E+03   -0.12815E-07   -0.73048E-07 12012   0.180E-03
   6 F= 0.29897470E+03 E0= 0.29897139E+03  d E =0.992950E-02
       N       E                     dE             d eps       ncg     rms          rms(c)
DAV:   1     0.295808997954E+03   -0.31657E+01   -0.67912E+01 11088   0.447E+01    0.139E+01
DAV:   2     0.269541519637E+03   -0.26267E+02   -0.44190E+02 17380   0.353E+01    0.186E+01
DAV:   3     0.297173196865E+03    0.27632E+02   -0.40207E+01 16720   0.142E+01    0.849E+00
DAV:   4     0.294324231917E+03   -0.28490E+01   -0.78536E+01 18436   0.546E+00    0.271E+01
DAV:   5     0.297747737626E+03    0.34235E+01   -0.11707E+02 19668   0.754E+00    0.467E+00
DAV:   6     0.297910357625E+03    0.16262E+00   -0.35646E+00 17160   0.275E+00    0.446E+00
DAV:   7     0.298162159757E+03    0.25180E+00   -0.11251E+00 19800   0.986E-01    0.233E+00
DAV:   8     0.298051153923E+03   -0.11101E+00   -0.73399E-01 17556   0.823E-01    0.375E+00
DAV:   9     0.298242166641E+03    0.19101E+00   -0.14786E+00 19932   0.766E-01    0.637E-01
DAV:  10     0.298236547630E+03   -0.56190E-02   -0.10398E-01 15576   0.370E-01    0.100E+00
DAV:  11     0.298196275025E+03   -0.40273E-01   -0.10184E+00 20548   0.634E-01    0.230E+00
DAV:  12     0.298240251389E+03    0.43976E-01   -0.18864E-01 18656   0.303E-01    0.123E+00
DAV:  13     0.298252245647E+03    0.11994E-01   -0.10855E-01 19052   0.229E-01    0.348E-01
DAV:  14     0.298251829432E+03   -0.41622E-03   -0.36023E-02 20328   0.159E-01    0.199E-01
DAV:  15     0.298252334905E+03    0.50547E-03   -0.46842E-03 16588   0.965E-02    0.959E-02
DAV:  16     0.298252277805E+03   -0.57100E-04   -0.79301E-04 18128   0.325E-02    0.115E-01
DAV:  17     0.298252453359E+03    0.17555E-03   -0.87955E-04 20416   0.236E-02    0.402E-02
DAV:  18     0.298252442580E+03   -0.10779E-04   -0.66207E-04 20768   0.169E-02    0.432E-02
DAV:  19     0.298252439447E+03   -0.31323E-05   -0.18702E-05 14124   0.710E-03    0.461E-02
DAV:  20     0.298252466942E+03    0.27495E-04   -0.17292E-04 18480   0.833E-03    0.635E-03
DAV:  21     0.298252466978E+03    0.35772E-07   -0.80237E-06 12584   0.297E-03
   7 F= 0.29825247E+03 E0= 0.29824955E+03  d E =0.874590E-02
       N       E                     dE             d eps       ncg     rms          rms(c)
DAV:   1     0.297972777360E+03   -0.27969E+00   -0.21727E+01 28864   0.261E+01    0.641E+00
DAV:   2     0.278099678601E+03   -0.19873E+02   -0.21612E+02 53372   0.128E+01    0.626E+01
DAV:   3     0.297249930579E+03    0.19150E+02   -0.65281E+02 52712   0.172E+01    0.961E+00
DAV:   4     0.293292782010E+03   -0.39571E+01   -0.35637E+01 48444   0.976E+00    0.102E+01
DAV:   5     0.294013640688E+03    0.72086E+00   -0.12159E+00 40920   0.182E+00    0.986E+00
DAV:   6     0.296462573791E+03    0.24489E+01   -0.22615E+00 53812   0.159E+00    0.736E+00
DAV:   7     0.297419310300E+03    0.95674E+00   -0.83965E-01 52404   0.922E-01    0.579E+00
DAV:   8     0.297480458584E+03    0.61148E-01   -0.54162E-02 46860   0.322E-01    0.589E+00
DAV:   9     0.298563554105E+03    0.10831E+01   -0.54940E+00 53812   0.158E+00    0.966E-01
DAV:  10     0.298557208233E+03   -0.63459E-02   -0.58655E-02 39996   0.466E-01    0.101E+00
DAV:  11     0.298556409167E+03   -0.79907E-03   -0.25019E-02 56232   0.166E-01    0.120E+00
DAV:  12     0.298573797427E+03    0.17388E-01   -0.66643E-02 39908   0.454E-01    0.105E+00
DAV:  13     0.298578033803E+03    0.42364E-02   -0.10637E-01 47916   0.439E-01    0.801E-01
DAV:  14     0.298550274616E+03   -0.27759E-01   -0.68952E-01 42460   0.238E+00    0.219E+00
DAV:  15     0.298521554919E+03   -0.28720E-01   -0.76581E-02 49104   0.655E-01    0.263E+00
DAV:  16     0.298196683962E+03   -0.32487E+00   -0.17116E+00 46024   0.197E+00    0.566E+00
DAV:  17     0.298123098960E+03   -0.73585E-01   -0.54123E-01 38896   0.170E+00    0.635E+00
DAV:  18     0.298266223638E+03    0.14312E+00   -0.20200E-01 41800   0.117E+00    0.545E+00
DAV:  19     0.298158122211E+03   -0.10810E+00   -0.56670E-02 40480   0.659E-01    0.614E+00
DAV:  20     0.298210779747E+03    0.52658E-01   -0.12778E-02 40128   0.328E-01    0.581E+00
DAV:  21     0.298363224937E+03    0.15245E+00   -0.14434E-01 44088   0.114E+00    0.468E+00
DAV:  22     0.298461061917E+03    0.97837E-01   -0.12774E-01 41624   0.108E+00    0.367E+00
DAV:  23     0.298521803670E+03    0.60742E-01   -0.11324E-01 47564   0.545E-01    0.285E+00
DAV:  24     0.298526143326E+03    0.43397E-02   -0.50371E-03 44396   0.172E-01    0.277E+00
DAV:  25     0.298533247946E+03    0.71046E-02   -0.31109E-02 45584   0.432E-01    0.254E+00
DAV:  26     0.298580897968E+03    0.47650E-01   -0.13199E-01 45232   0.821E-01    0.135E+00
DAV:  27     0.298581274590E+03    0.37662E-03   -0.11780E-02 44264   0.322E-01    0.118E+00
DAV:  28     0.298560731938E+03   -0.20543E-01   -0.11186E-01 50028   0.537E-01    0.153E+00
DAV:  29     0.298594334512E+03    0.33603E-01   -0.27715E-01 56100   0.446E-01    0.241E-01
DAV:  30     0.298593431310E+03   -0.90320E-03   -0.13096E-02 49368   0.188E-01    0.265E-01
DAV:  31     0.298594439688E+03    0.10084E-02   -0.36014E-03 52404   0.611E-02    0.145E-01
DAV:  32     0.298594515303E+03    0.75615E-04   -0.47940E-04 40040   0.586E-02    0.139E-01
DAV:  33     0.298594796356E+03    0.28105E-03   -0.15395E-03 49720   0.536E-02    0.383E-02
DAV:  34     0.298594797395E+03    0.10387E-05   -0.12388E-04 47432   0.203E-02    0.255E-02
DAV:  35     0.298594805774E+03    0.83794E-05   -0.96996E-05 47960   0.133E-02    0.117E-02
DAV:  36     0.298594800022E+03   -0.57527E-05   -0.58350E-05 45144   0.897E-03    0.216E-02
DAV:  37     0.298594808639E+03    0.86171E-05   -0.48575E-05 42944   0.514E-03    0.423E-03
DAV:  38     0.298594808238E+03   -0.40058E-06   -0.21094E-06 31724   0.262E-03
   8 F= 0.29859481E+03 E0= 0.29859204E+03  d E =0.830832E-02
       N       E                     dE             d eps       ncg     rms          rms(c)
DAV:   1     0.298374434042E+03   -0.22037E+00   -0.10756E+01 34496   0.140E+01    0.367E+00
DAV:   2     0.298519365539E+03    0.14493E+00   -0.52581E-01 42108   0.280E+00    0.208E+00
DAV:   3     0.295537092583E+03   -0.29823E+01   -0.31324E+01 56188   0.380E+00    0.238E+01
DAV:   4     0.298772596864E+03    0.32355E+01   -0.38826E+01 56892   0.361E+00    0.814E-01
DAV:   5     0.298610567563E+03   -0.16203E+00   -0.13980E+00 46816   0.147E+00    0.844E-01
DAV:   6     0.298593984455E+03   -0.16583E-01   -0.17825E-01 50776   0.459E-01    0.726E-01
DAV:   7     0.298596457535E+03    0.24731E-02   -0.79956E-02 54824   0.217E-01    0.156E-01
DAV:   8     0.298594956992E+03   -0.15005E-02   -0.23711E-02 55572   0.133E-01    0.174E-01
DAV:   9     0.298592179485E+03   -0.27775E-02   -0.20857E-02 49588   0.140E-01    0.450E-01
DAV:  10     0.298593095580E+03    0.91610E-03   -0.36005E-03 46860   0.695E-02    0.378E-01
DAV:  11     0.298594602824E+03    0.15072E-02   -0.71656E-03 52404   0.550E-02    0.129E-01
DAV:  12     0.298594701384E+03    0.98560E-04   -0.26239E-04 44748   0.219E-02    0.102E-01
DAV:  13     0.298594810147E+03    0.10876E-03   -0.90690E-04 56188   0.280E-02    0.196E-02
DAV:  14     0.298594810307E+03    0.15973E-06   -0.11649E-04 46200   0.161E-02    0.963E-03
DAV:  15     0.298594809358E+03   -0.94862E-06   -0.16475E-05 37708   0.675E-03    0.764E-03
DAV:  16     0.298594809242E+03   -0.11628E-06   -0.26252E-05 38280   0.444E-03    0.958E-03
DAV:  17     0.298594808919E+03   -0.32283E-06   -0.53325E-07 32736   0.214E-03
   9 F= 0.29859481E+03 E0= 0.29859209E+03  d E =0.817079E-02
       N       E                     dE             d eps       ncg     rms          rms(c)
DAV:   1     0.298509739082E+03   -0.85070E-01   -0.99209E+00 24640   0.170E+01    0.243E+00
DAV:   2     0.298560388707E+03    0.50650E-01   -0.52816E-01 32956   0.312E+00    0.146E+00
DAV:   3     0.297769308321E+03   -0.79108E+00   -0.84668E+00 47652   0.290E+00    0.670E+00
DAV:   4     0.298615554585E+03    0.84625E+00   -0.54270E+00 46816   0.176E+00    0.531E-01
DAV:   5     0.298612294240E+03   -0.32603E-02   -0.20157E-01 43208   0.639E-01    0.250E-01
DAV:   6     0.298610812285E+03   -0.14820E-02   -0.40193E-02 42988   0.336E-01    0.250E-01
DAV:   7     0.298608739248E+03   -0.20730E-02   -0.56041E-02 47872   0.215E-01    0.484E-01
DAV:   8     0.298611097665E+03    0.23584E-02   -0.50510E-02 44484   0.180E-01    0.182E-01
DAV:   9     0.298611389231E+03    0.29157E-03   -0.45342E-03 43692   0.834E-02    0.759E-02
DAV:  10     0.298611347578E+03   -0.41653E-04   -0.22716E-03 47696   0.349E-02    0.571E-02
DAV:  11     0.298611386696E+03    0.39118E-04   -0.38700E-04 44792   0.178E-02    0.715E-03
DAV:  12     0.298611381550E+03   -0.51463E-05   -0.34313E-05 33704   0.894E-03    0.108E-02
DAV:  13     0.298611380702E+03   -0.84740E-06   -0.35553E-06 29656   0.335E-03
  10 F= 0.29861138E+03 E0= 0.29860868E+03  d E =0.810698E-02
       N       E                     dE             d eps       ncg     rms          rms(c)
DAV:   1     0.298332433962E+03   -0.27895E+00   -0.14536E+01 25388   0.192E+01    0.383E+00
DAV:   2     0.298511465613E+03    0.17903E+00   -0.90004E-01 31064   0.380E+00    0.213E+00
DAV:   3     0.297619690909E+03   -0.89177E+00   -0.10543E+01 47828   0.314E+00    0.123E+01
DAV:   4     0.298613281153E+03    0.99359E+00   -0.15449E+01 48048   0.236E+00    0.111E+00
DAV:   5     0.298611230206E+03   -0.20509E-02   -0.49304E-01 40304   0.828E-01    0.524E-01
DAV:   6     0.298608436650E+03   -0.27936E-02   -0.13797E-01 45628   0.564E-01    0.465E-01
DAV:   7     0.298611609763E+03    0.31731E-02   -0.29686E-02 43428   0.188E-01    0.135E-01
DAV:   8     0.298611392893E+03   -0.21687E-03   -0.54620E-03 45012   0.900E-02    0.501E-02
DAV:   9     0.298611311923E+03   -0.80970E-04   -0.14192E-03 43736   0.508E-02    0.668E-02
DAV:  10     0.298611370100E+03    0.58178E-04   -0.33458E-04 44924   0.180E-02    0.308E-02
DAV:  11     0.298611383138E+03    0.13037E-04   -0.17413E-04 44880   0.108E-02    0.451E-03
DAV:  12     0.298611380205E+03   -0.29331E-05   -0.26618E-05 30932   0.556E-03    0.138E-02
DAV:  13     0.298611382418E+03    0.22130E-05   -0.64997E-06 29964   0.348E-03    0.780E-03
DAV:  14     0.298611383152E+03    0.73443E-06   -0.45400E-06 30404   0.187E-03
  11 F= 0.29861138E+03 E0= 0.29860871E+03  d E =0.801140E-02
       N       E                     dE             d eps       ncg     rms          rms(c)
DAV:   1     0.298482506043E+03   -0.12888E+00   -0.76754E+00 28204   0.129E+01    0.247E+00
DAV:   2     0.298542419437E+03    0.59913E-01   -0.59873E-01 35288   0.273E+00    0.174E+00
DAV:   3     0.297243267519E+03   -0.12992E+01   -0.15327E+01 46288   0.306E+00    0.799E+00
DAV:   4     0.298603025353E+03    0.13598E+01   -0.62860E+00 46332   0.252E+00    0.151E+00
DAV:   5     0.298610557979E+03    0.75326E-02   -0.74658E-01 49016   0.963E-01    0.636E-01
DAV:   6     0.298610372677E+03   -0.18530E-03   -0.18029E-01 43560   0.449E-01    0.351E-01
DAV:   7     0.298611253714E+03    0.88104E-03   -0.40970E-02 46596   0.303E-01    0.181E-01
DAV:   8     0.298611424779E+03    0.17106E-03   -0.39038E-03 37004   0.133E-01    0.758E-02
DAV:   9     0.298611361311E+03   -0.63468E-04   -0.22846E-03 47344   0.495E-02    0.596E-02
DAV:  10     0.298611396834E+03    0.35524E-04   -0.46608E-04 45584   0.187E-02    0.526E-03
DAV:  11     0.298611384353E+03   -0.12481E-04   -0.12201E-04 44660   0.106E-02    0.273E-02
DAV:  12     0.298611394295E+03    0.99416E-05   -0.74598E-05 37268   0.713E-03    0.281E-03
DAV:  13     0.298611393708E+03   -0.58663E-06   -0.30169E-06 26708   0.300E-03
  12 F= 0.29861139E+03 E0= 0.29860873E+03  d E =0.799311E-02
       N       E                     dE             d eps       ncg     rms          rms(c)
DAV:   1     0.298331616822E+03   -0.27978E+00   -0.13648E+01 26136   0.186E+01    0.382E+00
DAV:   2     0.298511921406E+03    0.18030E+00   -0.87479E-01 28776   0.377E+00    0.212E+00
DAV:   3     0.298356829548E+03   -0.15509E+00   -0.28983E+00 43604   0.265E+00    0.523E+00
DAV:   4     0.298552979471E+03    0.19615E+00   -0.51626E+00 47872   0.154E+00    0.194E+00
DAV:   5     0.298611268168E+03    0.58289E-01   -0.46028E-01 44088   0.621E-01    0.531E-01
DAV:   6     0.298604448245E+03   -0.68199E-02   -0.20016E-01 47740   0.583E-01    0.753E-01
DAV:   7     0.298611780585E+03    0.73323E-02   -0.48504E-02 42724   0.221E-01    0.268E-01
DAV:   8     0.298611343710E+03   -0.43688E-03   -0.19246E-02 47916   0.143E-01    0.969E-02
DAV:   9     0.298611362242E+03    0.18532E-04   -0.21784E-03 40128   0.645E-02    0.512E-02
DAV:  10     0.298611391540E+03    0.29297E-04   -0.29506E-04 46992   0.196E-02    0.153E-02
DAV:  11     0.298611391994E+03    0.45436E-06   -0.11061E-04 43912   0.934E-03    0.111E-02
DAV:  12     0.298611392654E+03    0.65942E-06   -0.79951E-06 28248   0.407E-03
  13 F= 0.29861139E+03 E0= 0.29860871E+03  d E =0.803750E-02
       N       E                     dE             d eps       ncg     rms          rms(c)
DAV:   1     0.298551509581E+03   -0.59882E-01   -0.59970E+00 17600   0.157E+01    0.155E+00
DAV:   2     0.298489183233E+03   -0.62326E-01   -0.11906E+00 26400   0.280E+00    0.295E+00
DAV:   3     0.298423666253E+03   -0.65517E-01   -0.39253E+00 33748   0.109E+00    0.391E+00
DAV:   4     0.298160171412E+03   -0.26349E+00   -0.51462E+00 34012   0.206E+00    0.509E+00
DAV:   5     0.298571347026E+03    0.41118E+00   -0.19403E+00 33748   0.109E+00    0.155E+00
DAV:   6     0.298578046080E+03    0.66991E-02   -0.73578E-01 34716   0.819E-01    0.115E+00
DAV:   7     0.298591298777E+03    0.13253E-01   -0.13180E-01 30272   0.558E-01    0.371E-01
DAV:   8     0.298591093915E+03   -0.20486E-03   -0.35420E-02 34760   0.264E-01    0.209E-01
DAV:   9     0.298591330026E+03    0.23611E-03   -0.34534E-03 27896   0.148E-01    0.143E-01
DAV:  10     0.298591462655E+03    0.13263E-03   -0.21451E-03 31636   0.982E-02    0.717E-02
DAV:  11     0.298591485941E+03    0.23286E-04   -0.92395E-04 30272   0.594E-02    0.464E-02
DAV:  12     0.298591494918E+03    0.89764E-05   -0.97069E-05 30404   0.348E-02    0.347E-02
DAV:  13     0.298591504016E+03    0.90980E-05   -0.77333E-05 30580   0.238E-02    0.102E-02
DAV:  14     0.298591503656E+03   -0.35948E-06   -0.21020E-05 22924   0.781E-03    0.729E-03
DAV:  15     0.298591503738E+03    0.82213E-07   -0.36269E-06 21780   0.796E-03
  14 F= 0.29859150E+03 E0= 0.29858887E+03  d E =0.789151E-02
       N       E                     dE             d eps       ncg     rms          rms(c)
DAV:   1     0.298610040707E+03    0.18537E-01   -0.40395E+00 18832   0.163E+01    0.388E-01
DAV:   2     0.298334548452E+03   -0.27549E+00   -0.29279E+00 26400   0.188E+00    0.576E+00
DAV:   3     0.298582763984E+03    0.24822E+00   -0.35734E+00 28864   0.934E-01    0.119E+00
DAV:   4     0.298580683830E+03   -0.20802E-02   -0.33848E-01 33880   0.446E-01    0.117E+00
DAV:   5     0.298589743149E+03    0.90593E-02   -0.85564E-02 30668   0.357E-01    0.546E-01
DAV:   6     0.298590487985E+03    0.74484E-03   -0.28992E-02 31944   0.307E-01    0.310E-01
DAV:   7     0.298589992781E+03   -0.49520E-03   -0.28065E-02 33924   0.202E-01    0.399E-01
DAV:   8     0.298590444541E+03    0.45176E-03   -0.12594E-02 34540   0.137E-01    0.338E-01
DAV:   9     0.298590910131E+03    0.46559E-03   -0.38588E-03 30668   0.119E-01    0.237E-01
DAV:  10     0.298591437785E+03    0.52765E-03   -0.30163E-03 33308   0.703E-02    0.854E-02
DAV:  11     0.298591497067E+03    0.59282E-04   -0.11541E-03 34672   0.427E-02    0.267E-02
DAV:  12     0.298591496383E+03   -0.68352E-06   -0.65317E-05 29172   0.310E-02    0.222E-02
DAV:  13     0.298591500635E+03    0.42518E-05   -0.27853E-05 22528   0.100E-02    0.128E-02
DAV:  14     0.298591502497E+03    0.18623E-05   -0.55324E-06 20504   0.882E-03    0.716E-03
DAV:  15     0.298591502984E+03    0.48622E-06   -0.36252E-06 22000   0.656E-03
  15 F= 0.29859150E+03 E0= 0.29858888E+03  d E =0.787722E-02
       N       E                     dE             d eps       ncg     rms          rms(c)
DAV:   1     0.298601007329E+03    0.95048E-02   -0.25354E+00 11660   0.132E+01    0.273E-01
DAV:   2     0.298333384499E+03   -0.26762E+00   -0.27059E+00 15928   0.161E+00    0.614E+00
DAV:   3     0.298584984222E+03    0.25160E+00   -0.31464E+00 17248   0.828E-01    0.102E+00
DAV:   4     0.298587406876E+03    0.24227E-02   -0.19505E-01 19800   0.363E-01    0.810E-01
DAV:   5     0.298590064068E+03    0.26572E-02   -0.30056E-02 16148   0.244E-01    0.428E-01
DAV:   6     0.298590483317E+03    0.41925E-03   -0.33466E-02 20812   0.184E-01    0.268E-01
DAV:   7     0.298589053248E+03   -0.14301E-02   -0.10467E-02 20064   0.127E-01    0.533E-01
DAV:   8     0.298590152361E+03    0.10991E-02   -0.15206E-02 21076   0.898E-02    0.333E-01
DAV:   9     0.298591022425E+03    0.87006E-03   -0.62489E-03 20196   0.791E-02    0.132E-01
DAV:  10     0.298591163822E+03    0.14140E-03   -0.78012E-04 18876   0.579E-02    0.723E-02
DAV:  11     0.298591206248E+03    0.42426E-04   -0.73113E-04 20548   0.355E-02    0.143E-02
DAV:  12     0.298591207532E+03    0.12839E-05   -0.44765E-05 17820   0.208E-02    0.119E-02
DAV:  13     0.298591210463E+03    0.29305E-05   -0.14119E-05 14872   0.123E-02    0.414E-03
DAV:  14     0.298591211313E+03    0.85072E-06   -0.58813E-06 12848   0.673E-03
  16 F= 0.29859121E+03 E0= 0.29858858E+03  d E =0.789347E-02
       N       E                     dE             d eps       ncg     rms          rms(c)
DAV:   1     0.298613639004E+03    0.22429E-01   -0.50694E+00 12100   0.188E+01    0.514E-01
DAV:   2     0.297504671954E+03   -0.11090E+01   -0.11369E+01 16060   0.259E+00    0.140E+01
DAV:   3     0.298506216268E+03    0.10015E+01   -0.16164E+01 15092   0.188E+00    0.320E+00
DAV:   4     0.298573931479E+03    0.67715E-01   -0.15665E+00 20768   0.832E-01    0.174E+00
DAV:   5     0.298576732360E+03    0.28009E-02   -0.14948E-01 15928   0.461E-01    0.117E+00
DAV:   6     0.298582299676E+03    0.55673E-02   -0.15900E-01 20944   0.294E-01    0.876E-01
DAV:   7     0.298589463171E+03    0.71635E-02   -0.53773E-02 20504   0.242E-01    0.518E-01
DAV:   8     0.298589330929E+03   -0.13224E-03   -0.28282E-02 19756   0.237E-01    0.440E-01
DAV:   9     0.298590223751E+03    0.89282E-03   -0.52305E-03 18128   0.141E-01    0.302E-01
DAV:  10     0.298591102865E+03    0.87911E-03   -0.45337E-03 20416   0.102E-01    0.114E-01
DAV:  11     0.298591211723E+03    0.10886E-03   -0.13995E-03 19360   0.777E-02    0.253E-02
DAV:  12     0.298591207137E+03   -0.45852E-05   -0.18287E-04 19228   0.397E-02    0.202E-02
DAV:  13     0.298591207442E+03    0.30431E-06   -0.29215E-05 18084   0.221E-02    0.213E-02
DAV:  14     0.298591205829E+03   -0.16129E-05   -0.16096E-05 14564   0.111E-02    0.276E-02
DAV:  15     0.298591206309E+03    0.48028E-06   -0.33782E-06 13112   0.894E-03
  17 F= 0.29859121E+03 E0= 0.29858855E+03  d E =0.795706E-02
       N       E                     dE             d eps       ncg     rms          rms(c)
DAV:   1     0.172943670795E+04    0.14308E+04   -0.13000E+00 19624   0.946E+00    0.280E-01
DAV:   2     0.172924381246E+04   -0.19290E+00   -0.19837E+00 26400   0.149E+00    0.485E+00
DAV:   3     0.172941914871E+04    0.17534E+00   -0.21382E+00 27940   0.719E-01    0.129E+00
DAV:   4     0.172942558079E+04    0.64321E-02   -0.26336E-01 32604   0.366E-01    0.767E-01
DAV:   5     0.172941910361E+04   -0.64772E-02   -0.18706E-01 33044   0.459E-01    0.117E+00
DAV:   6     0.172942833718E+04    0.92336E-02   -0.11675E-01 33748   0.345E-01    0.408E-01
DAV:   7     0.172942018158E+04   -0.81556E-02   -0.11974E-01 33968   0.308E-01    0.979E-01
DAV:   8     0.172942963848E+04    0.94569E-02   -0.94498E-02 34144   0.213E-01    0.200E-01
DAV:   9     0.172942862581E+04   -0.10127E-02   -0.23730E-02 34408   0.957E-02    0.346E-01
DAV:  10     0.172942907872E+04    0.45291E-03   -0.16638E-02 34936   0.102E-01    0.291E-01
DAV:  11     0.172942903150E+04   -0.47215E-04   -0.53509E-03 34936   0.417E-02    0.299E-01
DAV:  12     0.172942961180E+04    0.58030E-03   -0.71507E-03 35068   0.494E-02    0.109E-01
DAV:  13     0.172942962382E+04    0.12019E-04   -0.14819E-03 34100   0.213E-02    0.101E-01
DAV:  14     0.172942968962E+04    0.65806E-04   -0.13053E-03 34628   0.196E-02    0.622E-02
DAV:  15     0.172942969998E+04    0.10353E-04   -0.52842E-04 34188   0.118E-02    0.512E-02
DAV:  16     0.172942972051E+04    0.20538E-04   -0.28352E-04 31856   0.942E-03    0.154E-02
DAV:  17     0.172942972150E+04    0.98237E-06   -0.51684E-05 23100   0.573E-03    0.998E-03
DAV:  18     0.172942972240E+04    0.89991E-06   -0.46298E-06 21340   0.299E-03
  18 F= 0.17294297E+04 E0= 0.17294271E+04  d E =0.795173E-02
       N       E                     dE             d eps       ncg     rms          rms(c)
DAV:   1     0.172942894862E+04   -0.77287E-03   -0.19930E-01 17600   0.108E+00    0.203E-01
DAV:   2     0.172942700502E+04   -0.19436E-02   -0.52120E-02 29920   0.106E+00    0.439E-01
DAV:   3     0.172942818305E+04    0.11780E-02   -0.54174E-02 30536   0.745E-01    0.443E-01
DAV:   4     0.172942685831E+04   -0.13247E-02   -0.81984E-02 33176   0.144E-01    0.591E-01
DAV:   5     0.172941675995E+04   -0.10098E-01   -0.14929E-01 34848   0.232E-01    0.123E+00
DAV:   6     0.172942824803E+04    0.11488E-01   -0.14129E-01 34672   0.197E-01    0.405E-01
DAV:   7     0.172942977852E+04    0.15305E-02   -0.19811E-02 33044   0.961E-02    0.750E-02
DAV:   8     0.172942807289E+04   -0.17056E-02   -0.21209E-02 33880   0.770E-02    0.434E-01
DAV:   9     0.172942960017E+04    0.15273E-02   -0.17774E-02 34760   0.734E-02    0.128E-01
DAV:  10     0.172942964804E+04    0.47870E-04   -0.17965E-03 33572   0.292E-02    0.877E-02
DAV:  11     0.172942963874E+04   -0.92975E-05   -0.20491E-03 34232   0.262E-02    0.986E-02
DAV:  12     0.172942969651E+04    0.57769E-04   -0.10377E-03 34628   0.162E-02    0.529E-02
DAV:  13     0.172942970479E+04    0.82781E-05   -0.34525E-04 33792   0.130E-02    0.440E-02
DAV:  14     0.172942971995E+04    0.15160E-04   -0.21256E-04 30404   0.759E-03    0.192E-02
DAV:  15     0.172942971969E+04   -0.25777E-06   -0.74856E-05 23804   0.522E-03    0.188E-02
DAV:  16     0.172942972209E+04    0.23979E-05   -0.34858E-05 22088   0.311E-03    0.881E-03
DAV:  17     0.172942972239E+04    0.30357E-06   -0.11723E-05 21912   0.277E-03    0.755E-03
DAV:  18     0.172942972275E+04    0.36415E-06   -0.65657E-06 21956   0.164E-03
  19 F= 0.17294297E+04 E0= 0.17294271E+04  d E =0.792851E-02
       N       E                     dE             d eps       ncg     rms          rms(c)
DAV:   1     0.172942944146E+04   -0.28093E-03   -0.12389E-01 10560   0.867E-01    0.123E-01
DAV:   2     0.172942719555E+04   -0.22459E-02   -0.35296E-02 17864   0.400E-01    0.469E-01
DAV:   3     0.172941511560E+04   -0.12080E-01   -0.23500E-01 20856   0.266E-01    0.148E+00
DAV:   4     0.172942964639E+04    0.14531E-01   -0.16396E-01 20548   0.222E-01    0.144E-01
DAV:   5     0.172942659081E+04   -0.30556E-02   -0.43249E-02 20900   0.119E-01    0.584E-01
DAV:   6     0.172942835504E+04    0.17642E-02   -0.44164E-02 20680   0.142E-01    0.407E-01
DAV:   7     0.172942961007E+04    0.12550E-02   -0.14115E-02 20680   0.720E-02    0.148E-01
DAV:   8     0.172942936657E+04   -0.24350E-03   -0.69094E-03 20768   0.481E-02    0.204E-01
DAV:   9     0.172942957030E+04    0.20374E-03   -0.77291E-03 21076   0.522E-02    0.179E-01
DAV:  10     0.172942953735E+04   -0.32957E-04   -0.23487E-03 20900   0.268E-02    0.186E-01
DAV:  11     0.172942974951E+04    0.21216E-03   -0.26525E-03 20900   0.333E-02    0.101E-01
DAV:  12     0.172942978969E+04    0.40179E-04   -0.65130E-04 20504   0.147E-02    0.731E-02
DAV:  13     0.172942983509E+04    0.45408E-04   -0.61628E-04 20064   0.200E-02    0.352E-02
DAV:  14     0.172942984331E+04    0.82180E-05   -0.12664E-04 17644   0.113E-02    0.204E-02
DAV:  15     0.172942984809E+04    0.47746E-05   -0.26503E-05 15004   0.866E-03    0.767E-03
DAV:  16     0.172942984882E+04    0.73466E-06   -0.12456E-05 13904   0.591E-03    0.388E-03
DAV:  17     0.172942984889E+04    0.66351E-07   -0.28045E-06 13728   0.442E-03
  20 F= 0.17294298E+04 E0= 0.17294272E+04  d E =0.791151E-02
       N       E                     dE             d eps       ncg     rms          rms(c)
DAV:   1     0.172942945172E+04   -0.39710E-03   -0.25279E-01 10560   0.122E+00    0.186E-01
DAV:   2     0.172942541925E+04   -0.40325E-02   -0.80092E-02 17864   0.652E-01    0.513E-01
DAV:   3     0.172942914143E+04    0.37222E-02   -0.63216E-02 19316   0.440E-01    0.316E-01
DAV:   4     0.172942788811E+04   -0.12533E-02   -0.47763E-02 18568   0.114E-01    0.520E-01
DAV:   5     0.172942713071E+04   -0.75740E-03   -0.50107E-02 20372   0.144E-01    0.531E-01
DAV:   6     0.172942972624E+04    0.25955E-02   -0.31418E-02 20988   0.899E-02    0.138E-01
DAV:   7     0.172942926323E+04   -0.46301E-03   -0.10913E-02 20988   0.618E-02    0.248E-01
DAV:   8     0.172942871746E+04   -0.54577E-03   -0.20136E-02 20020   0.730E-02    0.355E-01
DAV:   9     0.172942975528E+04    0.10378E-02   -0.12223E-02 20636   0.574E-02    0.133E-01
DAV:  10     0.172942970598E+04   -0.49298E-04   -0.37865E-03 20856   0.338E-02    0.126E-01
DAV:  11     0.172942982361E+04    0.11762E-03   -0.14469E-03 20944   0.190E-02    0.597E-02
DAV:  12     0.172942978254E+04   -0.41072E-04   -0.91427E-04 21076   0.158E-02    0.867E-02
DAV:  13     0.172942984822E+04    0.65685E-04   -0.72278E-04 20416   0.130E-02    0.146E-02
DAV:  14     0.172942984871E+04    0.49320E-06   -0.40722E-05 13904   0.563E-03    0.584E-03
DAV:  15     0.172942984865E+04   -0.63623E-07   -0.74696E-06 13112   0.262E-03
  21 F= 0.17294298E+04 E0= 0.17294272E+04  d E =0.792322E-02
       N       E                     dE             d eps       ncg     rms          rms(c)
DAV:   1     0.172942892779E+04   -0.92092E-03   -0.40639E-01 17600   0.147E+00    0.111E-01
DAV:   2     0.172942750024E+04   -0.14276E-02   -0.16092E-02 28336   0.164E-01    0.394E-01
DAV:   3     0.172942857732E+04    0.10771E-02   -0.20057E-02 34496   0.736E-02    0.143E-01
DAV:   4     0.172942523416E+04   -0.33432E-02   -0.38631E-02 35112   0.117E-01    0.662E-01
DAV:   5     0.172942777190E+04    0.25377E-02   -0.49537E-02 34672   0.154E-01    0.329E-01
DAV:   6     0.172942855395E+04    0.78205E-03   -0.17104E-02 34936   0.875E-02    0.163E-01
DAV:   7     0.172942817367E+04   -0.38029E-03   -0.11965E-02 34452   0.109E-01    0.259E-01
DAV:   8     0.172942879058E+04    0.61692E-03   -0.73813E-03 34540   0.787E-02    0.664E-02
DAV:   9     0.172942843961E+04   -0.35098E-03   -0.53642E-03 34452   0.535E-02    0.206E-01
DAV:  10     0.172942881649E+04    0.37688E-03   -0.39026E-03 34672   0.435E-02    0.498E-02
DAV:  11     0.172942879926E+04   -0.17226E-04   -0.57629E-04 34056   0.171E-02    0.619E-02
DAV:  12     0.172942883880E+04    0.39540E-04   -0.27579E-04 31416   0.140E-02    0.147E-02
DAV:  13     0.172942883652E+04   -0.22767E-05   -0.88470E-05 23672   0.615E-03    0.237E-02
DAV:  14     0.172942884905E+04    0.12530E-04   -0.80313E-05 28380   0.942E-03    0.133E-02
DAV:  15     0.172942884607E+04   -0.29894E-05   -0.93783E-05 26224   0.735E-03    0.319E-02
DAV:  16     0.172942885950E+04    0.13434E-04   -0.80489E-05 26356   0.808E-03    0.660E-03
DAV:  17     0.172942886375E+04    0.42477E-05   -0.18103E-05 27060   0.785E-03    0.620E-03
DAV:  18     0.172942886601E+04    0.22604E-05   -0.66024E-06 22000   0.528E-03    0.170E-03
DAV:  19     0.172942886691E+04    0.90701E-06   -0.38471E-06 22176   0.391E-03
  22 F= 0.17294289E+04 E0= 0.17294262E+04  d E =0.791459E-02
       N       E                     dE             d eps       ncg     rms          rms(c)
DAV:   1     0.172942937022E+04    0.50421E-03   -0.10867E+00 17600   0.223E+00    0.177E-01
DAV:   2     0.172942678382E+04   -0.25864E-02   -0.25641E-02 32472   0.206E-01    0.546E-01
DAV:   3     0.172942865582E+04    0.18720E-02   -0.40723E-02 33572   0.996E-02    0.236E-01
DAV:   4     0.172942326150E+04   -0.53943E-02   -0.66341E-02 34848   0.185E-01    0.791E-01
DAV:   5     0.172942468734E+04    0.14258E-02   -0.10804E-01 34936   0.248E-01    0.664E-01
DAV:   6     0.172942813503E+04    0.34477E-02   -0.59163E-02 34804   0.134E-01    0.287E-01
DAV:   7     0.172942671675E+04   -0.14183E-02   -0.35295E-02 33968   0.197E-01    0.476E-01
DAV:   8     0.172942875960E+04    0.20428E-02   -0.21621E-02 34452   0.122E-01    0.148E-01
DAV:   9     0.172942824038E+04   -0.51922E-03   -0.95787E-03 35024   0.680E-02    0.262E-01
DAV:  10     0.172942884413E+04    0.60375E-03   -0.65538E-03 34628   0.484E-02    0.689E-02
DAV:  11     0.172942873439E+04   -0.10974E-03   -0.17031E-03 34584   0.258E-02    0.124E-01
DAV:  12     0.172942885697E+04    0.12259E-03   -0.12451E-03 34892   0.206E-02    0.399E-02
DAV:  13     0.172942884753E+04   -0.94445E-05   -0.23262E-04 30800   0.932E-03    0.496E-02
DAV:  14     0.172942886627E+04    0.18741E-04   -0.19667E-04 27412   0.665E-03    0.145E-02
DAV:  15     0.172942886624E+04   -0.25757E-07   -0.33748E-05 22132   0.376E-03    0.135E-02
DAV:  16     0.172942886753E+04    0.12886E-05   -0.17277E-05 21956   0.232E-03    0.546E-03
DAV:  17     0.172942886770E+04    0.16931E-06   -0.39705E-06 21956   0.155E-03
  23 F= 0.17294289E+04 E0= 0.17294262E+04  d E =0.791954E-02
       N       E                     dE             d eps       ncg     rms          rms(c)
DAV:   1     0.172942891775E+04    0.50216E-04   -0.67664E-01 10560   0.178E+00    0.123E-01
DAV:   2     0.172942855097E+04   -0.36678E-03   -0.39790E-03 12980   0.142E-01    0.177E-01
DAV:   3     0.172942785876E+04   -0.69221E-03   -0.18889E-02 20460   0.717E-02    0.356E-01
DAV:   4     0.172942589716E+04   -0.19616E-02   -0.37924E-02 20856   0.132E-01    0.527E-01
DAV:   5     0.172942824530E+04    0.23481E-02   -0.38671E-02 20724   0.120E-01    0.239E-01
DAV:   6     0.172942771620E+04   -0.52910E-03   -0.27617E-02 21032   0.940E-02    0.345E-01
DAV:   7     0.172942867644E+04    0.96024E-03   -0.11016E-02 21032   0.836E-02    0.130E-01
DAV:   8     0.172942871578E+04    0.39335E-04   -0.44982E-03 20900   0.383E-02    0.100E-01
DAV:   9     0.172942875745E+04    0.41675E-04   -0.16723E-03 20812   0.313E-02    0.748E-02
DAV:  10     0.172942879786E+04    0.40405E-04   -0.60731E-04 20768   0.133E-02    0.267E-02
DAV:  11     0.172942878973E+04   -0.81278E-05   -0.19066E-04 18392   0.872E-03    0.396E-02
DAV:  12     0.172942880326E+04    0.13533E-04   -0.15805E-04 16060   0.614E-03    0.124E-02
DAV:  13     0.172942880392E+04    0.66118E-06   -0.16674E-05 12848   0.414E-03    0.732E-03
DAV:  14     0.172942880415E+04    0.22983E-06   -0.98317E-06 13200   0.254E-03
  24 F= 0.17294288E+04 E0= 0.17294262E+04  d E =0.789901E-02
       N       E                     dE             d eps       ncg     rms          rms(c)
DAV:   1     0.172942936106E+04    0.55714E-03   -0.13666E+00 10560   0.250E+00    0.159E-01
DAV:   2     0.172942505835E+04   -0.43027E-02   -0.43734E-02 19756   0.219E-01    0.727E-01
DAV:   3     0.172942878333E+04    0.37250E-02   -0.52232E-02 19976   0.108E-01    0.175E-01
DAV:   4     0.172942493446E+04   -0.38489E-02   -0.50032E-02 20944   0.127E-01    0.688E-01
DAV:   5     0.172942551652E+04    0.58206E-03   -0.75842E-02 20988   0.176E-01    0.585E-01
DAV:   6     0.172942795673E+04    0.24402E-02   -0.58460E-02 21032   0.131E-01    0.309E-01
DAV:   7     0.172942664312E+04   -0.13136E-02   -0.40794E-02 21032   0.127E-01    0.484E-01
DAV:   8     0.172942874058E+04    0.20975E-02   -0.23506E-02 21032   0.995E-02    0.126E-01
DAV:   9     0.172942819348E+04   -0.54710E-03   -0.92491E-03 20812   0.525E-02    0.263E-01
DAV:  10     0.172942879692E+04    0.60343E-03   -0.61656E-03 21120   0.476E-02    0.436E-02
DAV:  11     0.172942872189E+04   -0.75022E-04   -0.13428E-03 20900   0.213E-02    0.941E-02
DAV:  12     0.172942879997E+04    0.78073E-04   -0.83415E-04 20460   0.174E-02    0.276E-02
DAV:  13     0.172942880282E+04    0.28569E-05   -0.60525E-05 14212   0.723E-03    0.144E-02
DAV:  14     0.172942880392E+04    0.11002E-05   -0.23532E-05 13376   0.376E-03    0.797E-03
DAV:  15     0.172942880423E+04    0.30626E-06   -0.96918E-06 13156   0.209E-03
  25 F= 0.17294288E+04 E0= 0.17294262E+04  d E =0.789140E-02
