<?xml version="1.0" encoding="ISO-8859-1"?>
<modeling>
 <generator>
  <i name="program" type="string">vasp </i>
  <i name="version" type="string">6.5.0  </i>
  <i name="subversion" type="string">16Dec24 (build Apr 17 2025 17:55:45) complex                          parallel </i>
  <i name="platform" type="string">LinuxIFC </i>
  <i name="date" type="string">2025 06 06 </i>
  <i name="time" type="string">20:14:57 </i>
 </generator>
 <incar>
  <i type="int" name="ISTART">     0</i>
  <i type="string" name="PREC">N</i>
  <i type="string" name="ALGO">N</i>
  <i type="int" name="ICHARG">     2</i>
  <i type="int" name="NELM">   500</i>
  <i type="int" name="IBRION">     6</i>
  <i type="int" name="NFREE">     2</i>
  <i name="EDIFF">      0.00000100</i>
  <i name="EDIFFG">     -0.00100000</i>
  <i type="int" name="NSW">     1</i>
  <i type="int" name="ISIF">     3</i>
  <i name="SYMPREC">      0.00000100</i>
  <i name="ENCUT">    600.00000000</i>
  <i name="POTIM">      0.01500000</i>
  <v name="VCA">      1.00000000      0.96000000      0.04000000</v>
  <i type="logical" name="LREAL"> F  </i>
  <i type="int" name="ISMEAR">     1</i>
  <i name="SIGMA">      0.20000000</i>
  <i type="int" name="LMAXMIX">     4</i>
 </incar>
 <primitive_cell>
  <structure name="primitive_cell" >
   <crystal>
    <varray name="basis" >
     <v>       2.79121392       0.00000000       0.00000000 </v>
     <v>       0.00000000       2.79121392       0.00000000 </v>
     <v>       0.00000000       0.00000000       4.01124609 </v>
    </varray>
    <i name="volume">     31.25111755 </i>
    <varray name="rec_basis" >
     <v>       0.35826706       0.00000000       0.00000000 </v>
     <v>       0.00000000       0.35826706       0.00000000 </v>
     <v>       0.00000000       0.00000000       0.24929909 </v>
    </varray>
   </crystal>
   <varray name="positions" >
    <v>       0.00000000       0.00000000       0.00000000 </v>
    <v>       0.50000000       0.50000000       0.50000000 </v>
    <v>       0.50000000       0.50000000       0.50000000 </v>
   </varray>
  </structure>
  <varray name="primitive_index" >
   <v type="int" >        1 </v>
   <v type="int" >        9 </v>
   <v type="int" >       17 </v>
  </varray>
 </primitive_cell>
 <kpoints>
  <generation param="Gamma">
   <v type="int" name="divisions">       9        9        6 </v>
   <v name="usershift">      0.00000000       0.00000000       0.00000000 </v>
   <v name="genvec1">      0.11111111       0.00000000       0.00000000 </v>
   <v name="genvec2">      0.00000000       0.11111111       0.00000000 </v>
   <v name="genvec3">      0.00000000       0.00000000       0.16666667 </v>
   <v name="shift">      0.00000000       0.00000000       0.00000000 </v>
  </generation>
  <varray name="kpointlist" >
   <v>       0.00000000       0.00000000       0.00000000 </v>
   <v>       0.11111111       0.00000000       0.00000000 </v>
   <v>       0.22222222       0.00000000       0.00000000 </v>
   <v>       0.33333333       0.00000000       0.00000000 </v>
   <v>       0.44444444       0.00000000       0.00000000 </v>
   <v>       0.11111111       0.11111111       0.00000000 </v>
   <v>       0.22222222       0.11111111       0.00000000 </v>
   <v>       0.33333333       0.11111111       0.00000000 </v>
   <v>       0.44444444       0.11111111       0.00000000 </v>
   <v>       0.22222222       0.22222222       0.00000000 </v>
   <v>       0.33333333       0.22222222       0.00000000 </v>
   <v>       0.44444444       0.22222222       0.00000000 </v>
   <v>       0.33333333       0.33333333       0.00000000 </v>
   <v>       0.44444444       0.33333333       0.00000000 </v>
   <v>       0.44444444       0.44444444       0.00000000 </v>
   <v>       0.00000000       0.00000000       0.16666667 </v>
   <v>       0.11111111       0.00000000       0.16666667 </v>
   <v>       0.22222222       0.00000000       0.16666667 </v>
   <v>       0.33333333       0.00000000       0.16666667 </v>
   <v>       0.44444444       0.00000000       0.16666667 </v>
   <v>       0.11111111       0.11111111       0.16666667 </v>
   <v>       0.22222222       0.11111111       0.16666667 </v>
   <v>       0.33333333       0.11111111       0.16666667 </v>
   <v>       0.44444444       0.11111111       0.16666667 </v>
   <v>       0.22222222       0.22222222       0.16666667 </v>
   <v>       0.33333333       0.22222222       0.16666667 </v>
   <v>       0.44444444       0.22222222       0.16666667 </v>
   <v>       0.33333333       0.33333333       0.16666667 </v>
   <v>       0.44444444       0.33333333       0.16666667 </v>
   <v>       0.44444444       0.44444444       0.16666667 </v>
   <v>       0.00000000       0.00000000       0.33333333 </v>
   <v>       0.11111111       0.00000000       0.33333333 </v>
   <v>       0.22222222       0.00000000       0.33333333 </v>
   <v>       0.33333333       0.00000000       0.33333333 </v>
   <v>       0.44444444       0.00000000       0.33333333 </v>
   <v>       0.11111111       0.11111111       0.33333333 </v>
   <v>       0.22222222       0.11111111       0.33333333 </v>
   <v>       0.33333333       0.11111111       0.33333333 </v>
   <v>       0.44444444       0.11111111       0.33333333 </v>
   <v>       0.22222222       0.22222222       0.33333333 </v>
   <v>       0.33333333       0.22222222       0.33333333 </v>
   <v>       0.44444444       0.22222222       0.33333333 </v>
   <v>       0.33333333       0.33333333       0.33333333 </v>
   <v>       0.44444444       0.33333333       0.33333333 </v>
   <v>       0.44444444       0.44444444       0.33333333 </v>
   <v>       0.00000000       0.00000000       0.50000000 </v>
   <v>       0.11111111       0.00000000       0.50000000 </v>
   <v>       0.22222222       0.00000000       0.50000000 </v>
   <v>       0.33333333       0.00000000       0.50000000 </v>
   <v>       0.44444444       0.00000000       0.50000000 </v>
   <v>       0.11111111       0.11111111       0.50000000 </v>
   <v>       0.22222222       0.11111111       0.50000000 </v>
   <v>       0.33333333       0.11111111       0.50000000 </v>
   <v>       0.44444444       0.11111111       0.50000000 </v>
   <v>       0.22222222       0.22222222       0.50000000 </v>
   <v>       0.33333333       0.22222222       0.50000000 </v>
   <v>       0.44444444       0.22222222       0.50000000 </v>
   <v>       0.33333333       0.33333333       0.50000000 </v>
   <v>       0.44444444       0.33333333       0.50000000 </v>
   <v>       0.44444444       0.44444444       0.50000000 </v>
  </varray>
  <varray name="weights" >
   <v>       0.00205761 </v>
   <v>       0.00823045 </v>
   <v>       0.00823045 </v>
   <v>       0.00823045 </v>
   <v>       0.00823045 </v>
   <v>       0.00823045 </v>
   <v>       0.01646091 </v>
   <v>       0.01646091 </v>
   <v>       0.01646091 </v>
   <v>       0.00823045 </v>
   <v>       0.01646091 </v>
   <v>       0.01646091 </v>
   <v>       0.00823045 </v>
   <v>       0.01646091 </v>
   <v>       0.00823045 </v>
   <v>       0.00411523 </v>
   <v>       0.01646091 </v>
   <v>       0.01646091 </v>
   <v>       0.01646091 </v>
   <v>       0.01646091 </v>
   <v>       0.01646091 </v>
   <v>       0.03292181 </v>
   <v>       0.03292181 </v>
   <v>       0.03292181 </v>
   <v>       0.01646091 </v>
   <v>       0.03292181 </v>
   <v>       0.03292181 </v>
   <v>       0.01646091 </v>
   <v>       0.03292181 </v>
   <v>       0.01646091 </v>
   <v>       0.00411523 </v>
   <v>       0.01646091 </v>
   <v>       0.01646091 </v>
   <v>       0.01646091 </v>
   <v>       0.01646091 </v>
   <v>       0.01646091 </v>
   <v>       0.03292181 </v>
   <v>       0.03292181 </v>
   <v>       0.03292181 </v>
   <v>       0.01646091 </v>
   <v>       0.03292181 </v>
   <v>       0.03292181 </v>
   <v>       0.01646091 </v>
   <v>       0.03292181 </v>
   <v>       0.01646091 </v>
   <v>       0.00205761 </v>
   <v>       0.00823045 </v>
   <v>       0.00823045 </v>
   <v>       0.00823045 </v>
   <v>       0.00823045 </v>
   <v>       0.00823045 </v>
   <v>       0.01646091 </v>
   <v>       0.01646091 </v>
   <v>       0.01646091 </v>
   <v>       0.00823045 </v>
   <v>       0.01646091 </v>
   <v>       0.01646091 </v>
   <v>       0.00823045 </v>
   <v>       0.01646091 </v>
   <v>       0.00823045 </v>
  </varray>
 </kpoints>
 <parameters>
  <separator name="general" >
   <i type="string" name="SYSTEM">unknown system</i>
   <i type="logical" name="LCOMPAT"> F  </i>
  </separator>
  <separator name="electronic" >
   <i type="string" name="PREC">n</i>
   <i name="ENMAX">    600.00000000</i>
   <i name="ENAUG">    490.69000000</i>
   <i name="EDIFF">      0.00000100</i>
   <i type="int" name="IALGO">    38</i>
   <i type="int" name="IWAVPR">    11</i>
   <i type="int" name="NBANDS">    88</i>
   <i type="int" name="NBANDSLOW">    -1</i>
   <i type="int" name="NBANDSHIGH">    -1</i>
   <i name="NELECT">    123.20000000</i>
   <i type="int" name="TURBO">     0</i>
   <i type="int" name="IRESTART">     0</i>
   <i type="int" name="NREBOOT">     0</i>
   <i type="int" name="NMIN">     0</i>
   <i name="EREF">      0.00000000</i>
   <separator name="electronic smearing" >
    <i type="int" name="ISMEAR">     1</i>
    <i name="SIGMA">      0.20000000</i>
    <i name="KSPACING">      0.50000000</i>
    <i type="logical" name="KGAMMA"> T  </i>
    <i type="logical" name="KBLOWUP"> T  </i>
   </separator>
   <separator name="electronic projectors" >
    <i type="logical" name="LREAL"> F  </i>
    <v name="ROPT">      0.00000000      0.00000000      0.00000000</v>
    <i type="int" name="LMAXPAW">  -100</i>
    <i type="int" name="LMAXMIX">     4</i>
    <i type="logical" name="NLSPLINE"> F  </i>
   </separator>
   <separator name="electronic startup" >
    <i type="int" name="ISTART">     0</i>
    <i type="int" name="ICHARG">     2</i>
    <i type="int" name="INIWAV">     1</i>
   </separator>
   <separator name="electronic spin" >
    <i type="int" name="ISPIN">     1</i>
    <i type="logical" name="LNONCOLLINEAR"> F  </i>
    <v name="MAGMOM">      1.00000000      1.00000000      1.00000000      1.00000000      1.00000000      1.00000000      1.00000000      1.00000000      1.00000000      1.00000000      1.00000000      1.00000000      1.00000000      1.00000000      1.00000000      1.00000000      1.00000000      1.00000000      1.00000000      1.00000000
      1.00000000      1.00000000      1.00000000      1.00000000</v>
    <i name="NUPDOWN">     -1.00000000</i>
    <i type="logical" name="LSORBIT"> F  </i>
    <v name="SAXIS">      0.00000000      0.00000000      1.00000000</v>
    <i type="logical" name="LSPIRAL"> F  </i>
    <v name="QSPIRAL">      0.00000000      0.00000000      0.00000000</v>
    <i type="logical" name="LZEROZ"> F  </i>
   </separator>
   <separator name="electronic exchange-correlation" >
    <i type="logical" name="LASPH"> F  </i>
   </separator>
   <separator name="electronic convergence" >
    <i type="int" name="NELM">   500</i>
    <i type="int" name="NELMDL">    -5</i>
    <i type="int" name="NELMIN">     2</i>
    <i name="ENINI">    600.00000000</i>
    <separator name="electronic convergence detail" >
     <i type="logical" name="LDIAG"> T  </i>
     <i type="logical" name="LSUBROT"> F  </i>
     <i name="WEIMIN">      0.00100000</i>
     <i name="EBREAK">      0.00000000</i>
     <i name="DEPER">      0.30000000</i>
     <i type="int" name="NRMM">     4</i>
     <i name="TIME">      0.40000000</i>
    </separator>
   </separator>
   <separator name="electronic mixer" >
    <i name="AMIX">      0.40000000</i>
    <i name="BMIX">      1.00000000</i>
    <i name="AMIN">      0.10000000</i>
    <i name="AMIX_MAG">      1.60000000</i>
    <i name="BMIX_MAG">      1.00000000</i>
    <separator name="electronic mixer details" >
     <i type="int" name="IMIX">     4</i>
     <i type="logical" name="MIXFIRST"> F  </i>
     <i type="int" name="MAXMIX">   -45</i>
     <i name="WC">    100.00000000</i>
     <i type="int" name="INIMIX">     1</i>
     <i type="int" name="MIXPRE">     1</i>
     <i type="int" name="MREMOVE">     5</i>
    </separator>
   </separator>
   <separator name="electronic dipolcorrection" >
    <i type="logical" name="LDIPOL"> F  </i>
    <i type="logical" name="LMONO"> F  </i>
    <i type="int" name="IDIPOL">     0</i>
    <i name="EPSILON">      1.00000000</i>
    <v name="DIPOL">   -100.00000000   -100.00000000   -100.00000000</v>
    <i name="EFIELD">      0.00000000</i>
    <i type="logical" name="LVACPOTAV"> F  </i>
   </separator>
  </separator>
  <separator name="grids" >
   <i type="int" name="NGX">    36</i>
   <i type="int" name="NGY">    36</i>
   <i type="int" name="NGZ">    48</i>
   <i type="int" name="NGXF">    72</i>
   <i type="int" name="NGYF">    72</i>
   <i type="int" name="NGZF">    96</i>
   <i type="logical" name="ADDGRID"> F  </i>
  </separator>
  <separator name="ionic" >
   <i type="int" name="NSW">   325</i>
   <i type="int" name="IBRION">     6</i>
   <i type="int" name="MDALGO">     0</i>
   <i type="int" name="ISIF">     3</i>
   <i name="PSTRESS">      0.00000000</i>
   <i name="EDIFFG">     -0.00100000</i>
   <i type="int" name="NFREE">     2</i>
   <i name="POTIM">      0.01500000</i>
   <i name="SMASS">     -3.00000000</i>
   <i name="SCALEE">      1.00000000</i>
  </separator>
  <separator name="ionic md" >
   <i name="TEBEG">      0.00010000</i>
   <i name="TEEND">      0.00010000</i>
   <i type="int" name="NBLOCK">     1</i>
   <i type="int" name="KBLOCK">   325</i>
   <i type="int" name="NPACO">   256</i>
   <i name="APACO">     10.00000000</i>
  </separator>
  <separator name="symmetry" >
   <i type="int" name="ISYM">     2</i>
   <i name="SYMPREC">      0.00000100</i>
  </separator>
  <separator name="dos" >
   <i type="int" name="LORBIT">     0</i>
   <v name="RWIGS">     -1.00000000     -1.00000000     -1.00000000</v>
   <i type="int" name="NEDOS">   301</i>
   <i name="EMIN">     10.00000000</i>
   <i name="EMAX">    -10.00000000</i>
   <i name="EFERMI">      0.00000000</i>
  </separator>
  <separator name="writing" >
   <i type="int" name="NWRITE">     2</i>
   <i type="logical" name="LWAVE"> T  </i>
   <i type="logical" name="LDOWNSAMPLE"> F  </i>
   <i type="logical" name="LCHARG"> T  </i>
   <i type="logical" name="LPARD"> F  </i>
   <i type="logical" name="LVTOT"> F  </i>
   <i type="logical" name="LVHAR"> F  </i>
   <i type="logical" name="LELF"> F  </i>
   <i type="logical" name="LOPTICS"> F  </i>
   <v name="STM">      0.00000000      0.00000000      0.00000000      0.00000000      0.00000000      0.00000000      0.00000000</v>
  </separator>
  <separator name="performance" >
   <i type="int" name="NPAR">    44</i>
   <i type="int" name="NSIM">     4</i>
   <i type="int" name="NBLK">    -1</i>
   <i type="logical" name="LPLANE"> T  </i>
   <i type="logical" name="LSCALAPACK"> T  </i>
   <i type="logical" name="LSCAAWARE"> F  </i>
   <i type="logical" name="LSCALU"> F  </i>
   <i type="logical" name="LASYNC"> F  </i>
   <i type="logical" name="LORBITALREAL"> F  </i>
  </separator>
  <separator name="miscellaneous" >
   <i type="int" name="IDIOT">     3</i>
   <i type="int" name="PHON_NSTRUCT">    -1</i>
   <i type="logical" name="LMUSIC"> F  </i>
   <v name="POMASS">     47.88000000     26.98100000     69.72300000</v>
   <v name="DARWINR">      0.00000000      0.00000000      0.00000000</v>
   <v name="DARWINV">      1.00000000      1.00000000      1.00000000</v>
   <i type="logical" name="LCORR"> T  </i>
  </separator>
  <i type="logical" name="GGA_COMPAT"> T  </i>
  <i type="logical" name="LBERRY"> F  </i>
  <i type="int" name="ICORELEVEL">     0</i>
  <i type="logical" name="LDAU"> F  </i>
  <i type="int" name="I_CONSTRAINED_M">     0</i>
  <separator name="electronic exchange-correlation" >
   <i type="string" name="GGA    ">PE</i>
   <i type="string" name="XC_C">1</i>
   <i type="int" name="VOSKOWN">     0</i>
   <i type="logical" name="LHFCALC"> F  </i>
   <i type="string" name="PRECFOCK"></i>
   <i type="logical" name="LSYMGRAD"> F  </i>
   <i type="logical" name="LHFONE"> F  </i>
   <i type="logical" name="LRHFCALC"> F  </i>
   <i type="logical" name="LTHOMAS"> F  </i>
   <i type="logical" name="LMODELHF"> F  </i>
   <i type="logical" name="LFOCKACE"> F  </i>
   <i name="ENCUT4O">     -1.00000000</i>
   <i type="int" name="EXXOEP">     0</i>
   <i type="int" name="FOURORBIT">     0</i>
   <i name="AEXX">      0.00000000</i>
   <i name="HFALPHA">      0.00000000</i>
   <i name="MCALPHA">      0.00000000</i>
   <i name="ALDAX">      1.00000000</i>
   <i name="AGGAX">      1.00000000</i>
   <i name="AMGGAX">      1.00000000</i>
   <i name="ALDAC">      1.00000000</i>
   <i name="AGGAC">      1.00000000</i>
   <i name="AMGGAC">      1.00000000</i>
   <i type="int" name="NKREDX">     1</i>
   <i type="int" name="NKREDY">     1</i>
   <i type="int" name="NKREDZ">     1</i>
   <i type="logical" name="SHIFTRED"> F  </i>
   <i type="logical" name="ODDONLY"> F  </i>
   <i type="logical" name="EVENONLY"> F  </i>
   <i type="int" name="LMAXFOCK">     0</i>
   <i type="int" name="NMAXFOCKAE">     0</i>
   <i type="logical" name="LFOCKAEDFT"> F  </i>
   <i name="HFSCREEN">      0.00000000</i>
   <i name="HFSCREENC">      0.00000000</i>
   <i type="int" name="NBANDSGWLOW">     0</i>
  </separator>
  <separator name="vdW DFT" >
   <i type="logical" name="LUSE_VDW"> F  </i>
   <i type="int" name="IVDW_NL">    -1</i>
   <i type="logical" name="LSPIN_VDW"> F  </i>
   <i name="ZAB_VDW">     -0.84910000</i>
   <i name="GAMMA_VDW">      1.39626340</i>
   <i name="ALPHA_VDW">      0.00000000</i>
   <i name="PARAM1">      0.12340000</i>
   <i name="PARAM2">      1.00000000</i>
   <i name="BPARAM">      6.30000000</i>
   <i name="CPARAM">      0.00930000</i>
  </separator>
  <separator name="model GW" >
   <i type="int" name="MODEL_GW">     0</i>
   <i name="MODEL_EPS0">      6.25022351</i>
   <i name="MODEL_ALPHA">      1.00000000</i>
  </separator>
  <separator name="linear response parameters" >
   <i type="logical" name="LEPSILON"> F  </i>
   <i type="logical" name="LRPA"> F  </i>
   <i type="logical" name="LNABLA"> F  </i>
   <i type="logical" name="LVEL"> F  </i>
   <i name="CSHIFT">      0.10000000</i>
   <i name="OMEGAMAX">     -1.00000000</i>
   <i name="DEG_THRESHOLD">      0.00200000</i>
   <i name="RTIME">     -0.10000000</i>
   <i name="WPLASMAI">      0.00000000</i>
   <v name="DFIELD">      0.00000000      0.00000000      0.00000000</v>
   <v name="WPLASMA">      0.00000000      0.00000000      0.00000000      0.00000000      0.00000000      0.00000000      0.00000000      0.00000000      0.00000000</v>
  </separator>
  <separator name="orbital magnetization" >
   <i type="logical" name="NUCIND"> F  </i>
   <v name="MAGPOS">      0.00000000      0.00000000      0.00000000</v>
   <i type="logical" name="LNICSALL"> T  </i>
   <i type="logical" name="ORBITALMAG"> F  </i>
   <i type="logical" name="LMAGBLOCH"> F  </i>
   <i type="logical" name="LCHIMAG"> F  </i>
   <i type="logical" name="LGAUGE"> T  </i>
   <i type="int" name="MAGATOM">     0</i>
   <v name="MAGDIPOL">      0.00000000      0.00000000      0.00000000</v>
   <v name="AVECCONST">      0.00000000      0.00000000      0.00000000</v>
  </separator>
  <separator name="response functions" >
   <i type="logical" name="LALL_IN_ONE"> F  </i>
   <i type="int" name="IALL_IN_ONE">    -1</i>
   <i type="int" name="NBANDS_WAVE">    -1</i>
   <i type="logical" name="LFINITE_TEMPERATURE"> F  </i>
   <i type="logical" name="LADDER"> F  </i>
   <i type="logical" name="LRPAFORCE"> F  </i>
   <i type="logical" name="LFXC"> F  </i>
   <i type="logical" name="LHARTREE"> T  </i>
   <i type="int" name="IBSE">     2</i>
   <v type="int" name="KPOINT">    -1     0     0     0</v>
   <i type="logical" name="LTCTC"> F  </i>
   <i type="logical" name="LTCTE"> F  </i>
   <i type="logical" name="LTETE"> F  </i>
   <i type="logical" name="LTRIPLET"> F  </i>
   <i type="logical" name="LFXCEPS"> F  </i>
   <i type="logical" name="LFXHEG"> F  </i>
   <i type="int" name="NATURALO">     2</i>
   <i type="logical" name="LHOLEGF"> F  </i>
   <i type="logical" name="L2ORDER"> F  </i>
   <i type="logical" name="LDMP1"> F  </i>
   <i type="logical" name="LMP2LT"> F  </i>
   <i type="logical" name="LSMP2LT"> F  </i>
   <i type="logical" name="LGWLF"> F  </i>
   <i name="ENCUTGW">     -1.60000002</i>
   <i name="ENCUTGWSOFT">     -1.60000002</i>
   <i name="ENCUTLF">     -1.00000000</i>
   <i type="logical" name="ESF_SPLINES"> F  </i>
   <i name="ESF_CONV">      0.01000000</i>
   <i type="int" name="ESF_NINTER">    15</i>
   <i type="int" name="LMAXMP2">    -1</i>
   <i name="SCISSOR">      0.00000000</i>
   <i type="int" name="NOMEGA">     0</i>
   <i type="int" name="NOMEGAR">     0</i>
   <i type="int" name="NBANDSGW">    -1</i>
   <i type="int" name="NBANDSO">    -1</i>
   <i type="int" name="NBANDSV">    -1</i>
   <i type="int" name="NELMGW">     1</i>
   <i type="int" name="NELMHF">     1</i>
   <i type="int" name="DIM">     3</i>
   <i type="int" name="IESPILON">     4</i>
   <i type="int" name="ANTIRES">     0</i>
   <i name="OMEGAMAX">    -30.00000000</i>
   <i name="OMEGAMIN">    -30.00000000</i>
   <i name="OMEGATL">   -200.00000000</i>
   <i type="int" name="OMEGAGRID">     0</i>
   <i name="CSHIFT">     -0.10000000</i>
   <i type="logical" name="LSELFENERGY"> F  </i>
   <i type="logical" name="LSPECTRAL"> F  </i>
   <i type="logical" name="LSPECTRALGW"> F  </i>
   <i type="logical" name="LSINGLES"> F  </i>
   <i type="logical" name="LFERMIGW"> F  </i>
   <i type="logical" name="ODDONLYGW"> F  </i>
   <i type="logical" name="EVENONLYGW"> F  </i>
   <i type="int" name="NKREDLFX">     1</i>
   <i type="int" name="NKREDLFY">     1</i>
   <i type="int" name="NKREDLFZ">     1</i>
   <i type="int" name="MAXMEM">  2800</i>
   <i type="int" name="TELESCOPE">     0</i>
   <i type="int" name="NTAUPAR">    -1</i>
   <i type="int" name="NOMEGAPAR">    -1</i>
   <i name="DAMP_NEWTON">      0.80000001</i>
   <i name="LAMBDA">      1.00000000</i>
  </separator>
  <separator name="External order field" >
   <i name="OFIELD_KAPPA">      0.00000000</i>
   <v name="OFIELD_K">      0.00000000      0.00000000      0.00000000</v>
   <i name="OFIELD_Q6_NEAR">      0.00000000</i>
   <i name="OFIELD_Q6_FAR">      0.00000000</i>
   <i name="OFIELD_A">      0.00000000</i>
  </separator>
  <separator name="optional k-points parameters" >
   <i type="int" name="KPOINTS_OPT_MODE">     1</i>
   <i type="logical" name="LKPOINTS_OPT"> F  </i>
  </separator>
 </parameters>
 <atominfo>
  <atoms>      24 </atoms>
  <types>       3 </types>
  <array name="atoms" >
   <dimension dim="1">ion</dimension>
   <field type="string">element</field>
   <field type="int">atomtype</field>
   <set>
    <rc><c>Ti</c><c>   1</c></rc>
    <rc><c>Ti</c><c>   1</c></rc>
    <rc><c>Ti</c><c>   1</c></rc>
    <rc><c>Ti</c><c>   1</c></rc>
    <rc><c>Ti</c><c>   1</c></rc>
    <rc><c>Ti</c><c>   1</c></rc>
    <rc><c>Ti</c><c>   1</c></rc>
    <rc><c>Ti</c><c>   1</c></rc>
    <rc><c>Al</c><c>   2</c></rc>
    <rc><c>Al</c><c>   2</c></rc>
    <rc><c>Al</c><c>   2</c></rc>
    <rc><c>Al</c><c>   2</c></rc>
    <rc><c>Al</c><c>   2</c></rc>
    <rc><c>Al</c><c>   2</c></rc>
    <rc><c>Al</c><c>   2</c></rc>
    <rc><c>Al</c><c>   2</c></rc>
    <rc><c>Ga</c><c>   3</c></rc>
    <rc><c>Ga</c><c>   3</c></rc>
    <rc><c>Ga</c><c>   3</c></rc>
    <rc><c>Ga</c><c>   3</c></rc>
    <rc><c>Ga</c><c>   3</c></rc>
    <rc><c>Ga</c><c>   3</c></rc>
    <rc><c>Ga</c><c>   3</c></rc>
    <rc><c>Ga</c><c>   3</c></rc>
   </set>
  </array>
  <array name="atomtypes" >
   <dimension dim="1">type</dimension>
   <field type="int">atomspertype</field>
   <field type="string">element</field>
   <field>mass</field>
   <field>valence</field>
   <field type="string">pseudopotential</field>
   <set>
    <rc><c>   8</c><c>Ti</c><c>     47.88000000</c><c>     12.00000000</c><c>  PAW_PBE Ti_sv 26Sep2005               </c></rc>
    <rc><c>   8</c><c>Al</c><c>     26.98100000</c><c>      3.00000000</c><c>  PAW_PBE Al 04Jan2001                  </c></rc>
    <rc><c>   8</c><c>Ga</c><c>     69.72300000</c><c>     13.00000000</c><c>  PAW_PBE Ga_d 06Jul2010                </c></rc>
   </set>
  </array>
 </atominfo>
 <structure name="initialpos" >
  <crystal>
   <varray name="basis" >
    <v>       5.58242785       0.00000000       0.00000000 </v>
    <v>       0.00000000       5.58242785       0.00000000 </v>
    <v>       0.00000000       0.00000000       8.02249218 </v>
   </varray>
   <i name="volume">    250.00894043 </i>
   <varray name="rec_basis" >
    <v>       0.17913353       0.00000000       0.00000000 </v>
    <v>       0.00000000       0.17913353       0.00000000 </v>
    <v>       0.00000000       0.00000000       0.12464955 </v>
   </varray>
  </crystal>
  <varray name="positions" >
   <v>       0.00000000       0.00000000       0.00000000 </v>
   <v>       0.00000000       0.00000000       0.50000000 </v>
   <v>       0.00000000       0.50000000       0.00000000 </v>
   <v>       0.00000000       0.50000000       0.50000000 </v>
   <v>       0.50000000       0.00000000       0.00000000 </v>
   <v>       0.50000000       0.00000000       0.50000000 </v>
   <v>       0.50000000       0.50000000       0.00000000 </v>
   <v>       0.50000000       0.50000000       0.50000000 </v>
   <v>       0.25000000       0.25000000       0.25000000 </v>
   <v>       0.25000000       0.25000000       0.75000000 </v>
   <v>       0.25000000       0.75000000       0.25000000 </v>
   <v>       0.25000000       0.75000000       0.75000000 </v>
   <v>       0.75000000       0.25000000       0.25000000 </v>
   <v>       0.75000000       0.25000000       0.75000000 </v>
   <v>       0.75000000       0.75000000       0.25000000 </v>
   <v>       0.75000000       0.75000000       0.75000000 </v>
   <v>       0.25000000       0.25000000       0.25000000 </v>
   <v>       0.25000000       0.25000000       0.75000000 </v>
   <v>       0.25000000       0.75000000       0.25000000 </v>
   <v>       0.25000000       0.75000000       0.75000000 </v>
   <v>       0.75000000       0.25000000       0.25000000 </v>
   <v>       0.75000000       0.25000000       0.75000000 </v>
   <v>       0.75000000       0.75000000       0.25000000 </v>
   <v>       0.75000000       0.75000000       0.75000000 </v>
  </varray>
 </structure>
 <calculation>
  <scstep>
   <time name="dav">    5.56    5.56</time>
   <time name="total">    5.58    5.58</time>
   <energy>
    <i name="alphaZ">    338.76235126 </i>
    <i name="ewald">  -9154.55795151 </i>
    <i name="hartreedc">  -3998.96973190 </i>
    <i name="XCdc">    298.00942267 </i>
    <i name="pawpsdc">  11137.94856465 </i>
    <i name="pawaedc"> -10842.59558870 </i>
    <i name="eentropy">     -0.00161481 </i>
    <i name="bandstr">   -115.58489809 </i>
    <i name="atom">  13803.49291671 </i>
    <i name="e_fr_energy">   1466.50347028 </i>
    <i name="e_wo_entrp">   1466.50508509 </i>
    <i name="e_0_energy">   1466.50400855 </i>
   </energy>
  </scstep>
  <scstep>
   <time name="dav">    5.54    5.54</time>
   <time name="total">    5.54    5.54</time>
   <energy>
    <i name="e_fr_energy">    353.21072967 </i>
    <i name="e_wo_entrp">    353.20956379 </i>
    <i name="e_0_energy">    353.21034104 </i>
   </energy>
  </scstep>
  <scstep>
   <time name="dav">   12.72   12.72</time>
   <time name="total">   12.72   12.72</time>
   <energy>
    <i name="e_fr_energy">    247.15144857 </i>
    <i name="e_wo_entrp">    247.14724075 </i>
    <i name="e_0_energy">    247.15004596 </i>
   </energy>
  </scstep>
  <scstep>
   <time name="dav">    7.28    7.28</time>
   <time name="total">    7.28    7.28</time>
   <energy>
    <i name="e_fr_energy">    241.93501956 </i>
    <i name="e_wo_entrp">    241.93563224 </i>
    <i name="e_0_energy">    241.93522379 </i>
   </energy>
  </scstep>
  <scstep>
   <time name="dav">   10.64   10.64</time>
   <time name="total">   10.73   10.73</time>
   <energy>
    <i name="e_fr_energy">    241.60904291 </i>
    <i name="e_wo_entrp">    241.60978469 </i>
    <i name="e_0_energy">    241.60929017 </i>
   </energy>
  </scstep>
  <scstep>
   <time name="dav">   12.76   12.76</time>
   <time name="total">   12.86   12.86</time>
   <energy>
    <i name="e_fr_energy">    203.18070913 </i>
    <i name="e_wo_entrp">    203.19970612 </i>
    <i name="e_0_energy">    203.18704146 </i>
   </energy>
  </scstep>
  <scstep>
   <time name="dav">   10.60   10.60</time>
   <time name="total">   10.70   10.70</time>
   <energy>
    <i name="e_fr_energy">    293.45066537 </i>
    <i name="e_wo_entrp">    293.44798477 </i>
    <i name="e_0_energy">    293.44977184 </i>
   </energy>
  </scstep>
  <scstep>
   <time name="dav">    9.72    9.72</time>
   <time name="total">    9.82    9.83</time>
   <energy>
    <i name="e_fr_energy">    284.51608584 </i>
    <i name="e_wo_entrp">    284.51644141 </i>
    <i name="e_0_energy">    284.51620436 </i>
   </energy>
  </scstep>
  <scstep>
   <time name="dav">    8.88    8.88</time>
   <time name="total">    8.98    8.98</time>
   <energy>
    <i name="e_fr_energy">    287.37768892 </i>
    <i name="e_wo_entrp">    287.37756928 </i>
    <i name="e_0_energy">    287.37764904 </i>
   </energy>
  </scstep>
  <scstep>
   <time name="dav">   11.55   11.55</time>
   <time name="total">   11.66   11.66</time>
   <energy>
    <i name="e_fr_energy">    294.87009116 </i>
    <i name="e_wo_entrp">    294.86630150 </i>
    <i name="e_0_energy">    294.86882794 </i>
   </energy>
  </scstep>
  <scstep>
   <time name="dav">   11.33   11.33</time>
   <time name="total">   11.43   11.43</time>
   <energy>
    <i name="e_fr_energy">    297.62256553 </i>
    <i name="e_wo_entrp">    297.62192815 </i>
    <i name="e_0_energy">    297.62235307 </i>
   </energy>
  </scstep>
  <scstep>
   <time name="dav">   10.20   10.20</time>
   <time name="total">   10.30   10.30</time>
   <energy>
    <i name="e_fr_energy">    295.94028568 </i>
    <i name="e_wo_entrp">    295.94165405 </i>
    <i name="e_0_energy">    295.94074181 </i>
   </energy>
  </scstep>
  <scstep>
   <time name="dav">    9.74    9.74</time>
   <time name="total">    9.84    9.84</time>
   <energy>
    <i name="e_fr_energy">    298.04532606 </i>
    <i name="e_wo_entrp">    298.04761263 </i>
    <i name="e_0_energy">    298.04608825 </i>
   </energy>
  </scstep>
  <scstep>
   <time name="dav">   11.60   11.60</time>
   <time name="total">   11.70   11.70</time>
   <energy>
    <i name="e_fr_energy">    298.42764571 </i>
    <i name="e_wo_entrp">    298.43168622 </i>
    <i name="e_0_energy">    298.42899255 </i>
   </energy>
  </scstep>
  <scstep>
   <time name="dav">   12.50   12.50</time>
   <time name="total">   12.60   12.61</time>
   <energy>
    <i name="e_fr_energy">    295.93733403 </i>
    <i name="e_wo_entrp">    296.04974401 </i>
    <i name="e_0_energy">    295.97480403 </i>
   </energy>
  </scstep>
  <scstep>
   <time name="dav">   10.19   10.19</time>
   <time name="total">   10.29   10.29</time>
   <energy>
    <i name="e_fr_energy">    295.69680630 </i>
    <i name="e_wo_entrp">    295.84596460 </i>
    <i name="e_0_energy">    295.74652574 </i>
   </energy>
  </scstep>
  <scstep>
   <time name="dav">   10.00   10.00</time>
   <time name="total">   10.11   10.11</time>
   <energy>
    <i name="e_fr_energy">    295.74818755 </i>
    <i name="e_wo_entrp">    295.89046451 </i>
    <i name="e_0_energy">    295.79561320 </i>
   </energy>
  </scstep>
  <scstep>
   <time name="dav">   11.57   11.57</time>
   <time name="total">   11.67   11.67</time>
   <energy>
    <i name="e_fr_energy">    294.65515187 </i>
    <i name="e_wo_entrp">    294.87253262 </i>
    <i name="e_0_energy">    294.72761212 </i>
   </energy>
  </scstep>
  <scstep>
   <time name="dav">   12.31   12.31</time>
   <time name="total">   12.41   12.41</time>
   <energy>
    <i name="e_fr_energy">    292.35675506 </i>
    <i name="e_wo_entrp">    292.70821071 </i>
    <i name="e_0_energy">    292.47390694 </i>
   </energy>
  </scstep>
  <scstep>
   <time name="dav">    8.34    8.35</time>
   <time name="total">    8.45    8.45</time>
   <energy>
    <i name="e_fr_energy">    292.38523029 </i>
    <i name="e_wo_entrp">    292.74196951 </i>
    <i name="e_0_energy">    292.50414336 </i>
   </energy>
  </scstep>
  <scstep>
   <time name="dav">   10.00   10.00</time>
   <time name="total">   10.10   10.10</time>
   <energy>
    <i name="e_fr_energy">    292.62378189 </i>
    <i name="e_wo_entrp">    292.97722169 </i>
    <i name="e_0_energy">    292.74159516 </i>
   </energy>
  </scstep>
  <scstep>
   <time name="dav">    8.90    8.91</time>
   <time name="total">    9.00    9.01</time>
   <energy>
    <i name="e_fr_energy">    288.23835678 </i>
    <i name="e_wo_entrp">    288.55564366 </i>
    <i name="e_0_energy">    288.34411907 </i>
   </energy>
  </scstep>
  <scstep>
   <time name="dav">    9.94    9.95</time>
   <time name="total">   10.05   10.05</time>
   <energy>
    <i name="e_fr_energy">    287.62427617 </i>
    <i name="e_wo_entrp">    287.96718201 </i>
    <i name="e_0_energy">    287.73857812 </i>
   </energy>
  </scstep>
  <scstep>
   <time name="dav">   11.95   11.95</time>
   <time name="total">   12.05   12.05</time>
   <energy>
    <i name="e_fr_energy">    293.62782108 </i>
    <i name="e_wo_entrp">    293.95953529 </i>
    <i name="e_0_energy">    293.73839249 </i>
   </energy>
  </scstep>
  <scstep>
   <time name="dav">   12.80   12.80</time>
   <time name="total">   12.91   12.91</time>
   <energy>
    <i name="e_fr_energy">    296.42041541 </i>
    <i name="e_wo_entrp">    296.51785524 </i>
    <i name="e_0_energy">    296.45289535 </i>
   </energy>
  </scstep>
  <scstep>
   <time name="dav">    8.75    8.75</time>
   <time name="total">    8.85    8.86</time>
   <energy>
    <i name="e_fr_energy">    293.40950971 </i>
    <i name="e_wo_entrp">    293.72351918 </i>
    <i name="e_0_energy">    293.51417953 </i>
   </energy>
  </scstep>
  <scstep>
   <time name="dav">   11.71   11.71</time>
   <time name="total">   11.81   11.81</time>
   <energy>
    <i name="e_fr_energy">    293.56570017 </i>
    <i name="e_wo_entrp">    293.88749993 </i>
    <i name="e_0_energy">    293.67296676 </i>
   </energy>
  </scstep>
  <scstep>
   <time name="dav">    8.99    9.00</time>
   <time name="total">    9.09    9.10</time>
   <energy>
    <i name="e_fr_energy">    293.00976675 </i>
    <i name="e_wo_entrp">    293.35755059 </i>
    <i name="e_0_energy">    293.12569470 </i>
   </energy>
  </scstep>
  <scstep>
   <time name="dav">   10.16   10.16</time>
   <time name="total">   10.26   10.27</time>
   <energy>
    <i name="e_fr_energy">    293.55387623 </i>
    <i name="e_wo_entrp">    293.86749826 </i>
    <i name="e_0_energy">    293.65841690 </i>
   </energy>
  </scstep>
  <scstep>
   <time name="dav">    9.72    9.72</time>
   <time name="total">    9.82    9.83</time>
   <energy>
    <i name="e_fr_energy">    293.51669142 </i>
    <i name="e_wo_entrp">    293.82453886 </i>
    <i name="e_0_energy">    293.61930724 </i>
   </energy>
  </scstep>
  <scstep>
   <time name="dav">   12.07   12.07</time>
   <time name="total">   12.18   12.18</time>
   <energy>
    <i name="e_fr_energy">    292.42746534 </i>
    <i name="e_wo_entrp">    292.77498220 </i>
    <i name="e_0_energy">    292.54330429 </i>
   </energy>
  </scstep>
  <scstep>
   <time name="dav">    9.63    9.63</time>
   <time name="total">    9.73    9.73</time>
   <energy>
    <i name="e_fr_energy">    292.33830843 </i>
    <i name="e_wo_entrp">    292.69341437 </i>
    <i name="e_0_energy">    292.45667707 </i>
   </energy>
  </scstep>
  <scstep>
   <time name="dav">    9.79    9.79</time>
   <time name="total">    9.89    9.89</time>
   <energy>
    <i name="e_fr_energy">    293.15639826 </i>
    <i name="e_wo_entrp">    293.49300609 </i>
    <i name="e_0_energy">    293.26860087 </i>
   </energy>
  </scstep>
  <scstep>
   <time name="dav">   11.94   11.95</time>
   <time name="total">   12.05   12.05</time>
   <energy>
    <i name="e_fr_energy">    296.12603258 </i>
    <i name="e_wo_entrp">    296.23693022 </i>
    <i name="e_0_energy">    296.16299846 </i>
   </energy>
  </scstep>
  <scstep>
   <time name="dav">   12.03   12.03</time>
   <time name="total">   12.13   12.13</time>
   <energy>
    <i name="e_fr_energy">    296.68804466 </i>
    <i name="e_wo_entrp">    296.73624244 </i>
    <i name="e_0_energy">    296.70411059 </i>
   </energy>
  </scstep>
  <scstep>
   <time name="dav">    9.36    9.36</time>
   <time name="total">    9.46    9.47</time>
   <energy>
    <i name="e_fr_energy">    297.11076851 </i>
    <i name="e_wo_entrp">    297.09918224 </i>
    <i name="e_0_energy">    297.10690642 </i>
   </energy>
  </scstep>
  <scstep>
   <time name="dav">   10.49   10.50</time>
   <time name="total">   10.60   10.60</time>
   <energy>
    <i name="e_fr_energy">    297.96669656 </i>
    <i name="e_wo_entrp">    297.83984751 </i>
    <i name="e_0_energy">    297.92441354 </i>
   </energy>
  </scstep>
  <scstep>
   <time name="dav">    9.41    9.41</time>
   <time name="total">    9.51    9.51</time>
   <energy>
    <i name="e_fr_energy">    298.11564389 </i>
    <i name="e_wo_entrp">    297.98538956 </i>
    <i name="e_0_energy">    298.07222578 </i>
   </energy>
  </scstep>
  <scstep>
   <time name="dav">    9.37    9.37</time>
   <time name="total">    9.47    9.47</time>
   <energy>
    <i name="e_fr_energy">    298.47963570 </i>
    <i name="e_wo_entrp">    298.42728476 </i>
    <i name="e_0_energy">    298.46218539 </i>
   </energy>
  </scstep>
  <scstep>
   <time name="dav">    9.43    9.43</time>
   <time name="total">    9.53    9.53</time>
   <energy>
    <i name="e_fr_energy">    298.40162436 </i>
    <i name="e_wo_entrp">    298.32445629 </i>
    <i name="e_0_energy">    298.37590167 </i>
   </energy>
  </scstep>
  <scstep>
   <time name="dav">   11.51   11.51</time>
   <time name="total">   11.62   11.62</time>
   <energy>
    <i name="e_fr_energy">    298.48375118 </i>
    <i name="e_wo_entrp">    298.43269465 </i>
    <i name="e_0_energy">    298.46673234 </i>
   </energy>
  </scstep>
  <scstep>
   <time name="dav">   11.81   11.81</time>
   <time name="total">   11.91   11.91</time>
   <energy>
    <i name="e_fr_energy">    298.54069170 </i>
    <i name="e_wo_entrp">    298.50929600 </i>
    <i name="e_0_energy">    298.53022647 </i>
   </energy>
  </scstep>
  <scstep>
   <time name="dav">    8.26    8.26</time>
   <time name="total">    8.36    8.36</time>
   <energy>
    <i name="e_fr_energy">    298.53515452 </i>
    <i name="e_wo_entrp">    298.50177938 </i>
    <i name="e_0_energy">    298.52402947 </i>
   </energy>
  </scstep>
  <scstep>
   <time name="dav">   12.13   12.13</time>
   <time name="total">   12.24   12.24</time>
   <energy>
    <i name="e_fr_energy">    298.56655001 </i>
    <i name="e_wo_entrp">    298.54518021 </i>
    <i name="e_0_energy">    298.55942674 </i>
   </energy>
  </scstep>
  <scstep>
   <time name="dav">    9.99   10.00</time>
   <time name="total">   10.10   10.10</time>
   <energy>
    <i name="e_fr_energy">    298.57011368 </i>
    <i name="e_wo_entrp">    298.55030714 </i>
    <i name="e_0_energy">    298.56351150 </i>
   </energy>
  </scstep>
  <scstep>
   <time name="dav">   11.22   11.22</time>
   <time name="total">   11.32   11.33</time>
   <energy>
    <i name="e_fr_energy">    298.58539524 </i>
    <i name="e_wo_entrp">    298.57384790 </i>
    <i name="e_0_energy">    298.58154613 </i>
   </energy>
  </scstep>
  <scstep>
   <time name="dav">   10.03   10.04</time>
   <time name="total">   10.14   10.14</time>
   <energy>
    <i name="e_fr_energy">    298.57984329 </i>
    <i name="e_wo_entrp">    298.56462801 </i>
    <i name="e_0_energy">    298.57477153 </i>
   </energy>
  </scstep>
  <scstep>
   <time name="dav">   12.25   12.25</time>
   <time name="total">   12.35   12.35</time>
   <energy>
    <i name="e_fr_energy">    298.58617679 </i>
    <i name="e_wo_entrp">    298.57507523 </i>
    <i name="e_0_energy">    298.58247627 </i>
   </energy>
  </scstep>
  <scstep>
   <time name="dav">   10.70   10.70</time>
   <time name="total">   10.81   10.81</time>
   <energy>
    <i name="e_fr_energy">    298.58708642 </i>
    <i name="e_wo_entrp">    298.57676909 </i>
    <i name="e_0_energy">    298.58364731 </i>
   </energy>
  </scstep>
  <scstep>
   <time name="dav">    9.85    9.85</time>
   <time name="total">    9.95    9.95</time>
   <energy>
    <i name="e_fr_energy">    298.58872082 </i>
    <i name="e_wo_entrp">    298.57953898 </i>
    <i name="e_0_energy">    298.58566020 </i>
   </energy>
  </scstep>
  <scstep>
   <time name="dav">   11.54   11.54</time>
   <time name="total">   11.65   11.65</time>
   <energy>
    <i name="e_fr_energy">    298.58965243 </i>
    <i name="e_wo_entrp">    298.58157840 </i>
    <i name="e_0_energy">    298.58696109 </i>
   </energy>
  </scstep>
  <scstep>
   <time name="dav">   12.18   12.18</time>
   <time name="total">   12.28   12.29</time>
   <energy>
    <i name="e_fr_energy">    298.59003823 </i>
    <i name="e_wo_entrp">    298.58247670 </i>
    <i name="e_0_energy">    298.58751772 </i>
   </energy>
  </scstep>
  <scstep>
   <time name="dav">   12.41   12.41</time>
   <time name="total">   12.51   12.51</time>
   <energy>
    <i name="e_fr_energy">    298.59013595 </i>
    <i name="e_wo_entrp">    298.58314527 </i>
    <i name="e_0_energy">    298.58780572 </i>
   </energy>
  </scstep>
  <scstep>
   <time name="dav">   12.44   12.44</time>
   <time name="total">   12.55   12.55</time>
   <energy>
    <i name="e_fr_energy">    298.59038282 </i>
    <i name="e_wo_entrp">    298.58264355 </i>
    <i name="e_0_energy">    298.58780306 </i>
   </energy>
  </scstep>
  <scstep>
   <time name="dav">   11.55   11.55</time>
   <time name="total">   11.65   11.65</time>
   <energy>
    <i name="e_fr_energy">    298.59037937 </i>
    <i name="e_wo_entrp">    298.58300928 </i>
    <i name="e_0_energy">    298.58792268 </i>
   </energy>
  </scstep>
  <scstep>
   <time name="dav">   11.11   11.11</time>
   <time name="total">   11.22   11.22</time>
   <energy>
    <i name="e_fr_energy">    298.59043167 </i>
    <i name="e_wo_entrp">    298.58259397 </i>
    <i name="e_0_energy">    298.58781910 </i>
   </energy>
  </scstep>
  <scstep>
   <time name="dav">    8.71    8.71</time>
   <time name="total">    8.82    8.82</time>
   <energy>
    <i name="e_fr_energy">    298.59042600 </i>
    <i name="e_wo_entrp">    298.58243118 </i>
    <i name="e_0_energy">    298.58776106 </i>
   </energy>
  </scstep>
  <scstep>
   <time name="dav">    7.27    7.27</time>
   <time name="total">    7.38    7.38</time>
   <energy>
    <i name="e_fr_energy">    298.59043260 </i>
    <i name="e_wo_entrp">    298.58242202 </i>
    <i name="e_0_energy">    298.58776241 </i>
   </energy>
  </scstep>
  <scstep>
   <time name="dav">    7.76    7.76</time>
   <time name="total">    7.87    7.87</time>
   <energy>
    <i name="e_fr_energy">    298.59044947 </i>
    <i name="e_wo_entrp">    298.58244617 </i>
    <i name="e_0_energy">    298.58778170 </i>
   </energy>
  </scstep>
  <scstep>
   <time name="dav">    8.29    8.29</time>
   <time name="total">    8.40    8.40</time>
   <energy>
    <i name="e_fr_energy">    298.59047055 </i>
    <i name="e_wo_entrp">    298.58252406 </i>
    <i name="e_0_energy">    298.58782172 </i>
   </energy>
  </scstep>
  <scstep>
   <time name="dav">    7.95    7.95</time>
   <time name="total">    8.06    8.06</time>
   <energy>
    <i name="e_fr_energy">    298.59048316 </i>
    <i name="e_wo_entrp">    298.58255294 </i>
    <i name="e_0_energy">    298.58783976 </i>
   </energy>
  </scstep>
  <scstep>
   <time name="dav">    8.22    8.22</time>
   <time name="total">    8.32    8.33</time>
   <energy>
    <i name="e_fr_energy">    298.59049284 </i>
    <i name="e_wo_entrp">    298.58259128 </i>
    <i name="e_0_energy">    298.58785899 </i>
   </energy>
  </scstep>
  <scstep>
   <time name="dav">    7.98    7.98</time>
   <time name="total">    8.08    8.08</time>
   <energy>
    <i name="e_fr_energy">    298.59049811 </i>
    <i name="e_wo_entrp">    298.58261041 </i>
    <i name="e_0_energy">    298.58786887 </i>
   </energy>
  </scstep>
  <scstep>
   <time name="dav">    9.17    9.17</time>
   <time name="total">    9.27    9.27</time>
   <energy>
    <i name="e_fr_energy">    298.59050471 </i>
    <i name="e_wo_entrp">    298.58264428 </i>
    <i name="e_0_energy">    298.58788457 </i>
   </energy>
  </scstep>
  <scstep>
   <time name="dav">    8.40    8.40</time>
   <time name="total">    8.51    8.51</time>
   <energy>
    <i name="e_fr_energy">    298.59050839 </i>
    <i name="e_wo_entrp">    298.58265951 </i>
    <i name="e_0_energy">    298.58789209 </i>
   </energy>
  </scstep>
  <scstep>
   <time name="dav">    8.47    8.47</time>
   <time name="total">    8.58    8.58</time>
   <energy>
    <i name="e_fr_energy">    298.59051009 </i>
    <i name="e_wo_entrp">    298.58266958 </i>
    <i name="e_0_energy">    298.58789659 </i>
   </energy>
  </scstep>
  <scstep>
   <time name="dav">    7.93    7.93</time>
   <time name="total">    7.95    7.95</time>
   <energy>
    <i name="alphaZ">    338.76235126 </i>
    <i name="ewald">  -9154.55795151 </i>
    <i name="hartreedc">  -3771.78064662 </i>
    <i name="XCdc">    289.03182815 </i>
    <i name="pawpsdc">  13124.03251263 </i>
    <i name="pawaedc"> -12737.79719424 </i>
    <i name="eentropy">      0.00785117 </i>
    <i name="bandstr">  -1592.60115724 </i>
    <i name="atom">  13803.49291671 </i>
    <i name="e_fr_energy">    298.59051031 </i>
    <i name="e_wo_entrp">    298.58265914 </i>
    <i name="e_0_energy">    298.58789325 </i>
   </energy>
  </scstep>
  <structure>
   <crystal>
    <varray name="basis" >
     <v>       5.58242785       0.00000000       0.00000000 </v>
     <v>       0.00000000       5.58242785       0.00000000 </v>
     <v>       0.00000000       0.00000000       8.02249218 </v>
    </varray>
    <i name="volume">    250.00894043 </i>
    <varray name="rec_basis" >
     <v>       0.17913353       0.00000000       0.00000000 </v>
     <v>       0.00000000       0.17913353       0.00000000 </v>
     <v>       0.00000000       0.00000000       0.12464955 </v>
    </varray>
   </crystal>
   <varray name="positions" >
    <v>       0.00000000       0.00000000       0.00000000 </v>
    <v>       0.00000000       0.00000000       0.50000000 </v>
    <v>       0.00000000       0.50000000       0.00000000 </v>
    <v>       0.00000000       0.50000000       0.50000000 </v>
    <v>       0.50000000       0.00000000       0.00000000 </v>
    <v>       0.50000000       0.00000000       0.50000000 </v>
    <v>       0.50000000       0.50000000       0.00000000 </v>
    <v>       0.50000000       0.50000000       0.50000000 </v>
    <v>       0.25000000       0.25000000       0.25000000 </v>
    <v>       0.25000000       0.25000000       0.75000000 </v>
    <v>       0.25000000       0.75000000       0.25000000 </v>
    <v>       0.25000000       0.75000000       0.75000000 </v>
    <v>       0.75000000       0.25000000       0.25000000 </v>
    <v>       0.75000000       0.25000000       0.75000000 </v>
    <v>       0.75000000       0.75000000       0.25000000 </v>
    <v>       0.75000000       0.75000000       0.75000000 </v>
    <v>       0.25000000       0.25000000       0.25000000 </v>
    <v>       0.25000000       0.25000000       0.75000000 </v>
    <v>       0.25000000       0.75000000       0.25000000 </v>
    <v>       0.25000000       0.75000000       0.75000000 </v>
    <v>       0.75000000       0.25000000       0.25000000 </v>
    <v>       0.75000000       0.25000000       0.75000000 </v>
    <v>       0.75000000       0.75000000       0.25000000 </v>
    <v>       0.75000000       0.75000000       0.75000000 </v>
   </varray>
  </structure>
  <varray name="forces" >
   <v>      -0.00000000      -0.00000000       0.00000000 </v>
   <v>      -0.00000000       0.00000000      -0.00000000 </v>
   <v>       0.00000000      -0.00000000       0.00000000 </v>
   <v>       0.00000000       0.00000000      -0.00000000 </v>
   <v>      -0.00000000      -0.00000000      -0.00000000 </v>
   <v>      -0.00000000       0.00000000       0.00000000 </v>
   <v>       0.00000000      -0.00000000      -0.00000000 </v>
   <v>       0.00000000       0.00000000      -0.00000000 </v>
   <v>      -0.00000000      -0.00000000       0.00000000 </v>
   <v>       0.00000000       0.00000000       0.00000000 </v>
   <v>       0.00000000       0.00000000       0.00000000 </v>
   <v>      -0.00000000      -0.00000000       0.00000000 </v>
   <v>      -0.00000000       0.00000000       0.00000000 </v>
   <v>       0.00000000      -0.00000000       0.00000000 </v>
   <v>       0.00000000      -0.00000000       0.00000000 </v>
   <v>      -0.00000000      -0.00000000       0.00000000 </v>
   <v>       0.00000000       0.00000000       0.00000000 </v>
   <v>       0.00000000       0.00000000       0.00000000 </v>
   <v>      -0.00000000       0.00000000       0.00000000 </v>
   <v>      -0.00000000       0.00000000       0.00000000 </v>
   <v>      -0.00000000       0.00000000       0.00000000 </v>
   <v>      -0.00000000       0.00000000       0.00000000 </v>
   <v>      -0.00000000       0.00000000       0.00000000 </v>
   <v>       0.00000000       0.00000000       0.00000000 </v>
  </varray>
  <varray name="stress" >
   <v>      -3.59146391       0.00000000       0.00000000 </v>
   <v>       0.00000000      -3.59146391       0.00000000 </v>
   <v>      -0.00000000      -0.00000000      -4.30920964 </v>
  </varray>
  <energy>
   <i name="e_fr_energy">    298.59051031 </i>
   <i name="e_wo_entrp">    298.58265914 </i>
   <i name="e_0_energy">    298.58789325 </i>
  </energy>
  <kpoints>
   <generation param="Gamma">
    <v type="int" name="divisions">       9        9        6 </v>
    <v name="usershift">      0.00000000       0.00000000       0.00000000 </v>
    <v name="genvec1">      0.11111111       0.00000000       0.00000000 </v>
    <v name="genvec2">      0.00000000       0.11111111       0.00000000 </v>
    <v name="genvec3">      0.00000000       0.00000000       0.16666667 </v>
    <v name="shift">      0.00000000       0.00000000       0.00000000 </v>
   </generation>
   <varray name="kpointlist" >
    <v>       0.00000000       0.00000000       0.00000000 </v>
    <v>       0.11111111       0.00000000       0.00000000 </v>
    <v>       0.22222222       0.00000000       0.00000000 </v>
    <v>       0.33333333       0.00000000       0.00000000 </v>
    <v>       0.44444444       0.00000000       0.00000000 </v>
    <v>       0.00000000       0.11111111       0.00000000 </v>
    <v>       0.11111111       0.11111111       0.00000000 </v>
    <v>       0.22222222       0.11111111       0.00000000 </v>
    <v>       0.33333333       0.11111111       0.00000000 </v>
    <v>       0.44444444       0.11111111       0.00000000 </v>
    <v>       0.00000000       0.22222222       0.00000000 </v>
    <v>       0.11111111       0.22222222       0.00000000 </v>
    <v>       0.22222222       0.22222222       0.00000000 </v>
    <v>       0.33333333       0.22222222       0.00000000 </v>
    <v>       0.44444444       0.22222222       0.00000000 </v>
    <v>       0.00000000       0.33333333       0.00000000 </v>
    <v>       0.11111111       0.33333333       0.00000000 </v>
    <v>       0.22222222       0.33333333       0.00000000 </v>
    <v>       0.33333333       0.33333333       0.00000000 </v>
    <v>       0.44444444       0.33333333       0.00000000 </v>
    <v>       0.00000000       0.44444444       0.00000000 </v>
    <v>       0.11111111       0.44444444       0.00000000 </v>
    <v>       0.22222222       0.44444444       0.00000000 </v>
    <v>       0.33333333       0.44444444       0.00000000 </v>
    <v>       0.44444444       0.44444444       0.00000000 </v>
    <v>       0.00000000       0.00000000       0.16666667 </v>
    <v>       0.11111111       0.00000000       0.16666667 </v>
    <v>       0.22222222       0.00000000       0.16666667 </v>
    <v>       0.33333333       0.00000000       0.16666667 </v>
    <v>       0.44444444       0.00000000       0.16666667 </v>
    <v>       0.00000000       0.11111111       0.16666667 </v>
    <v>       0.11111111       0.11111111       0.16666667 </v>
    <v>       0.22222222       0.11111111       0.16666667 </v>
    <v>       0.33333333       0.11111111       0.16666667 </v>
    <v>       0.44444444       0.11111111       0.16666667 </v>
    <v>       0.00000000       0.22222222       0.16666667 </v>
    <v>       0.11111111       0.22222222       0.16666667 </v>
    <v>       0.22222222       0.22222222       0.16666667 </v>
    <v>       0.33333333       0.22222222       0.16666667 </v>
    <v>       0.44444444       0.22222222       0.16666667 </v>
    <v>       0.00000000       0.33333333       0.16666667 </v>
    <v>       0.11111111       0.33333333       0.16666667 </v>
    <v>       0.22222222       0.33333333       0.16666667 </v>
    <v>       0.33333333       0.33333333       0.16666667 </v>
    <v>       0.44444444       0.33333333       0.16666667 </v>
    <v>       0.00000000       0.44444444       0.16666667 </v>
    <v>       0.11111111       0.44444444       0.16666667 </v>
    <v>       0.22222222       0.44444444       0.16666667 </v>
    <v>       0.33333333       0.44444444       0.16666667 </v>
    <v>       0.44444444       0.44444444       0.16666667 </v>
    <v>       0.00000000       0.00000000       0.33333333 </v>
    <v>       0.11111111       0.00000000       0.33333333 </v>
    <v>       0.22222222       0.00000000       0.33333333 </v>
    <v>       0.33333333       0.00000000       0.33333333 </v>
    <v>       0.44444444       0.00000000       0.33333333 </v>
    <v>       0.00000000       0.11111111       0.33333333 </v>
    <v>       0.11111111       0.11111111       0.33333333 </v>
    <v>       0.22222222       0.11111111       0.33333333 </v>
    <v>       0.33333333       0.11111111       0.33333333 </v>
    <v>       0.44444444       0.11111111       0.33333333 </v>
    <v>       0.00000000       0.22222222       0.33333333 </v>
    <v>       0.11111111       0.22222222       0.33333333 </v>
    <v>       0.22222222       0.22222222       0.33333333 </v>
    <v>       0.33333333       0.22222222       0.33333333 </v>
    <v>       0.44444444       0.22222222       0.33333333 </v>
    <v>       0.00000000       0.33333333       0.33333333 </v>
    <v>       0.11111111       0.33333333       0.33333333 </v>
    <v>       0.22222222       0.33333333       0.33333333 </v>
    <v>       0.33333333       0.33333333       0.33333333 </v>
    <v>       0.44444444       0.33333333       0.33333333 </v>
    <v>       0.00000000       0.44444444       0.33333333 </v>
    <v>       0.11111111       0.44444444       0.33333333 </v>
    <v>       0.22222222       0.44444444       0.33333333 </v>
    <v>       0.33333333       0.44444444       0.33333333 </v>
    <v>       0.44444444       0.44444444       0.33333333 </v>
    <v>       0.00000000       0.00000000       0.50000000 </v>
    <v>       0.11111111       0.00000000       0.50000000 </v>
    <v>       0.22222222       0.00000000       0.50000000 </v>
    <v>       0.33333333       0.00000000       0.50000000 </v>
    <v>       0.44444444       0.00000000       0.50000000 </v>
    <v>       0.00000000       0.11111111       0.50000000 </v>
    <v>       0.11111111       0.11111111       0.50000000 </v>
    <v>       0.22222222       0.11111111       0.50000000 </v>
    <v>       0.33333333       0.11111111       0.50000000 </v>
    <v>       0.44444444       0.11111111       0.50000000 </v>
    <v>       0.00000000       0.22222222       0.50000000 </v>
    <v>       0.11111111       0.22222222       0.50000000 </v>
    <v>       0.22222222       0.22222222       0.50000000 </v>
    <v>       0.33333333       0.22222222       0.50000000 </v>
    <v>       0.44444444       0.22222222       0.50000000 </v>
    <v>       0.00000000       0.33333333       0.50000000 </v>
    <v>       0.11111111       0.33333333       0.50000000 </v>
    <v>       0.22222222       0.33333333       0.50000000 </v>
    <v>       0.33333333       0.33333333       0.50000000 </v>
    <v>       0.44444444       0.33333333       0.50000000 </v>
    <v>       0.00000000       0.44444444       0.50000000 </v>
    <v>       0.11111111       0.44444444       0.50000000 </v>
    <v>       0.22222222       0.44444444       0.50000000 </v>
    <v>       0.33333333       0.44444444       0.50000000 </v>
    <v>       0.44444444       0.44444444       0.50000000 </v>
   </varray>
   <varray name="weights" >
    <v>       0.00205761 </v>
    <v>       0.00411523 </v>
    <v>       0.00411523 </v>
    <v>       0.00411523 </v>
    <v>       0.00411523 </v>
    <v>       0.00411523 </v>
    <v>       0.00823045 </v>
    <v>       0.00823045 </v>
    <v>       0.00823045 </v>
    <v>       0.00823045 </v>
    <v>       0.00411523 </v>
    <v>       0.00823045 </v>
    <v>       0.00823045 </v>
    <v>       0.00823045 </v>
    <v>       0.00823045 </v>
    <v>       0.00411523 </v>
    <v>       0.00823045 </v>
    <v>       0.00823045 </v>
    <v>       0.00823045 </v>
    <v>       0.00823045 </v>
    <v>       0.00411523 </v>
    <v>       0.00823045 </v>
    <v>       0.00823045 </v>
    <v>       0.00823045 </v>
    <v>       0.00823045 </v>
    <v>       0.00411523 </v>
    <v>       0.00823045 </v>
    <v>       0.00823045 </v>
    <v>       0.00823045 </v>
    <v>       0.00823045 </v>
    <v>       0.00823045 </v>
    <v>       0.01646091 </v>
    <v>       0.01646091 </v>
    <v>       0.01646091 </v>
    <v>       0.01646091 </v>
    <v>       0.00823045 </v>
    <v>       0.01646091 </v>
    <v>       0.01646091 </v>
    <v>       0.01646091 </v>
    <v>       0.01646091 </v>
    <v>       0.00823045 </v>
    <v>       0.01646091 </v>
    <v>       0.01646091 </v>
    <v>       0.01646091 </v>
    <v>       0.01646091 </v>
    <v>       0.00823045 </v>
    <v>       0.01646091 </v>
    <v>       0.01646091 </v>
    <v>       0.01646091 </v>
    <v>       0.01646091 </v>
    <v>       0.00411523 </v>
    <v>       0.00823045 </v>
    <v>       0.00823045 </v>
    <v>       0.00823045 </v>
    <v>       0.00823045 </v>
    <v>       0.00823045 </v>
    <v>       0.01646091 </v>
    <v>       0.01646091 </v>
    <v>       0.01646091 </v>
    <v>       0.01646091 </v>
    <v>       0.00823045 </v>
    <v>       0.01646091 </v>
    <v>       0.01646091 </v>
    <v>       0.01646091 </v>
    <v>       0.01646091 </v>
    <v>       0.00823045 </v>
    <v>       0.01646091 </v>
    <v>       0.01646091 </v>
    <v>       0.01646091 </v>
    <v>       0.01646091 </v>
    <v>       0.00823045 </v>
    <v>       0.01646091 </v>
    <v>       0.01646091 </v>
    <v>       0.01646091 </v>
    <v>       0.01646091 </v>
    <v>       0.00205761 </v>
    <v>       0.00411523 </v>
    <v>       0.00411523 </v>
    <v>       0.00411523 </v>
    <v>       0.00411523 </v>
    <v>       0.00411523 </v>
    <v>       0.00823045 </v>
    <v>       0.00823045 </v>
    <v>       0.00823045 </v>
    <v>       0.00823045 </v>
    <v>       0.00411523 </v>
    <v>       0.00823045 </v>
    <v>       0.00823045 </v>
    <v>       0.00823045 </v>
    <v>       0.00823045 </v>
    <v>       0.00411523 </v>
    <v>       0.00823045 </v>
    <v>       0.00823045 </v>
    <v>       0.00823045 </v>
    <v>       0.00823045 </v>
    <v>       0.00411523 </v>
    <v>       0.00823045 </v>
    <v>       0.00823045 </v>
    <v>       0.00823045 </v>
    <v>       0.00823045 </v>
   </varray>
  </kpoints>
  <time name="totalsc">  696.08  696.18</time>
 </calculation>
 <calculation>
  <scstep>
   <time name="dav">    9.04    9.04</time>
   <time name="total">    9.19    9.19</time>
   <energy>
    <i name="alphaZ">    333.75601109 </i>
    <i name="ewald">  -9116.70479795 </i>
    <i name="hartreedc">  -3746.46002417 </i>
    <i name="XCdc">    286.53091490 </i>
    <i name="pawpsdc">  13124.02056387 </i>
    <i name="pawaedc"> -12737.78423002 </i>
    <i name="eentropy">      0.00393460 </i>
    <i name="bandstr">  -1648.29448632 </i>
    <i name="atom">  13803.49291671 </i>
    <i name="e_fr_energy">    298.56080272 </i>
    <i name="e_wo_entrp">    298.55686812 </i>
    <i name="e_0_energy">    298.55949118 </i>
   </energy>
  </scstep>
  <scstep>
   <time name="dav">   16.57   16.57</time>
   <time name="total">   16.72   16.72</time>
   <energy>
    <i name="e_fr_energy">    295.88547995 </i>
    <i name="e_wo_entrp">    295.89327554 </i>
    <i name="e_0_energy">    295.88807848 </i>
   </energy>
  </scstep>
  <scstep>
   <time name="dav">   18.63   18.63</time>
   <time name="total">   18.79   18.79</time>
   <energy>
    <i name="e_fr_energy">    295.85268663 </i>
    <i name="e_wo_entrp">    295.85006464 </i>
    <i name="e_0_energy">    295.85181263 </i>
   </energy>
  </scstep>
  <scstep>
   <time name="dav">   15.96   15.97</time>
   <time name="total">   16.11   16.11</time>
   <energy>
    <i name="e_fr_energy">    296.58335476 </i>
    <i name="e_wo_entrp">    296.58088522 </i>
    <i name="e_0_energy">    296.58253158 </i>
   </energy>
  </scstep>
  <scstep>
   <time name="dav">   20.06   20.07</time>
   <time name="total">   20.22   20.22</time>
   <energy>
    <i name="e_fr_energy">    298.33408501 </i>
    <i name="e_wo_entrp">    298.33779119 </i>
    <i name="e_0_energy">    298.33532040 </i>
   </energy>
  </scstep>
  <scstep>
   <time name="dav">   18.45   18.46</time>
   <time name="total">   18.61   18.62</time>
   <energy>
    <i name="e_fr_energy">    298.30483585 </i>
    <i name="e_wo_entrp">    298.14204903 </i>
    <i name="e_0_energy">    298.25057358 </i>
   </energy>
  </scstep>
  <scstep>
   <time name="dav">   20.08   20.08</time>
   <time name="total">   20.23   20.23</time>
   <energy>
    <i name="e_fr_energy">    298.98686461 </i>
    <i name="e_wo_entrp">    298.95930804 </i>
    <i name="e_0_energy">    298.97767909 </i>
   </energy>
  </scstep>
  <scstep>
   <time name="dav">   13.59   13.59</time>
   <time name="total">   13.74   13.75</time>
   <energy>
    <i name="e_fr_energy">    298.92874438 </i>
    <i name="e_wo_entrp">    298.88575633 </i>
    <i name="e_0_energy">    298.91441503 </i>
   </energy>
  </scstep>
  <scstep>
   <time name="dav">   17.69   17.69</time>
   <time name="total">   17.84   17.85</time>
   <energy>
    <i name="e_fr_energy">    298.94764540 </i>
    <i name="e_wo_entrp">    298.91336508 </i>
    <i name="e_0_energy">    298.93621863 </i>
   </energy>
  </scstep>
  <scstep>
   <time name="dav">   18.56   18.57</time>
   <time name="total">   18.71   18.72</time>
   <energy>
    <i name="e_fr_energy">    298.98033009 </i>
    <i name="e_wo_entrp">    298.96751686 </i>
    <i name="e_0_energy">    298.97605901 </i>
   </energy>
  </scstep>
  <scstep>
   <time name="dav">   17.76   17.76</time>
   <time name="total">   17.91   17.91</time>
   <energy>
    <i name="e_fr_energy">    298.97433340 </i>
    <i name="e_wo_entrp">    298.95495626 </i>
    <i name="e_0_energy">    298.96787436 </i>
   </energy>
  </scstep>
  <scstep>
   <time name="dav">   18.42   18.43</time>
   <time name="total">   18.58   18.58</time>
   <energy>
    <i name="e_fr_energy">    298.97161115 </i>
    <i name="e_wo_entrp">    298.95060081 </i>
    <i name="e_0_energy">    298.96460771 </i>
   </energy>
  </scstep>
  <scstep>
   <time name="dav">   19.71   19.71</time>
   <time name="total">   19.86   19.86</time>
   <energy>
    <i name="e_fr_energy">    298.97854221 </i>
    <i name="e_wo_entrp">    298.96373237 </i>
    <i name="e_0_energy">    298.97360560 </i>
   </energy>
  </scstep>
  <scstep>
   <time name="dav">   19.11   19.12</time>
   <time name="total">   19.26   19.27</time>
   <energy>
    <i name="e_fr_energy">    298.97972761 </i>
    <i name="e_wo_entrp">    298.96694739 </i>
    <i name="e_0_energy">    298.97546754 </i>
   </energy>
  </scstep>
  <scstep>
   <time name="dav">   18.57   18.58</time>
   <time name="total">   18.72   18.73</time>
   <energy>
    <i name="e_fr_energy">    298.97996918 </i>
    <i name="e_wo_entrp">    298.96810810 </i>
    <i name="e_0_energy">    298.97601549 </i>
   </energy>
  </scstep>
  <scstep>
   <time name="dav">   19.04   19.05</time>
   <time name="total">   19.19   19.19</time>
   <energy>
    <i name="e_fr_energy">    298.97993188 </i>
    <i name="e_wo_entrp">    298.96984473 </i>
    <i name="e_0_energy">    298.97656950 </i>
   </energy>
  </scstep>
  <scstep>
   <time name="dav">   16.43   16.43</time>
   <time name="total">   16.58   16.58</time>
   <energy>
    <i name="e_fr_energy">    298.97999430 </i>
    <i name="e_wo_entrp">    298.96932765 </i>
    <i name="e_0_energy">    298.97643875 </i>
   </energy>
  </scstep>
  <scstep>
   <time name="dav">   19.73   19.74</time>
   <time name="total">   19.88   19.89</time>
   <energy>
    <i name="e_fr_energy">    298.98000751 </i>
    <i name="e_wo_entrp">    298.96903741 </i>
    <i name="e_0_energy">    298.97635081 </i>
   </energy>
  </scstep>
  <scstep>
   <time name="dav">   11.16   11.16</time>
   <time name="total">   11.31   11.31</time>
   <energy>
    <i name="e_fr_energy">    298.98000780 </i>
    <i name="e_wo_entrp">    298.96899261 </i>
    <i name="e_0_energy">    298.97633607 </i>
   </energy>
  </scstep>
  <scstep>
   <time name="dav">   13.00   13.00</time>
   <time name="total">   13.02   13.02</time>
   <energy>
    <i name="alphaZ">    333.75601109 </i>
    <i name="ewald">  -9116.70479795 </i>
    <i name="hartreedc">  -3781.72777666 </i>
    <i name="XCdc">    288.24965238 </i>
    <i name="pawpsdc">  13002.14014443 </i>
    <i name="pawaedc"> -12617.67280602 </i>
    <i name="eentropy">      0.01106396 </i>
    <i name="bandstr">  -1612.56439983 </i>
    <i name="atom">  13803.49291671 </i>
    <i name="e_fr_energy">    298.98000812 </i>
    <i name="e_wo_entrp">    298.96894415 </i>
    <i name="e_0_energy">    298.97632013 </i>
   </energy>
  </scstep>
  <structure>
   <crystal>
    <varray name="basis" >
     <v>       5.66616427       0.00000000       0.00000000 </v>
     <v>       0.00000000       5.58242785       0.00000000 </v>
     <v>       0.00000000       0.00000000       8.02249218 </v>
    </varray>
    <i name="volume">    253.75907454 </i>
    <varray name="rec_basis" >
     <v>       0.17648624       0.00000000       0.00000000 </v>
     <v>       0.00000000       0.17913353       0.00000000 </v>
     <v>       0.00000000       0.00000000       0.12464955 </v>
    </varray>
   </crystal>
   <varray name="positions" >
    <v>       0.00000000       0.00000000       0.00000000 </v>
    <v>       0.00000000       0.00000000       0.50000000 </v>
    <v>       0.00000000       0.50000000       0.00000000 </v>
    <v>       0.00000000       0.50000000       0.50000000 </v>
    <v>       0.50000000       0.00000000       0.00000000 </v>
    <v>       0.50000000       0.00000000       0.50000000 </v>
    <v>       0.50000000       0.50000000       0.00000000 </v>
    <v>       0.50000000       0.50000000       0.50000000 </v>
    <v>       0.25000000       0.25000000       0.25000000 </v>
    <v>       0.25000000       0.25000000       0.75000000 </v>
    <v>       0.25000000       0.75000000       0.25000000 </v>
    <v>       0.25000000       0.75000000       0.75000000 </v>
    <v>       0.75000000       0.25000000       0.25000000 </v>
    <v>       0.75000000       0.25000000       0.75000000 </v>
    <v>       0.75000000       0.75000000       0.25000000 </v>
    <v>       0.75000000       0.75000000       0.75000000 </v>
    <v>       0.25000000       0.25000000       0.25000000 </v>
    <v>       0.25000000       0.25000000       0.75000000 </v>
    <v>       0.25000000       0.75000000       0.25000000 </v>
    <v>       0.25000000       0.75000000       0.75000000 </v>
    <v>       0.75000000       0.25000000       0.25000000 </v>
    <v>       0.75000000       0.25000000       0.75000000 </v>
    <v>       0.75000000       0.75000000       0.25000000 </v>
    <v>       0.75000000       0.75000000       0.75000000 </v>
   </varray>
  </structure>
  <varray name="forces" >
   <v>       0.00000000      -0.00000000       0.00000000 </v>
   <v>      -0.00000000      -0.00000000       0.00000000 </v>
   <v>       0.00000000       0.00000000      -0.00000000 </v>
   <v>      -0.00000000      -0.00000000       0.00000000 </v>
   <v>       0.00000000       0.00000000      -0.00000000 </v>
   <v>      -0.00000000      -0.00000000       0.00000000 </v>
   <v>       0.00000000       0.00000000       0.00000000 </v>
   <v>      -0.00000000       0.00000000      -0.00000000 </v>
   <v>       0.00000000      -0.00000000       0.00000000 </v>
   <v>       0.00000000      -0.00000000       0.00000000 </v>
   <v>       0.00000000      -0.00000000       0.00000000 </v>
   <v>       0.00000000      -0.00000000       0.00000000 </v>
   <v>       0.00000000      -0.00000000       0.00000000 </v>
   <v>       0.00000000      -0.00000000       0.00000000 </v>
   <v>       0.00000000       0.00000000       0.00000000 </v>
   <v>       0.00000000       0.00000000       0.00000000 </v>
   <v>       0.00000000      -0.00000000       0.00000000 </v>
   <v>       0.00000000      -0.00000000       0.00000000 </v>
   <v>       0.00000000      -0.00000000       0.00000000 </v>
   <v>       0.00000000      -0.00000000       0.00000000 </v>
   <v>       0.00000000      -0.00000000       0.00000000 </v>
   <v>       0.00000000      -0.00000000       0.00000000 </v>
   <v>       0.00000000      -0.00000000       0.00000000 </v>
   <v>       0.00000000      -0.00000000       0.00000000 </v>
  </varray>
  <varray name="stress" >
   <v>     -31.64344301      -0.00000000       0.00000000 </v>
   <v>       0.00000000     -12.09039051       0.00000000 </v>
   <v>       0.00000000       0.00000000     -18.92773589 </v>
  </varray>
  <energy>
   <i name="e_fr_energy">    298.98000812 </i>
   <i name="e_wo_entrp">    298.96894415 </i>
   <i name="e_0_energy">    298.97632013 </i>
  </energy>
  <kpoints>
   <generation param="Gamma">
    <v type="int" name="divisions">       9        9        6 </v>
    <v name="usershift">      0.00000000       0.00000000       0.00000000 </v>
    <v name="genvec1">      0.11111111       0.00000000       0.00000000 </v>
    <v name="genvec2">      0.00000000       0.11111111       0.00000000 </v>
    <v name="genvec3">      0.00000000       0.00000000       0.16666667 </v>
    <v name="shift">      0.00000000       0.00000000       0.00000000 </v>
   </generation>
   <varray name="kpointlist" >
    <v>       0.00000000       0.00000000       0.00000000 </v>
    <v>       0.11111111       0.00000000       0.00000000 </v>
    <v>       0.22222222       0.00000000       0.00000000 </v>
    <v>       0.33333333       0.00000000       0.00000000 </v>
    <v>       0.44444444       0.00000000       0.00000000 </v>
    <v>       0.00000000       0.11111111       0.00000000 </v>
    <v>       0.11111111       0.11111111       0.00000000 </v>
    <v>       0.22222222       0.11111111       0.00000000 </v>
    <v>       0.33333333       0.11111111       0.00000000 </v>
    <v>       0.44444444       0.11111111       0.00000000 </v>
    <v>       0.00000000       0.22222222       0.00000000 </v>
    <v>       0.11111111       0.22222222       0.00000000 </v>
    <v>       0.22222222       0.22222222       0.00000000 </v>
    <v>       0.33333333       0.22222222       0.00000000 </v>
    <v>       0.44444444       0.22222222       0.00000000 </v>
    <v>       0.00000000       0.33333333       0.00000000 </v>
    <v>       0.11111111       0.33333333       0.00000000 </v>
    <v>       0.22222222       0.33333333       0.00000000 </v>
    <v>       0.33333333       0.33333333       0.00000000 </v>
    <v>       0.44444444       0.33333333       0.00000000 </v>
    <v>       0.00000000       0.44444444       0.00000000 </v>
    <v>       0.11111111       0.44444444       0.00000000 </v>
    <v>       0.22222222       0.44444444       0.00000000 </v>
    <v>       0.33333333       0.44444444       0.00000000 </v>
    <v>       0.44444444       0.44444444       0.00000000 </v>
    <v>       0.00000000       0.00000000       0.16666667 </v>
    <v>       0.11111111       0.00000000       0.16666667 </v>
    <v>       0.22222222       0.00000000       0.16666667 </v>
    <v>       0.33333333       0.00000000       0.16666667 </v>
    <v>       0.44444444       0.00000000       0.16666667 </v>
    <v>       0.00000000       0.11111111       0.16666667 </v>
    <v>       0.11111111       0.11111111       0.16666667 </v>
    <v>       0.22222222       0.11111111       0.16666667 </v>
    <v>       0.33333333       0.11111111       0.16666667 </v>
    <v>       0.44444444       0.11111111       0.16666667 </v>
    <v>       0.00000000       0.22222222       0.16666667 </v>
    <v>       0.11111111       0.22222222       0.16666667 </v>
    <v>       0.22222222       0.22222222       0.16666667 </v>
    <v>       0.33333333       0.22222222       0.16666667 </v>
    <v>       0.44444444       0.22222222       0.16666667 </v>
    <v>       0.00000000       0.33333333       0.16666667 </v>
    <v>       0.11111111       0.33333333       0.16666667 </v>
    <v>       0.22222222       0.33333333       0.16666667 </v>
    <v>       0.33333333       0.33333333       0.16666667 </v>
    <v>       0.44444444       0.33333333       0.16666667 </v>
    <v>       0.00000000       0.44444444       0.16666667 </v>
    <v>       0.11111111       0.44444444       0.16666667 </v>
    <v>       0.22222222       0.44444444       0.16666667 </v>
    <v>       0.33333333       0.44444444       0.16666667 </v>
    <v>       0.44444444       0.44444444       0.16666667 </v>
    <v>       0.00000000       0.00000000       0.33333333 </v>
    <v>       0.11111111       0.00000000       0.33333333 </v>
    <v>       0.22222222       0.00000000       0.33333333 </v>
    <v>       0.33333333       0.00000000       0.33333333 </v>
    <v>       0.44444444       0.00000000       0.33333333 </v>
    <v>       0.00000000       0.11111111       0.33333333 </v>
    <v>       0.11111111       0.11111111       0.33333333 </v>
    <v>       0.22222222       0.11111111       0.33333333 </v>
    <v>       0.33333333       0.11111111       0.33333333 </v>
    <v>       0.44444444       0.11111111       0.33333333 </v>
    <v>       0.00000000       0.22222222       0.33333333 </v>
    <v>       0.11111111       0.22222222       0.33333333 </v>
    <v>       0.22222222       0.22222222       0.33333333 </v>
    <v>       0.33333333       0.22222222       0.33333333 </v>
    <v>       0.44444444       0.22222222       0.33333333 </v>
    <v>       0.00000000       0.33333333       0.33333333 </v>
    <v>       0.11111111       0.33333333       0.33333333 </v>
    <v>       0.22222222       0.33333333       0.33333333 </v>
    <v>       0.33333333       0.33333333       0.33333333 </v>
    <v>       0.44444444       0.33333333       0.33333333 </v>
    <v>       0.00000000       0.44444444       0.33333333 </v>
    <v>       0.11111111       0.44444444       0.33333333 </v>
    <v>       0.22222222       0.44444444       0.33333333 </v>
    <v>       0.33333333       0.44444444       0.33333333 </v>
    <v>       0.44444444       0.44444444       0.33333333 </v>
    <v>       0.00000000       0.00000000       0.50000000 </v>
    <v>       0.11111111       0.00000000       0.50000000 </v>
    <v>       0.22222222       0.00000000       0.50000000 </v>
    <v>       0.33333333       0.00000000       0.50000000 </v>
    <v>       0.44444444       0.00000000       0.50000000 </v>
    <v>       0.00000000       0.11111111       0.50000000 </v>
    <v>       0.11111111       0.11111111       0.50000000 </v>
    <v>       0.22222222       0.11111111       0.50000000 </v>
    <v>       0.33333333       0.11111111       0.50000000 </v>
    <v>       0.44444444       0.11111111       0.50000000 </v>
    <v>       0.00000000       0.22222222       0.50000000 </v>
    <v>       0.11111111       0.22222222       0.50000000 </v>
    <v>       0.22222222       0.22222222       0.50000000 </v>
    <v>       0.33333333       0.22222222       0.50000000 </v>
    <v>       0.44444444       0.22222222       0.50000000 </v>
    <v>       0.00000000       0.33333333       0.50000000 </v>
    <v>       0.11111111       0.33333333       0.50000000 </v>
    <v>       0.22222222       0.33333333       0.50000000 </v>
    <v>       0.33333333       0.33333333       0.50000000 </v>
    <v>       0.44444444       0.33333333       0.50000000 </v>
    <v>       0.00000000       0.44444444       0.50000000 </v>
    <v>       0.11111111       0.44444444       0.50000000 </v>
    <v>       0.22222222       0.44444444       0.50000000 </v>
    <v>       0.33333333       0.44444444       0.50000000 </v>
    <v>       0.44444444       0.44444444       0.50000000 </v>
   </varray>
   <varray name="weights" >
    <v>       0.00205761 </v>
    <v>       0.00411523 </v>
    <v>       0.00411523 </v>
    <v>       0.00411523 </v>
    <v>       0.00411523 </v>
    <v>       0.00411523 </v>
    <v>       0.00823045 </v>
    <v>       0.00823045 </v>
    <v>       0.00823045 </v>
    <v>       0.00823045 </v>
    <v>       0.00411523 </v>
    <v>       0.00823045 </v>
    <v>       0.00823045 </v>
    <v>       0.00823045 </v>
    <v>       0.00823045 </v>
    <v>       0.00411523 </v>
    <v>       0.00823045 </v>
    <v>       0.00823045 </v>
    <v>       0.00823045 </v>
    <v>       0.00823045 </v>
    <v>       0.00411523 </v>
    <v>       0.00823045 </v>
    <v>       0.00823045 </v>
    <v>       0.00823045 </v>
    <v>       0.00823045 </v>
    <v>       0.00411523 </v>
    <v>       0.00823045 </v>
    <v>       0.00823045 </v>
    <v>       0.00823045 </v>
    <v>       0.00823045 </v>
    <v>       0.00823045 </v>
    <v>       0.01646091 </v>
    <v>       0.01646091 </v>
    <v>       0.01646091 </v>
    <v>       0.01646091 </v>
    <v>       0.00823045 </v>
    <v>       0.01646091 </v>
    <v>       0.01646091 </v>
    <v>       0.01646091 </v>
    <v>       0.01646091 </v>
    <v>       0.00823045 </v>
    <v>       0.01646091 </v>
    <v>       0.01646091 </v>
    <v>       0.01646091 </v>
    <v>       0.01646091 </v>
    <v>       0.00823045 </v>
    <v>       0.01646091 </v>
    <v>       0.01646091 </v>
    <v>       0.01646091 </v>
    <v>       0.01646091 </v>
    <v>       0.00411523 </v>
    <v>       0.00823045 </v>
    <v>       0.00823045 </v>
    <v>       0.00823045 </v>
    <v>       0.00823045 </v>
    <v>       0.00823045 </v>
    <v>       0.01646091 </v>
    <v>       0.01646091 </v>
    <v>       0.01646091 </v>
    <v>       0.01646091 </v>
    <v>       0.00823045 </v>
    <v>       0.01646091 </v>
    <v>       0.01646091 </v>
    <v>       0.01646091 </v>
    <v>       0.01646091 </v>
    <v>       0.00823045 </v>
    <v>       0.01646091 </v>
    <v>       0.01646091 </v>
    <v>       0.01646091 </v>
    <v>       0.01646091 </v>
    <v>       0.00823045 </v>
    <v>       0.01646091 </v>
    <v>       0.01646091 </v>
    <v>       0.01646091 </v>
    <v>       0.01646091 </v>
[...]
       <r>  -24.4179    1.0000 </r>
       <r>  -24.4179    1.0000 </r>
       <r>  -24.4143    1.0000 </r>
       <r>  -24.4139    1.0000 </r>
       <r>  -24.3987    1.0000 </r>
       <r>  -24.3984    1.0000 </r>
       <r>  -24.3365    1.0000 </r>
       <r>  -24.3362    1.0000 </r>
       <r>  -24.3208    1.0000 </r>
       <r>  -24.3204    1.0000 </r>
       <r>  -24.3178    1.0000 </r>
       <r>  -24.3178    1.0000 </r>
       <r>  -24.3175    1.0000 </r>
       <r>  -24.3175    1.0000 </r>
       <r>    1.9714    1.0000 </r>
       <r>    1.9717    1.0000 </r>
       <r>    2.4301    1.0000 </r>
       <r>    2.4304    1.0000 </r>
       <r>    2.4306    1.0000 </r>
       <r>    2.4306    1.0000 </r>
       <r>    2.8731    1.0000 </r>
       <r>    2.8735    1.0000 </r>
       <r>    6.2348    1.0000 </r>
       <r>    6.2349    1.0000 </r>
       <r>    6.4451    1.0000 </r>
       <r>    6.4453    1.0000 </r>
       <r>    6.4453    1.0000 </r>
       <r>    6.4453    1.0000 </r>
       <r>    6.5761    1.0000 </r>
       <r>    6.5762    1.0000 </r>
       <r>    7.7096    1.0000 </r>
       <r>    7.7098    1.0000 </r>
       <r>    7.7099    1.0000 </r>
       <r>    7.7099    1.0000 </r>
       <r>    7.7607    1.0001 </r>
       <r>    7.7611    1.0001 </r>
       <r>    8.0150    1.0203 </r>
       <r>    8.0150    1.0203 </r>
       <r>    8.0196    1.0214 </r>
       <r>    8.0197    1.0214 </r>
       <r>    8.2060    0.9616 </r>
       <r>    8.2061    0.9615 </r>
       <r>    8.2784    0.7721 </r>
       <r>    8.2786    0.7716 </r>
       <r>    8.2789    0.7705 </r>
       <r>    8.2789    0.7703 </r>
       <r>    8.6121   -0.0341 </r>
       <r>    8.6122   -0.0341 </r>
       <r>    8.6124   -0.0341 </r>
       <r>    8.6125   -0.0341 </r>
       <r>    8.6313   -0.0310 </r>
       <r>    8.6317   -0.0309 </r>
       <r>    8.6574   -0.0253 </r>
       <r>    8.6579   -0.0252 </r>
       <r>    8.9054   -0.0003 </r>
       <r>    8.9058   -0.0003 </r>
       <r>    8.9421   -0.0001 </r>
       <r>    8.9424   -0.0001 </r>
       <r>    8.9424   -0.0001 </r>
       <r>    8.9427   -0.0001 </r>
       <r>    8.9718   -0.0000 </r>
       <r>    8.9722   -0.0000 </r>
       <r>    9.0701   -0.0000 </r>
       <r>    9.0710   -0.0000 </r>
       <r>    9.0725   -0.0000 </r>
       <r>    9.0730   -0.0000 </r>
       <r>    9.0734   -0.0000 </r>
       <r>    9.0735   -0.0000 </r>
       <r>    9.0790   -0.0000 </r>
       <r>    9.0796   -0.0000 </r>
      </set>
     </set>
    </set>
   </array>
  </eigenvalues>
  <separator name="orbital magnetization" >
   <v name="MAGDIPOLOUT">      0.00000000      0.00000000      0.00000000</v>
  </separator>
  <dos>
   <i name="efermi">      8.34700024 </i>
   <total>
    <array>
     <dimension dim="1">gridpoints</dimension>
     <dimension dim="2">spin</dimension>
     <field>energy</field>
     <field>total</field>
     <field>integrated</field>
     <set>
      <set comment="spin 1">
       <r>   -51.0593     0.0000     0.0000 </r>
       <r>   -50.8488     0.0000     0.0000 </r>
       <r>   -50.6383     0.0000     0.0000 </r>
       <r>   -50.4279     0.0000     0.0000 </r>
       <r>   -50.2174     0.0000     0.0000 </r>
       <r>   -50.0069     0.0000     0.0000 </r>
       <r>   -49.7964    -0.0000    -0.0000 </r>
       <r>   -49.5860    -0.0000    -0.0000 </r>
       <r>   -49.3755    -0.0000    -0.0000 </r>
       <r>   -49.1650    -0.0000    -0.0000 </r>
       <r>   -48.9546    -0.0000    -0.0000 </r>
       <r>   -48.7441    -0.0058    -0.0012 </r>
       <r>   -48.5336    -0.5658    -0.1203 </r>
       <r>   -48.3231    -0.7009    -0.2678 </r>
       <r>   -48.1127    42.6092     8.7002 </r>
       <r>   -47.9022    36.7178    16.4282 </r>
       <r>   -47.6917    -1.6336    16.0844 </r>
       <r>   -47.4813    -0.3979    16.0007 </r>
       <r>   -47.2708    -0.0031    16.0000 </r>
       <r>   -47.0603    -0.0000    16.0000 </r>
       <r>   -46.8498    -0.0000    16.0000 </r>
       <r>   -46.6394    -0.0000    16.0000 </r>
       <r>   -46.4289     0.0000    16.0000 </r>
       <r>   -46.2184     0.0000    16.0000 </r>
       <r>   -46.0080     0.0000    16.0000 </r>
       <r>   -45.7975     0.0000    16.0000 </r>
       <r>   -45.5870     0.0000    16.0000 </r>
       <r>   -45.3766     0.0000    16.0000 </r>
       <r>   -45.1661     0.0000    16.0000 </r>
       <r>   -44.9556     0.0000    16.0000 </r>
       <r>   -44.7451     0.0000    16.0000 </r>
       <r>   -44.5347     0.0000    16.0000 </r>
       <r>   -44.3242     0.0000    16.0000 </r>
       <r>   -44.1137     0.0000    16.0000 </r>
       <r>   -43.9033     0.0000    16.0000 </r>
       <r>   -43.6928     0.0000    16.0000 </r>
       <r>   -43.4823     0.0000    16.0000 </r>
       <r>   -43.2718     0.0000    16.0000 </r>
       <r>   -43.0614     0.0000    16.0000 </r>
       <r>   -42.8509     0.0000    16.0000 </r>
       <r>   -42.6404     0.0000    16.0000 </r>
       <r>   -42.4300     0.0000    16.0000 </r>
       <r>   -42.2195     0.0000    16.0000 </r>
       <r>   -42.0090     0.0000    16.0000 </r>
       <r>   -41.7986     0.0000    16.0000 </r>
       <r>   -41.5881     0.0000    16.0000 </r>
       <r>   -41.3776     0.0000    16.0000 </r>
       <r>   -41.1671     0.0000    16.0000 </r>
       <r>   -40.9567     0.0000    16.0000 </r>
       <r>   -40.7462     0.0000    16.0000 </r>
       <r>   -40.5357     0.0000    16.0000 </r>
       <r>   -40.3253     0.0000    16.0000 </r>
       <r>   -40.1148     0.0000    16.0000 </r>
       <r>   -39.9043     0.0000    16.0000 </r>
       <r>   -39.6938     0.0000    16.0000 </r>
       <r>   -39.4834     0.0000    16.0000 </r>
       <r>   -39.2729     0.0000    16.0000 </r>
       <r>   -39.0624     0.0000    16.0000 </r>
       <r>   -38.8520     0.0000    16.0000 </r>
       <r>   -38.6415     0.0000    16.0000 </r>
       <r>   -38.4310     0.0000    16.0000 </r>
       <r>   -38.2205     0.0000    16.0000 </r>
       <r>   -38.0101     0.0000    16.0000 </r>
       <r>   -37.7996     0.0000    16.0000 </r>
       <r>   -37.5891     0.0000    16.0000 </r>
       <r>   -37.3787     0.0000    16.0000 </r>
       <r>   -37.1682     0.0000    16.0000 </r>
       <r>   -36.9577     0.0000    16.0000 </r>
       <r>   -36.7473     0.0000    16.0000 </r>
       <r>   -36.5368     0.0000    16.0000 </r>
       <r>   -36.3263     0.0000    16.0000 </r>
       <r>   -36.1158     0.0000    16.0000 </r>
       <r>   -35.9054     0.0000    16.0000 </r>
       <r>   -35.6949     0.0000    16.0000 </r>
       <r>   -35.4844     0.0000    16.0000 </r>
       <r>   -35.2740     0.0000    16.0000 </r>
       <r>   -35.0635     0.0000    16.0000 </r>
       <r>   -34.8530     0.0000    16.0000 </r>
       <r>   -34.6425     0.0000    16.0000 </r>
       <r>   -34.4321     0.0000    16.0000 </r>
       <r>   -34.2216     0.0000    16.0000 </r>
       <r>   -34.0111     0.0000    16.0000 </r>
       <r>   -33.8007     0.0000    16.0000 </r>
       <r>   -33.5902     0.0000    16.0000 </r>
       <r>   -33.3797     0.0000    16.0000 </r>
       <r>   -33.1692     0.0000    16.0000 </r>
       <r>   -32.9588     0.0000    16.0000 </r>
       <r>   -32.7483     0.0000    16.0000 </r>
       <r>   -32.5378     0.0000    16.0000 </r>
       <r>   -32.3274     0.0000    16.0000 </r>
       <r>   -32.1169     0.0000    16.0000 </r>
       <r>   -31.9064     0.0000    16.0000 </r>
       <r>   -31.6960     0.0000    16.0000 </r>
       <r>   -31.4855     0.0000    16.0000 </r>
       <r>   -31.2750     0.0000    16.0000 </r>
       <r>   -31.0645     0.0000    16.0000 </r>
       <r>   -30.8541     0.0000    16.0000 </r>
       <r>   -30.6436     0.0000    16.0000 </r>
       <r>   -30.4331     0.0000    16.0000 </r>
       <r>   -30.2227     0.0000    16.0000 </r>
       <r>   -30.0122     0.0000    16.0000 </r>
       <r>   -29.8017     0.0000    16.0000 </r>
       <r>   -29.5912     0.0000    16.0000 </r>
       <r>   -29.3808     0.0000    16.0000 </r>
       <r>   -29.1703     0.0000    16.0000 </r>
       <r>   -28.9598     0.0000    16.0000 </r>
       <r>   -28.7494     0.0000    16.0000 </r>
       <r>   -28.5389     0.0000    16.0000 </r>
       <r>   -28.3284     0.0000    16.0000 </r>
       <r>   -28.1179     0.0000    16.0000 </r>
       <r>   -27.9075     0.0000    16.0000 </r>
       <r>   -27.6970     0.0000    16.0000 </r>
       <r>   -27.4865     0.0000    16.0000 </r>
       <r>   -27.2761     0.0000    16.0000 </r>
       <r>   -27.0656     0.0000    16.0000 </r>
       <r>   -26.8551     0.0000    16.0000 </r>
       <r>   -26.6447     0.0000    16.0000 </r>
       <r>   -26.4342    -0.0000    16.0000 </r>
       <r>   -26.2237    -0.0000    16.0000 </r>
       <r>   -26.0132    -0.0000    16.0000 </r>
       <r>   -25.8028    -0.0000    16.0000 </r>
       <r>   -25.5923    -0.0000    16.0000 </r>
       <r>   -25.3818    -0.0000    16.0000 </r>
       <r>   -25.1714    -0.0106    15.9978 </r>
       <r>   -24.9609    -0.7876    15.8320 </r>
       <r>   -24.7504    -1.6310    15.4887 </r>
       <r>   -24.5399    59.1385    27.9356 </r>
       <r>   -24.3295   101.6932    49.3391 </r>
       <r>   -24.1190    52.9025    60.4735 </r>
       <r>   -23.9085    18.5271    64.3729 </r>
       <r>   -23.6981    -1.5780    64.0408 </r>
       <r>   -23.4876    -0.1926    64.0003 </r>
       <r>   -23.2771    -0.0012    64.0000 </r>
       <r>   -23.0667    -0.0000    64.0000 </r>
       <r>   -22.8562    -0.0000    64.0000 </r>
       <r>   -22.6457     0.0000    64.0000 </r>
       <r>   -22.4352     0.0000    64.0000 </r>
       <r>   -22.2248     0.0000    64.0000 </r>
       <r>   -22.0143     0.0000    64.0000 </r>
       <r>   -21.8038     0.0000    64.0000 </r>
       <r>   -21.5934     0.0000    64.0000 </r>
       <r>   -21.3829     0.0000    64.0000 </r>
       <r>   -21.1724     0.0000    64.0000 </r>
       <r>   -20.9619     0.0000    64.0000 </r>
       <r>   -20.7515     0.0000    64.0000 </r>
       <r>   -20.5410     0.0000    64.0000 </r>
       <r>   -20.3305     0.0000    64.0000 </r>
       <r>   -20.1201     0.0000    64.0000 </r>
       <r>   -19.9096     0.0000    64.0000 </r>
       <r>   -19.6991     0.0000    64.0000 </r>
       <r>   -19.4886     0.0000    64.0000 </r>
       <r>   -19.2782     0.0000    64.0000 </r>
       <r>   -19.0677     0.0000    64.0000 </r>
       <r>   -18.8572     0.0000    64.0000 </r>
       <r>   -18.6468     0.0000    64.0000 </r>
       <r>   -18.4363     0.0000    64.0000 </r>
       <r>   -18.2258     0.0000    64.0000 </r>
       <r>   -18.0154     0.0000    64.0000 </r>
       <r>   -17.8049     0.0000    64.0000 </r>
       <r>   -17.5944     0.0000    64.0000 </r>
       <r>   -17.3839     0.0000    64.0000 </r>
       <r>   -17.1735     0.0000    64.0000 </r>
       <r>   -16.9630     0.0000    64.0000 </r>
       <r>   -16.7525     0.0000    64.0000 </r>
       <r>   -16.5421     0.0000    64.0000 </r>
       <r>   -16.3316     0.0000    64.0000 </r>
       <r>   -16.1211     0.0000    64.0000 </r>
       <r>   -15.9106     0.0000    64.0000 </r>
       <r>   -15.7002     0.0000    64.0000 </r>
       <r>   -15.4897     0.0000    64.0000 </r>
       <r>   -15.2792     0.0000    64.0000 </r>
       <r>   -15.0688     0.0000    64.0000 </r>
       <r>   -14.8583     0.0000    64.0000 </r>
       <r>   -14.6478     0.0000    64.0000 </r>
       <r>   -14.4373     0.0000    64.0000 </r>
       <r>   -14.2269     0.0000    64.0000 </r>
       <r>   -14.0164     0.0000    64.0000 </r>
       <r>   -13.8059     0.0000    64.0000 </r>
       <r>   -13.5955     0.0000    64.0000 </r>
       <r>   -13.3850     0.0000    64.0000 </r>
       <r>   -13.1745     0.0000    64.0000 </r>
       <r>   -12.9641     0.0000    64.0000 </r>
       <r>   -12.7536     0.0000    64.0000 </r>
       <r>   -12.5431     0.0000    64.0000 </r>
       <r>   -12.3326     0.0000    64.0000 </r>
       <r>   -12.1222     0.0000    64.0000 </r>
       <r>   -11.9117     0.0000    64.0000 </r>
       <r>   -11.7012     0.0000    64.0000 </r>
       <r>   -11.4908     0.0000    64.0000 </r>
       <r>   -11.2803     0.0000    64.0000 </r>
       <r>   -11.0698     0.0000    64.0000 </r>
       <r>   -10.8593     0.0000    64.0000 </r>
       <r>   -10.6489     0.0000    64.0000 </r>
       <r>   -10.4384     0.0000    64.0000 </r>
       <r>   -10.2279     0.0000    64.0000 </r>
       <r>   -10.0175     0.0000    64.0000 </r>
       <r>    -9.8070     0.0000    64.0000 </r>
       <r>    -9.5965     0.0000    64.0000 </r>
       <r>    -9.3860     0.0000    64.0000 </r>
       <r>    -9.1756     0.0000    64.0000 </r>
       <r>    -8.9651     0.0000    64.0000 </r>
       <r>    -8.7546     0.0000    64.0000 </r>
       <r>    -8.5442     0.0000    64.0000 </r>
       <r>    -8.3337     0.0000    64.0000 </r>
       <r>    -8.1232     0.0000    64.0000 </r>
       <r>    -7.9128     0.0000    64.0000 </r>
       <r>    -7.7023     0.0000    64.0000 </r>
       <r>    -7.4918     0.0000    64.0000 </r>
       <r>    -7.2813     0.0000    64.0000 </r>
       <r>    -7.0709     0.0000    64.0000 </r>
       <r>    -6.8604     0.0000    64.0000 </r>
       <r>    -6.6499     0.0000    64.0000 </r>
       <r>    -6.4395     0.0000    64.0000 </r>
       <r>    -6.2290     0.0000    64.0000 </r>
       <r>    -6.0185     0.0000    64.0000 </r>
       <r>    -5.8080     0.0000    64.0000 </r>
       <r>    -5.5976     0.0000    64.0000 </r>
       <r>    -5.3871     0.0000    64.0000 </r>
       <r>    -5.1766     0.0000    64.0000 </r>
       <r>    -4.9662     0.0000    64.0000 </r>
       <r>    -4.7557     0.0000    64.0000 </r>
       <r>    -4.5452     0.0000    64.0000 </r>
       <r>    -4.3348     0.0000    64.0000 </r>
       <r>    -4.1243     0.0000    64.0000 </r>
       <r>    -3.9138     0.0000    64.0000 </r>
       <r>    -3.7033     0.0000    64.0000 </r>
       <r>    -3.4929     0.0000    64.0000 </r>
       <r>    -3.2824     0.0000    64.0000 </r>
       <r>    -3.0719     0.0000    64.0000 </r>
       <r>    -2.8615     0.0000    64.0000 </r>
       <r>    -2.6510     0.0000    64.0000 </r>
       <r>    -2.4405     0.0000    64.0000 </r>
       <r>    -2.2300     0.0000    64.0000 </r>
       <r>    -2.0196    -0.0000    64.0000 </r>
       <r>    -1.8091    -0.0000    64.0000 </r>
       <r>    -1.5986    -0.0000    64.0000 </r>
       <r>    -1.3882    -0.0000    64.0000 </r>
       <r>    -1.1777    -0.0000    64.0000 </r>
       <r>    -0.9672    -0.0000    64.0000 </r>
       <r>    -0.7567    -0.0007    63.9998 </r>
       <r>    -0.5463    -0.0129    63.9971 </r>
       <r>    -0.3358     0.0740    64.0127 </r>
       <r>    -0.1253     0.5400    64.1264 </r>
       <r>     0.0851     0.9660    64.3297 </r>
       <r>     0.2956     1.2887    64.6009 </r>
       <r>     0.5061     1.5136    64.9195 </r>
       <r>     0.7165     1.7635    65.2906 </r>
       <r>     0.9270     2.1505    65.7432 </r>
       <r>     1.1375     2.1724    66.2005 </r>
       <r>     1.3480     3.0155    66.8351 </r>
       <r>     1.5584     2.9126    67.4482 </r>
       <r>     1.7689     2.9310    68.0651 </r>
       <r>     1.9794     3.2134    68.7414 </r>
       <r>     2.1898     3.2051    69.4160 </r>
       <r>     2.4003     2.9418    70.0351 </r>
       <r>     2.6108     3.1813    70.7047 </r>
       <r>     2.8213     3.6843    71.4801 </r>
       <r>     3.0317     3.1066    72.1340 </r>
       <r>     3.2422     3.2857    72.8255 </r>
       <r>     3.4527     3.8070    73.6268 </r>
       <r>     3.6631     4.5771    74.5901 </r>
       <r>     3.8736     4.7879    75.5979 </r>
       <r>     4.0841     4.0011    76.4400 </r>
       <r>     4.2946     4.8670    77.4643 </r>
       <r>     4.5050     4.3884    78.3880 </r>
       <r>     4.7155     4.2699    79.2867 </r>
       <r>     4.9260     3.8288    80.0925 </r>
       <r>     5.1364     5.7387    81.3004 </r>
       <r>     5.3469     6.0960    82.5834 </r>
       <r>     5.5574     5.5492    83.7513 </r>
       <r>     5.7678     5.7357    84.9585 </r>
       <r>     5.9783     7.9700    86.6360 </r>
       <r>     6.1888    10.4907    88.8440 </r>
       <r>     6.3993    12.0622    91.3827 </r>
       <r>     6.6097    12.0606    93.9211 </r>
       <r>     6.8202    14.1810    96.9058 </r>
       <r>     7.0307    18.1177   100.7191 </r>
       <r>     7.2411    16.1360   104.1152 </r>
       <r>     7.4516     9.2474   106.0615 </r>
       <r>     7.6621    12.4835   108.6889 </r>
       <r>     7.8726    16.7078   112.2054 </r>
       <r>     8.0830    19.8824   116.3901 </r>
       <r>     8.2935    25.7803   121.8161 </r>
       <r>     8.5040    23.8331   126.8323 </r>
       <r>     8.7144    32.0341   133.5745 </r>
       <r>     8.9249    83.1919   151.0840 </r>
       <r>     9.1354   102.4984   172.6569 </r>
       <r>     9.3458    18.7785   176.6092 </r>
       <r>     9.5563    -2.7512   176.0302 </r>
       <r>     9.7668    -0.1427   176.0002 </r>
       <r>     9.9773    -0.0007   176.0000 </r>
       <r>    10.1877    -0.0000   176.0000 </r>
       <r>    10.3982    -0.0000   176.0000 </r>
       <r>    10.6087    -0.0000   176.0000 </r>
       <r>    10.8191     0.0000   176.0000 </r>
       <r>    11.0296     0.0000   176.0000 </r>
       <r>    11.2401     0.0000   176.0000 </r>
       <r>    11.4506     0.0000   176.0000 </r>
       <r>    11.6610     0.0000   176.0000 </r>
       <r>    11.8715     0.0000   176.0000 </r>
       <r>    12.0820     0.0000   176.0000 </r>
      </set>
     </set>
    </array>
   </total>
  </dos>
 </calculation>
 <structure name="finalpos" >
  <crystal>
   <varray name="basis" >
    <v>       5.58242785       0.00000000       0.00000000 </v>
    <v>       0.00000000       5.58242785       0.00000000 </v>
    <v>       0.00000000       0.00000000       8.02249218 </v>
   </varray>
   <i name="volume">    250.00894043 </i>
   <varray name="rec_basis" >
    <v>       0.17913353       0.00000000       0.00000000 </v>
    <v>       0.00000000       0.17913353       0.00000000 </v>
    <v>       0.00000000       0.00000000       0.12464955 </v>
   </varray>
  </crystal>
  <varray name="positions" >
   <v>       0.00000000       0.00000000       0.00000000 </v>
   <v>       0.00000000       0.00000000       0.50000000 </v>
   <v>       0.00000000       0.50000000       0.00000000 </v>
   <v>       0.00000000       0.50000000       0.50000000 </v>
   <v>       0.50000000       0.00000000       0.00000000 </v>
   <v>       0.50000000       0.00000000       0.50000000 </v>
   <v>       0.50000000       0.50000000       0.00000000 </v>
   <v>       0.50000000       0.50000000       0.50000000 </v>
   <v>       0.25000000       0.25000000       0.25000000 </v>
   <v>       0.25000000       0.25000000       0.75000000 </v>
   <v>       0.25000000       0.75000000       0.25000000 </v>
   <v>       0.25000000       0.75000000       0.75000000 </v>
   <v>       0.75000000       0.25000000       0.25000000 </v>
   <v>       0.75000000       0.25000000       0.75000000 </v>
   <v>       0.75000000       0.75000000       0.25000000 </v>
   <v>       0.75000000       0.75000000       0.75000000 </v>
   <v>       0.25000000       0.25000000       0.24813026 </v>
   <v>       0.25000000       0.25000000       0.75000000 </v>
   <v>       0.25000000       0.75000000       0.25000000 </v>
   <v>       0.25000000       0.75000000       0.75000000 </v>
   <v>       0.75000000       0.25000000       0.25000000 </v>
   <v>       0.75000000       0.25000000       0.75000000 </v>
   <v>       0.75000000       0.75000000       0.25000000 </v>
   <v>       0.75000000       0.75000000       0.75000000 </v>
  </varray>
 </structure>
</modeling>
