  32  32   0   0
  0.4650075E+02  0.7983640E-09  0.8109983E-09  0.2298207E-08  0.5000000E-15
  1.000000000000000E-004
  CAR 
 unknown system                          
      7.09060008    -59.81358348  301      0.60003256      1.00000000
    -59.814  0.0000E+00  0.0000E+00
    -59.591  0.0000E+00  0.0000E+00
    -59.368  0.0000E+00  0.0000E+00
    -59.145  0.0000E+00  0.0000E+00
    -58.922  0.0000E+00  0.0000E+00
    -58.699  0.0000E+00  0.0000E+00
    -58.475  0.0000E+00  0.0000E+00
    -58.252  0.0000E+00  0.0000E+00
    -58.029  0.0000E+00  0.0000E+00
    -57.806  0.0000E+00  0.0000E+00
    -57.583 -0.1090E-26 -0.2431E-27
    -57.360 -0.2723E-13 -0.6073E-14
    -57.137 -0.2779E-04 -0.6197E-05
    -56.914 -0.5555E+00 -0.1239E+00
    -56.691  0.1835E+02  0.3969E+01
    -56.468 -0.5861E+00  0.3838E+01
    -56.245  0.3684E+02  0.1205E+02
    -56.022  0.7229E+02  0.2818E+02
    -55.799  0.1767E+02  0.3212E+02
    -55.576 -0.5243E+00  0.3200E+02
    -55.353 -0.2012E-04  0.3200E+02
    -55.130  0.0000E+00  0.3200E+02
    -54.907  0.0000E+00  0.3200E+02
    -54.684  0.0000E+00  0.3200E+02
    -54.461  0.0000E+00  0.3200E+02
    -54.238  0.0000E+00  0.3200E+02
    -54.015  0.0000E+00  0.3200E+02
    -53.792  0.0000E+00  0.3200E+02
    -53.569  0.0000E+00  0.3200E+02
    -53.346  0.0000E+00  0.3200E+02
    -53.123  0.0000E+00  0.3200E+02
    -52.900  0.0000E+00  0.3200E+02
    -52.677  0.0000E+00  0.3200E+02
    -52.454  0.0000E+00  0.3200E+02
    -52.231  0.0000E+00  0.3200E+02
    -52.008  0.0000E+00  0.3200E+02
    -51.785  0.0000E+00  0.3200E+02
    -51.562  0.0000E+00  0.3200E+02
    -51.339  0.0000E+00  0.3200E+02
    -51.116  0.0000E+00  0.3200E+02
    -50.893  0.0000E+00  0.3200E+02
    -50.670  0.0000E+00  0.3200E+02
    -50.447  0.0000E+00  0.3200E+02
    -50.224  0.0000E+00  0.3200E+02
    -50.001  0.0000E+00  0.3200E+02
    -49.778  0.0000E+00  0.3200E+02
    -49.555  0.0000E+00  0.3200E+02
    -49.332  0.0000E+00  0.3200E+02
    -49.109  0.0000E+00  0.3200E+02
    -48.886  0.0000E+00  0.3200E+02
    -48.663  0.0000E+00  0.3200E+02
    -48.440  0.0000E+00  0.3200E+02
    -48.217  0.0000E+00  0.3200E+02
    -47.994  0.0000E+00  0.3200E+02
    -47.771  0.0000E+00  0.3200E+02
    -47.548  0.0000E+00  0.3200E+02
    -47.325  0.0000E+00  0.3200E+02
    -47.102  0.0000E+00  0.3200E+02
    -46.879  0.0000E+00  0.3200E+02
    -46.656  0.0000E+00  0.3200E+02
    -46.433  0.0000E+00  0.3200E+02
    -46.210  0.0000E+00  0.3200E+02
    -45.987  0.0000E+00  0.3200E+02
    -45.764  0.0000E+00  0.3200E+02
    -45.541  0.0000E+00  0.3200E+02
    -45.318  0.0000E+00  0.3200E+02
    -45.095  0.0000E+00  0.3200E+02
    -44.872  0.0000E+00  0.3200E+02
    -44.649  0.0000E+00  0.3200E+02
    -44.426  0.0000E+00  0.3200E+02
    -44.203  0.0000E+00  0.3200E+02
    -43.980  0.0000E+00  0.3200E+02
    -43.757  0.0000E+00  0.3200E+02
    -43.534  0.0000E+00  0.3200E+02
    -43.311  0.0000E+00  0.3200E+02
    -43.088  0.0000E+00  0.3200E+02
    -42.865  0.0000E+00  0.3200E+02
    -42.642  0.0000E+00  0.3200E+02
    -42.418  0.0000E+00  0.3200E+02
    -42.195  0.0000E+00  0.3200E+02
    -41.972  0.0000E+00  0.3200E+02
    -41.749  0.0000E+00  0.3200E+02
    -41.526  0.0000E+00  0.3200E+02
    -41.303  0.0000E+00  0.3200E+02
    -41.080  0.0000E+00  0.3200E+02
    -40.857  0.0000E+00  0.3200E+02
    -40.634  0.0000E+00  0.3200E+02
    -40.411  0.0000E+00  0.3200E+02
    -40.188  0.0000E+00  0.3200E+02
    -39.965  0.0000E+00  0.3200E+02
    -39.742  0.0000E+00  0.3200E+02
    -39.519  0.0000E+00  0.3200E+02
    -39.296  0.0000E+00  0.3200E+02
    -39.073  0.0000E+00  0.3200E+02
    -38.850  0.0000E+00  0.3200E+02
    -38.627  0.0000E+00  0.3200E+02
    -38.404  0.0000E+00  0.3200E+02
    -38.181  0.0000E+00  0.3200E+02
    -37.958  0.0000E+00  0.3200E+02
    -37.735  0.0000E+00  0.3200E+02
    -37.512  0.0000E+00  0.3200E+02
    -37.289  0.0000E+00  0.3200E+02
    -37.066  0.0000E+00  0.3200E+02
    -36.843  0.0000E+00  0.3200E+02
    -36.620  0.0000E+00  0.3200E+02
    -36.397  0.0000E+00  0.3200E+02
    -36.174  0.0000E+00  0.3200E+02
    -35.951  0.0000E+00  0.3200E+02
    -35.728  0.0000E+00  0.3200E+02
    -35.505  0.0000E+00  0.3200E+02
    -35.282  0.0000E+00  0.3200E+02
    -35.059  0.0000E+00  0.3200E+02
    -34.836  0.0000E+00  0.3200E+02
    -34.613  0.0000E+00  0.3200E+02
    -34.390  0.0000E+00  0.3200E+02
    -34.167  0.0000E+00  0.3200E+02
    -33.944 -0.1310E-26  0.3200E+02
    -33.721 -0.3049E-13  0.3200E+02
    -33.498 -0.2920E-04  0.3200E+02
    -33.275 -0.6513E+00  0.3185E+02
    -33.052  0.2864E+02  0.3824E+02
    -32.829  0.3670E+02  0.4643E+02
    -32.606  0.4692E+02  0.5689E+02
    -32.383  0.1904E+03  0.9936E+02
    -32.160  0.8596E+02  0.1185E+03
    -31.937  0.4343E+02  0.1282E+03
    -31.714 -0.9843E+00  0.1280E+03
    -31.491 -0.2002E-03  0.1280E+03
    -31.268 -0.7486E-12  0.1280E+03
    -31.045  0.0000E+00  0.1280E+03
    -30.822  0.0000E+00  0.1280E+03
    -30.599  0.0000E+00  0.1280E+03
    -30.376  0.0000E+00  0.1280E+03
    -30.153  0.0000E+00  0.1280E+03
    -29.930  0.0000E+00  0.1280E+03
    -29.707  0.0000E+00  0.1280E+03
    -29.484  0.0000E+00  0.1280E+03
    -29.261  0.0000E+00  0.1280E+03
    -29.038  0.0000E+00  0.1280E+03
    -28.815  0.0000E+00  0.1280E+03
    -28.592  0.0000E+00  0.1280E+03
    -28.369  0.0000E+00  0.1280E+03
    -28.146  0.0000E+00  0.1280E+03
    -27.923  0.0000E+00  0.1280E+03
    -27.700  0.0000E+00  0.1280E+03
    -27.477  0.0000E+00  0.1280E+03
    -27.254  0.0000E+00  0.1280E+03
    -27.031  0.0000E+00  0.1280E+03
    -26.808  0.0000E+00  0.1280E+03
    -26.585  0.0000E+00  0.1280E+03
    -26.361  0.0000E+00  0.1280E+03
    -26.138  0.0000E+00  0.1280E+03
    -25.915  0.0000E+00  0.1280E+03
    -25.692  0.0000E+00  0.1280E+03
    -25.469  0.0000E+00  0.1280E+03
    -25.246  0.0000E+00  0.1280E+03
    -25.023  0.0000E+00  0.1280E+03
    -24.800  0.0000E+00  0.1280E+03
    -24.577  0.0000E+00  0.1280E+03
    -24.354  0.0000E+00  0.1280E+03
    -24.131  0.0000E+00  0.1280E+03
    -23.908  0.0000E+00  0.1280E+03
    -23.685  0.0000E+00  0.1280E+03
    -23.462  0.0000E+00  0.1280E+03
    -23.239  0.0000E+00  0.1280E+03
    -23.016  0.0000E+00  0.1280E+03
    -22.793  0.0000E+00  0.1280E+03
    -22.570  0.0000E+00  0.1280E+03
    -22.347  0.0000E+00  0.1280E+03
    -22.124  0.0000E+00  0.1280E+03
    -21.901  0.0000E+00  0.1280E+03
    -21.678  0.0000E+00  0.1280E+03
    -21.455  0.0000E+00  0.1280E+03
    -21.232  0.0000E+00  0.1280E+03
    -21.009  0.0000E+00  0.1280E+03
    -20.786  0.0000E+00  0.1280E+03
    -20.563  0.0000E+00  0.1280E+03
    -20.340  0.0000E+00  0.1280E+03
    -20.117  0.0000E+00  0.1280E+03
    -19.894  0.0000E+00  0.1280E+03
    -19.671  0.0000E+00  0.1280E+03
    -19.448  0.0000E+00  0.1280E+03
    -19.225  0.0000E+00  0.1280E+03
    -19.002  0.0000E+00  0.1280E+03
    -18.779  0.0000E+00  0.1280E+03
    -18.556  0.0000E+00  0.1280E+03
    -18.333  0.0000E+00  0.1280E+03
    -18.110  0.0000E+00  0.1280E+03
    -17.887  0.0000E+00  0.1280E+03
    -17.664  0.0000E+00  0.1280E+03
    -17.441  0.0000E+00  0.1280E+03
    -17.218  0.0000E+00  0.1280E+03
    -16.995  0.0000E+00  0.1280E+03
    -16.772  0.0000E+00  0.1280E+03
    -16.549  0.0000E+00  0.1280E+03
    -16.326  0.0000E+00  0.1280E+03
    -16.103  0.0000E+00  0.1280E+03
    -15.880  0.0000E+00  0.1280E+03
    -15.657  0.0000E+00  0.1280E+03
    -15.434  0.0000E+00  0.1280E+03
    -15.211  0.0000E+00  0.1280E+03
    -14.988  0.0000E+00  0.1280E+03
    -14.765 -0.4146E-34  0.1280E+03
    -14.542 -0.8949E-19  0.1280E+03
    -14.319 -0.8618E-08  0.1280E+03
    -14.096 -0.3516E-01  0.1280E+03
    -13.873  0.8125E+01  0.1298E+03
    -13.650  0.6618E+02  0.1446E+03
    -13.427  0.1551E+02  0.1480E+03
    -13.204 -0.1028E+00  0.1480E+03
    -12.981 -0.1138E-06  0.1480E+03
    -12.758  0.0000E+00  0.1480E+03
    -12.535  0.0000E+00  0.1480E+03
    -12.312  0.0000E+00  0.1480E+03
    -12.089  0.0000E+00  0.1480E+03
    -11.866  0.0000E+00  0.1480E+03
    -11.643  0.0000E+00  0.1480E+03
    -11.420  0.0000E+00  0.1480E+03
    -11.197  0.0000E+00  0.1480E+03
    -10.974  0.0000E+00  0.1480E+03
    -10.751  0.0000E+00  0.1480E+03
    -10.528  0.0000E+00  0.1480E+03
    -10.304  0.0000E+00  0.1480E+03
    -10.081  0.0000E+00  0.1480E+03
     -9.858  0.0000E+00  0.1480E+03
     -9.635  0.0000E+00  0.1480E+03
     -9.412  0.0000E+00  0.1480E+03
     -9.189  0.0000E+00  0.1480E+03
     -8.966 -0.4374E-32  0.1480E+03
     -8.743 -0.1280E-17  0.1480E+03
     -8.520 -0.1489E-07  0.1480E+03
     -8.297 -0.5139E-02  0.1480E+03
     -8.074  0.3406E+00  0.1481E+03
     -7.851  0.3434E+01  0.1488E+03
     -7.628  0.2721E+01  0.1494E+03
     -7.405  0.2510E+01  0.1500E+03
     -7.182  0.3238E+01  0.1507E+03
     -6.959  0.2989E+01  0.1514E+03
     -6.736  0.7275E+01  0.1530E+03
     -6.513  0.4601E+01  0.1540E+03
     -6.290  0.3073E+01  0.1547E+03
     -6.067  0.3511E+01  0.1555E+03
     -5.844  0.9054E+01  0.1575E+03
     -5.621  0.3598E+01  0.1583E+03
     -5.398  0.7695E+01  0.1601E+03
     -5.175  0.8442E+01  0.1619E+03
     -4.952  0.4323E+01  0.1629E+03
     -4.729  0.5944E+01  0.1642E+03
     -4.506  0.2356E+01  0.1647E+03
     -4.283  0.8990E+01  0.1668E+03
     -4.060  0.1212E+02  0.1695E+03
     -3.837  0.8477E+01  0.1713E+03
     -3.614  0.1280E+02  0.1742E+03
     -3.391  0.9850E+01  0.1764E+03
     -3.168  0.3314E+01  0.1771E+03
     -2.945  0.7366E+01  0.1788E+03
     -2.722  0.8489E+01  0.1807E+03
     -2.499  0.1057E+02  0.1830E+03
     -2.276  0.9629E+01  0.1852E+03
     -2.053  0.1009E+02  0.1874E+03
     -1.830  0.1604E+02  0.1910E+03
     -1.607  0.1656E+02  0.1947E+03
     -1.384  0.1669E+02  0.1984E+03
     -1.161  0.2735E+02  0.2045E+03
     -0.938  0.2155E+02  0.2093E+03
     -0.715  0.2695E+02  0.2153E+03
     -0.492  0.2620E+02  0.2212E+03
     -0.269  0.2707E+02  0.2272E+03
     -0.046  0.2769E+02  0.2334E+03
      0.177  0.4083E+02  0.2425E+03
      0.400  0.4483E+02  0.2525E+03
      0.623  0.3787E+02  0.2609E+03
      0.846  0.4049E+02  0.2700E+03
      1.069  0.3611E+02  0.2780E+03
      1.292  0.3625E+02  0.2861E+03
      1.515  0.3284E+02  0.2934E+03
      1.738  0.3415E+02  0.3010E+03
      1.961  0.4406E+02  0.3109E+03
      2.184  0.5732E+02  0.3237E+03
      2.407  0.5137E+02  0.3351E+03
      2.630  0.5898E+02  0.3483E+03
      2.853  0.3445E+02  0.3559E+03
      3.076  0.2856E+02  0.3623E+03
      3.299  0.3053E+02  0.3691E+03
      3.522  0.3087E+02  0.3760E+03
      3.745  0.1556E+02  0.3795E+03
      3.968  0.1789E+02  0.3835E+03
      4.191  0.2411E+01  0.3840E+03
      4.414 -0.4236E-01  0.3840E+03
      4.637 -0.1768E-05  0.3840E+03
      4.860  0.0000E+00  0.3840E+03
      5.083  0.0000E+00  0.3840E+03
      5.306  0.0000E+00  0.3840E+03
      5.530  0.0000E+00  0.3840E+03
      5.753  0.0000E+00  0.3840E+03
      5.976  0.0000E+00  0.3840E+03
      6.199  0.0000E+00  0.3840E+03
      6.422  0.0000E+00  0.3840E+03
      6.645  0.0000E+00  0.3840E+03
      6.868  0.0000E+00  0.3840E+03
      7.091  0.0000E+00  0.3840E+03
