   32   32    1    1
  0.4650075E+02  0.7983640E-09  0.8109982E-09  0.2298207E-08  0.5000000E-15
  1.000000000000000E-004
  CAR 
 unknown system                          
    260      9    192
 
  0.1276756E-14  0.1276756E-14  0.1276756E-14  0.6250000E-01
      1        -56.772484   1.000000
      2        -56.772080   1.000000
      3        -56.333523   1.000000
      4        -56.333058   1.000000
      5        -56.246657   1.000000
      6        -56.246163   1.000000
      7        -56.242566   1.000000
      8        -56.242114   1.000000
      9        -56.173168   1.000000
     10        -56.172641   1.000000
     11        -56.168297   1.000000
     12        -56.167808   1.000000
     13        -56.092719   1.000000
     14        -56.092230   1.000000
     15        -55.946265   1.000000
     16        -55.945758   1.000000
     17        -33.137810   1.000000
     18        -33.128362   1.000000
     19        -33.063166   1.000000
     20        -33.062029   1.000000
     21        -32.959300   1.000000
     22        -32.958479   1.000000
     23        -32.840140   1.000000
     24        -32.838878   1.000000
     25        -32.632509   1.000000
     26        -32.630986   1.000000
     27        -32.623259   1.000000
     28        -32.621696   1.000000
     29        -32.589393   1.000000
     30        -32.580502   1.000000
     31        -32.576065   1.000000
     32        -32.573416   1.000000
     33        -32.569064   1.000000
     34        -32.560296   1.000000
     35        -32.550964   1.000000
     36        -32.550602   1.000000
     37        -32.549300   1.000000
     38        -32.548412   1.000000
     39        -32.528821   1.000000
     40        -32.527578   1.000000
     41        -32.516178   1.000000
     42        -32.515016   1.000000
     43        -32.497952   1.000000
     44        -32.496382   1.000000
     45        -32.485655   1.000000
     46        -32.473414   1.000000
     47        -32.400601   1.000000
     48        -32.399071   1.000000
     49        -32.392524   1.000000
     50        -32.391543   1.000000
     51        -32.354592   1.000000
     52        -32.342567   1.000000
     53        -32.342132   1.000000
     54        -32.339510   1.000000
     55        -32.298926   1.000000
     56        -32.297830   1.000000
     57        -32.204352   1.000000
     58        -32.203664   1.000000
     59        -32.181168   1.000000
     60        -32.180285   1.000000
     61        -32.102076   1.000000
     62        -32.101279   1.000000
     63        -32.051700   1.000000
     64        -32.050771   1.000000
     65        -13.857089   1.000000
     66        -13.843390   1.000000
     67        -13.825776   1.000000
     68        -13.825244   1.000000
     69        -13.794669   1.000000
     70        -13.682711   1.000000
     71        -13.676776   1.000000
     72        -13.672594   1.000000
     73        -13.670590   1.000000
     74        -13.632825   1.000000
     75         -8.101403   1.000000
     76         -6.854703   1.000000
     77         -6.701095   1.000000
     78         -5.832170   1.000000
     79         -5.643792   1.000000
     80         -5.465917   1.000000
     81         -4.981073   1.000000
     82         -4.890109   1.000000
     83         -4.828184   1.000000
     84         -4.429012   1.000000
     85         -4.263150   1.000000
     86         -4.144285   1.000000
     87         -4.118907   1.000000
     88         -3.707775   1.000000
     89         -3.668463   1.000000
     90         -3.027462   1.000000
     91         -2.839949   1.000000
     92         -2.429735   1.000000
     93         -2.392798   1.000000
     94         -1.924750   1.000000
     95         -1.920906   1.000000
     96         -1.830856   1.000000
     97         -1.707865   1.000000
     98         -1.482785   1.000000
     99         -1.364429   1.000000
    100         -1.300443   1.000000
    101         -1.189211   1.000000
    102         -1.047334   1.000000
    103         -0.874086   1.000000
    104         -0.868080   1.000000
    105         -0.863350   1.000000
    106         -0.701609   1.000000
    107         -0.679235   1.000000
    108         -0.638570   1.000000
    109         -0.603852   1.000000
    110         -0.513944   1.000000
    111         -0.486736   1.000000
    112         -0.348211   1.000000
    113         -0.243369   1.000000
    114         -0.158271   1.000000
    115         -0.128898   1.000000
    116         -0.109532   1.000000
    117         -0.004867   1.000000
    118          0.049136   1.000000
    119          0.050059   1.000000
    120          0.104187   1.000000
    121          0.206237   1.000000
    122          0.273889   1.000020
    123          0.276535   1.000024
    124          0.283216   1.000035
    125          0.310287   1.000164
    126          0.410075   1.010908
    127          0.414350   1.012345
    128          0.433040   1.019876
    129          0.452229   1.028619
    130          0.578603   0.676817
    131          0.579229   0.671899
    132          0.596371   0.530965
    133          0.686609  -0.005012
    134          0.715191  -0.034548
    135          0.836330  -0.002089
    136          0.977501  -0.000001
    137          0.990592  -0.000000
    138          1.022673  -0.000000
    139          1.043665  -0.000000
    140          1.104859  -0.000000
    141          1.112702  -0.000000
    142          1.202029  -0.000000
    143          1.268980  -0.000000
    144          1.340460  -0.000000
    145          1.353581  -0.000000
    146          1.381822  -0.000000
    147          1.540929  -0.000000
    148          1.582928  -0.000000
    149          1.606479  -0.000000
    150          1.731722  -0.000000
    151          1.856071  -0.000000
    152          1.864584  -0.000000
    153          1.887485  -0.000000
    154          1.915347  -0.000000
    155          1.949405  -0.000000
    156          1.975055  -0.000000
    157          1.997778  -0.000000
    158          2.015248  -0.000000
    159          2.018127  -0.000000
    160          2.065990  -0.000000
    161          2.090465  -0.000000
    162          2.103667  -0.000000
    163          2.126419  -0.000000
    164          2.243284  -0.000000
    165          2.248907  -0.000000
    166          2.269805  -0.000000
    167          2.275476  -0.000000
    168          2.369391  -0.000000
    169          2.391082  -0.000000
    170          2.396101  -0.000000
    171          2.398695  -0.000000
    172          2.427019  -0.000000
    173          2.502740  -0.000000
    174          2.514097  -0.000000
    175          2.561804  -0.000000
    176          2.573225  -0.000000
    177          2.585883  -0.000000
    178          2.589754  -0.000000
    179          2.668503   0.000000
    180          2.668707   0.000000
    181          2.671321   0.000000
    182          2.734585   0.000000
    183          3.037059   0.000000
    184          3.247279   0.000000
    185          3.343748   0.000000
    186          3.357991   0.000000
    187          3.378753   0.000000
    188          3.513560   0.000000
    189          3.581371   0.000000
    190          3.694091   0.000000
    191          3.901183   0.000000
    192          3.984748   0.000000
 
  0.2500000E+00  0.1276756E-14  0.1276756E-14  0.1250000E+00
      1        -56.772484   1.000000
      2        -56.772081   1.000000
      3        -56.333514   1.000000
      4        -56.333050   1.000000
      5        -56.246217   1.000000
      6        -56.245729   1.000000
      7        -56.242979   1.000000
      8        -56.242522   1.000000
      9        -56.172610   1.000000
     10        -56.172090   1.000000
     11        -56.169056   1.000000
     12        -56.168562   1.000000
     13        -56.092526   1.000000
     14        -56.092039   1.000000
     15        -55.946296   1.000000
     16        -55.945790   1.000000
     17        -33.137810   1.000000
     18        -33.128361   1.000000
     19        -33.063121   1.000000
     20        -33.061989   1.000000
     21        -32.959244   1.000000
     22        -32.958427   1.000000
     23        -32.840036   1.000000
     24        -32.838785   1.000000
     25        -32.629953   1.000000
     26        -32.628485   1.000000
     27        -32.624829   1.000000
     28        -32.623309   1.000000
     29        -32.588347   1.000000
     30        -32.581431   1.000000
     31        -32.575282   1.000000
     32        -32.573278   1.000000
     33        -32.569741   1.000000
     34        -32.560193   1.000000
     35        -32.553019   1.000000
     36        -32.551255   1.000000
     37        -32.548645   1.000000
     38        -32.546488   1.000000
     39        -32.529800   1.000000
     40        -32.527519   1.000000
     41        -32.516898   1.000000
     42        -32.515064   1.000000
     43        -32.497949   1.000000
     44        -32.496320   1.000000
     45        -32.484999   1.000000
     46        -32.472880   1.000000
     47        -32.401547   1.000000
     48        -32.400215   1.000000
     49        -32.395114   1.000000
     50        -32.393843   1.000000
     51        -32.354596   1.000000
     52        -32.347615   1.000000
     53        -32.346481   1.000000
     54        -32.341230   1.000000
     55        -32.289741   1.000000
     56        -32.288614   1.000000
     57        -32.205517   1.000000
     58        -32.204775   1.000000
     59        -32.178336   1.000000
     60        -32.177545   1.000000
     61        -32.106589   1.000000
     62        -32.105753   1.000000
     63        -32.050116   1.000000
     64        -32.049227   1.000000
     65        -13.857095   1.000000
     66        -13.843363   1.000000
     67        -13.825791   1.000000
     68        -13.825244   1.000000
     69        -13.794655   1.000000
     70        -13.682692   1.000000
     71        -13.676788   1.000000
     72        -13.672608   1.000000
     73        -13.670589   1.000000
     74        -13.632812   1.000000
     75         -7.960440   1.000000
     76         -6.964731   1.000000
     77         -6.609248   1.000000
     78         -6.349093   1.000000
     79         -5.778934   1.000000
     80         -5.437371   1.000000
     81         -5.281207   1.000000
     82         -4.693551   1.000000
     83         -4.513656   1.000000
     84         -4.438508   1.000000
     85         -4.022556   1.000000
     86         -3.981946   1.000000
     87         -3.731391   1.000000
     88         -3.664649   1.000000
     89         -3.423050   1.000000
     90         -2.903540   1.000000
     91         -2.867915   1.000000
     92         -2.777809   1.000000
     93         -2.473158   1.000000
     94         -2.046937   1.000000
     95         -1.943355   1.000000
     96         -1.885513   1.000000
     97         -1.589893   1.000000
     98         -1.485199   1.000000
     99         -1.390395   1.000000
    100         -1.293293   1.000000
    101         -1.281786   1.000000
    102         -1.025927   1.000000
    103         -0.956205   1.000000
    104         -0.865321   1.000000
    105         -0.792942   1.000000
    106         -0.788144   1.000000
    107         -0.777936   1.000000
    108         -0.676961   1.000000
    109         -0.641873   1.000000
    110         -0.591853   1.000000
    111         -0.472595   1.000000
    112         -0.307521   1.000000
    113         -0.289986   1.000000
    114         -0.274249   1.000000
    115         -0.259425   1.000000
    116         -0.213158   1.000000
    117         -0.115423   1.000000
    118         -0.011620   1.000000
    119          0.036281   1.000000
    120          0.085448   1.000000
    121          0.160665   1.000000
    122          0.201370   1.000000
    123          0.206138   1.000000
    124          0.255466   1.000006
    125          0.388880   1.005485
    126          0.411886   1.011502
    127          0.427744   1.017561
    128          0.493350   1.030745
    129          0.513237   1.005449
    130          0.537101   0.932734
    131          0.579429   0.670327
    132          0.610709   0.410213
    133          0.754497  -0.025625
    134          0.779493  -0.014640
    135          0.797255  -0.008736
    136          0.936107  -0.000011
    137          0.950068  -0.000004
    138          1.034024  -0.000000
    139          1.038725  -0.000000
    140          1.098792  -0.000000
    141          1.166454  -0.000000
    142          1.186519  -0.000000
    143          1.221367  -0.000000
    144          1.260067  -0.000000
    145          1.332263  -0.000000
    146          1.426330  -0.000000
    147          1.449193  -0.000000
    148          1.583436  -0.000000
    149          1.675515  -0.000000
    150          1.699832  -0.000000
    151          1.793495  -0.000000
    152          1.806627  -0.000000
    153          1.821857  -0.000000
    154          1.897408  -0.000000
    155          1.955467  -0.000000
    156          2.001973  -0.000000
    157          2.036091  -0.000000
    158          2.044180  -0.000000
    159          2.049085  -0.000000
    160          2.089707  -0.000000
    161          2.132337  -0.000000
    162          2.148319  -0.000000
    163          2.149625  -0.000000
    164          2.201891  -0.000000
    165          2.202280  -0.000000
    166          2.274845  -0.000000
    167          2.278332  -0.000000
    168          2.306217  -0.000000
    169          2.463887  -0.000000
    170          2.479634  -0.000000
    171          2.483501  -0.000000
    172          2.510929  -0.000000
    173          2.565204  -0.000000
    174          2.589362  -0.000000
    175          2.605345   0.000000
    176          2.619200   0.000000
    177          2.632983   0.000000
    178          2.655034   0.000000
    179          2.699600   0.000000
    180          2.809636   0.000000
    181          2.827718   0.000000
    182          2.943695   0.000000
    183          3.126494   0.000000
    184          3.238303   0.000000
    185          3.263096   0.000000
    186          3.299996   0.000000
    187          3.361498   0.000000
    188          3.468047   0.000000
    189          3.544764   0.000000
    190          3.898086   0.000000
    191          3.937002   0.000000
    192          4.049501   0.000000
 
  0.5000000E+00  0.1276756E-14  0.1276756E-14  0.6250000E-01
      1        -56.772482   1.000000
      2        -56.772080   1.000000
      3        -56.333503   1.000000
      4        -56.333040   1.000000
      5        -56.245610   1.000000
      6        -56.245133   1.000000
      7        -56.243557   1.000000
      8        -56.243090   1.000000
      9        -56.171574   1.000000
     10        -56.171069   1.000000
     11        -56.170289   1.000000
     12        -56.169780   1.000000
     13        -56.092333   1.000000
     14        -56.091847   1.000000
     15        -55.946325   1.000000
     16        -55.945820   1.000000
     17        -33.137808   1.000000
     18        -33.128362   1.000000
     19        -33.063077   1.000000
     20        -33.061949   1.000000
     21        -32.959190   1.000000
     22        -32.958373   1.000000
     23        -32.839932   1.000000
     24        -32.838690   1.000000
     25        -32.627366   1.000000
     26        -32.626193   1.000000
     27        -32.625864   1.000000
     28        -32.624806   1.000000
     29        -32.586824   1.000000
     30        -32.582815   1.000000
     31        -32.574202   1.000000
     32        -32.573132   1.000000
     33        -32.570701   1.000000
     34        -32.560088   1.000000
     35        -32.555350   1.000000
     36        -32.553488   1.000000
     37        -32.546423   1.000000
     38        -32.544294   1.000000
     39        -32.530931   1.000000
     40        -32.527286   1.000000
     41        -32.517785   1.000000
     42        -32.514940   1.000000
     43        -32.498631   1.000000
     44        -32.496931   1.000000
     45        -32.484366   1.000000
     46        -32.472362   1.000000
     47        -32.403355   1.000000
     48        -32.402062   1.000000
     49        -32.394324   1.000000
     50        -32.392985   1.000000
     51        -32.354645   1.000000
     52        -32.354546   1.000000
     53        -32.353282   1.000000
     54        -32.341442   1.000000
     55        -32.280866   1.000000
     56        -32.279762   1.000000
     57        -32.206252   1.000000
     58        -32.205448   1.000000
     59        -32.176116   1.000000
     60        -32.175390   1.000000
     61        -32.111017   1.000000
     62        -32.110127   1.000000
     63        -32.048729   1.000000
     64        -32.047869   1.000000
     65        -13.857101   1.000000
     66        -13.843336   1.000000
     67        -13.825806   1.000000
     68        -13.825244   1.000000
     69        -13.794641   1.000000
     70        -13.682673   1.000000
     71        -13.676801   1.000000
     72        -13.672623   1.000000
     73        -13.670589   1.000000
     74        -13.632800   1.000000
     75         -7.647147   1.000000
     76         -7.405978   1.000000
     77         -6.429538   1.000000
     78         -6.274385   1.000000
     79         -6.020459   1.000000
     80         -5.922310   1.000000
     81         -5.119111   1.000000
     82         -5.064082   1.000000
     83         -4.160126   1.000000
     84         -4.122616   1.000000
     85         -3.712706   1.000000
     86         -3.573270   1.000000
     87         -3.476493   1.000000
     88         -3.451822   1.000000
     89         -3.385755   1.000000
     90         -3.202104   1.000000
     91         -2.953642   1.000000
     92         -2.843563   1.000000
     93         -2.247431   1.000000
     94         -2.141278   1.000000
     95         -2.091220   1.000000
     96         -1.941417   1.000000
     97         -1.816078   1.000000
     98         -1.692243   1.000000
     99         -1.380883   1.000000
    100         -1.376609   1.000000
    101         -1.282949   1.000000
    102         -1.216801   1.000000
    103         -1.060558   1.000000
    104         -0.926924   1.000000
    105         -0.803169   1.000000
    106         -0.700908   1.000000
    107         -0.663153   1.000000
    108         -0.610189   1.000000
    109         -0.579311   1.000000
    110         -0.546670   1.000000
    111         -0.524904   1.000000
    112         -0.507782   1.000000
    113         -0.388535   1.000000
    114         -0.323066   1.000000
    115         -0.309629   1.000000
    116         -0.265169   1.000000
    117          0.024517   1.000000
    118          0.045788   1.000000
    119          0.049104   1.000000
    120          0.054911   1.000000
    121          0.098877   1.000000
    122          0.142834   1.000000
    123          0.147949   1.000000
    124          0.256529   1.000007
    125          0.288976   1.000050
    126          0.305115   1.000124
    127          0.376223   1.003441
    128          0.516707   0.998074
    129          0.528289   0.965815
    130          0.592634   0.562426
    131          0.641108   0.182776
    132          0.677080   0.017896
    133          0.762629  -0.021869
    134          0.765099  -0.020743
    135          0.799286  -0.008189
    136          0.862278  -0.000659
    137          0.923521  -0.000024
    138          0.937045  -0.000010
    139          0.994024  -0.000000
    140          1.041052  -0.000000
    141          1.139627  -0.000000
    142          1.211676  -0.000000
    143          1.234590  -0.000000
    144          1.269401  -0.000000
    145          1.310206  -0.000000
    146          1.510167  -0.000000
    147          1.535524  -0.000000
    148          1.558639  -0.000000
    149          1.592113  -0.000000
    150          1.711090  -0.000000
    151          1.732042  -0.000000
    152          1.788275  -0.000000
    153          1.823415  -0.000000
    154          1.881285  -0.000000
    155          1.964822  -0.000000
    156          1.978822  -0.000000
    157          2.032248  -0.000000
    158          2.043374  -0.000000
    159          2.088880  -0.000000
    160          2.105530  -0.000000
    161          2.130379  -0.000000
    162          2.145998  -0.000000
    163          2.197247  -0.000000
    164          2.248376  -0.000000
    165          2.285656  -0.000000
    166          2.318641  -0.000000
    167          2.342858  -0.000000
    168          2.342873  -0.000000
    169          2.383997  -0.000000
    170          2.461415  -0.000000
    171          2.496336  -0.000000
    172          2.507598  -0.000000
    173          2.562695  -0.000000
    174          2.573432  -0.000000
    175          2.573882  -0.000000
    176          2.579387  -0.000000
    177          2.708849   0.000000
    178          2.801684   0.000000
    179          2.963432   0.000000
    180          3.024104   0.000000
    181          3.054595   0.000000
    182          3.068578   0.000000
    183          3.111949   0.000000
    184          3.231396   0.000000
    185          3.291578   0.000000
    186          3.496853   0.000000
    187          3.498775   0.000000
    188          3.581126   0.000000
    189          3.597181   0.000000
    190          3.773215   0.000000
    191          3.813951   0.000000
    192          3.816567   0.000000
 
  0.1276756E-14  0.2500000E+00  0.1276756E-14  0.1250000E+00
      1        -56.772426   1.000000
      2        -56.772141   1.000000
      3        -56.333456   1.000000
      4        -56.333128   1.000000
      5        -56.246586   1.000000
      6        -56.246236   1.000000
      7        -56.242500   1.000000
      8        -56.242182   1.000000
      9        -56.173093   1.000000
     10        -56.172719   1.000000
     11        -56.168225   1.000000
     12        -56.167881   1.000000
     13        -56.092649   1.000000
     14        -56.092303   1.000000
     15        -55.946192   1.000000
     16        -55.945833   1.000000
     17        -33.136431   1.000000
     18        -33.129745   1.000000
     19        -33.063000   1.000000
     20        -33.062198   1.000000
     21        -32.959181   1.000000
     22        -32.958599   1.000000
     23        -32.839956   1.000000
     24        -32.839063   1.000000
     25        -32.632286   1.000000
     26        -32.631211   1.000000
     27        -32.623033   1.000000
     28        -32.621920   1.000000
     29        -32.587441   1.000000
     30        -32.578830   1.000000
     31        -32.578017   1.000000
     32        -32.571497   1.000000
     33        -32.570739   1.000000
     34        -32.562215   1.000000
     35        -32.550713   1.000000
     36        -32.550268   1.000000
     37        -32.549530   1.000000
     38        -32.548724   1.000000
     39        -32.527004   1.000000
     40        -32.525750   1.000000
     41        -32.518059   1.000000
     42        -32.516858   1.000000
     43        -32.497728   1.000000
     44        -32.496615   1.000000
     45        -32.483867   1.000000
     46        -32.475214   1.000000
     47        -32.400380   1.000000
     48        -32.399294   1.000000
     49        -32.392382   1.000000
     50        -32.391690   1.000000
     51        -32.352714   1.000000
     52        -32.344017   1.000000
     53        -32.341877   1.000000
     54        -32.340210   1.000000
     55        -32.298767   1.000000
     56        -32.297994   1.000000
     57        -32.204253   1.000000
     58        -32.203768   1.000000
     59        -32.181037   1.000000
     60        -32.180415   1.000000
     61        -32.101960   1.000000
     62        -32.101399   1.000000
     63        -32.051563   1.000000
     64        -32.050909   1.000000
     65        -13.857088   1.000000
     66        -13.843375   1.000000
     67        -13.825794   1.000000
     68        -13.825262   1.000000
     69        -13.794659   1.000000
     70        -13.682698   1.000000
     71        -13.676775   1.000000
     72        -13.672608   1.000000
     73        -13.670606   1.000000
     74        -13.632813   1.000000
     75         -7.977199   1.000000
     76         -7.020087   1.000000
     77         -6.740231   1.000000
     78         -5.882663   1.000000
     79         -5.549592   1.000000
     80         -5.508907   1.000000
     81         -5.019150   1.000000
     82         -4.979144   1.000000
     83         -4.946146   1.000000
     84         -4.416102   1.000000
     85         -4.182721   1.000000
     86         -4.126592   1.000000
     87         -3.865014   1.000000
     88         -3.770843   1.000000
     89         -3.618060   1.000000
     90         -2.918971   1.000000
     91         -2.519175   1.000000
     92         -2.368472   1.000000
     93         -2.298066   1.000000
     94         -2.164039   1.000000
     95         -1.825946   1.000000
     96         -1.739484   1.000000
     97         -1.679568   1.000000
     98         -1.595281   1.000000
     99         -1.484202   1.000000
    100         -1.300551   1.000000
    101         -1.253179   1.000000
    102         -1.183247   1.000000
    103         -1.074269   1.000000
    104         -0.984272   1.000000
    105         -0.983301   1.000000
    106         -0.843187   1.000000
    107         -0.747557   1.000000
    108         -0.599834   1.000000
    109         -0.530770   1.000000
    110         -0.455951   1.000000
    111         -0.376947   1.000000
    112         -0.303308   1.000000
    113         -0.261332   1.000000
    114         -0.213708   1.000000
    115         -0.173791   1.000000
    116         -0.105329   1.000000
    117         -0.072878   1.000000
    118          0.084691   1.000000
    119          0.104309   1.000000
    120          0.106927   1.000000
    121          0.183536   1.000000
    122          0.183951   1.000000
    123          0.223642   1.000001
    124          0.245583   1.000003
    125          0.338714   1.000688
    126          0.345652   1.000950
    127          0.416391   1.013071
    128          0.463803   1.033057
    129          0.525898   0.973485
    130          0.572804   0.721230
    131          0.634622   0.225788
    132          0.665055   0.058720
    133          0.677923   0.015548
    134          0.737674  -0.032599
    135          0.807580  -0.006217
    136          0.907577  -0.000061
    137          0.913644  -0.000043
    138          1.090452  -0.000000
    139          1.098768  -0.000000
    140          1.110800  -0.000000
    141          1.145408  -0.000000
    142          1.172636  -0.000000
    143          1.271814  -0.000000
    144          1.310375  -0.000000
    145          1.322733  -0.000000
    146          1.333076  -0.000000
    147          1.487442  -0.000000
    148          1.597184  -0.000000
    149          1.621437  -0.000000
    150          1.622684  -0.000000
    151          1.657157  -0.000000
    152          1.789667  -0.000000
    153          1.813035  -0.000000
    154          1.891535  -0.000000
    155          1.903262  -0.000000
    156          2.005419  -0.000000
    157          2.030821  -0.000000
    158          2.047351  -0.000000
    159          2.058863  -0.000000
    160          2.067460  -0.000000
    161          2.151706  -0.000000
    162          2.165367  -0.000000
    163          2.183421  -0.000000
    164          2.194020  -0.000000
    165          2.309621  -0.000000
    166          2.311174  -0.000000
    167          2.338368  -0.000000
    168          2.351088  -0.000000
    169          2.379787  -0.000000
    170          2.533849  -0.000000
    171          2.534176  -0.000000
    172          2.563775  -0.000000
    173          2.571921  -0.000000
    174          2.598927  -0.000000
    175          2.619901   0.000000
    176          2.634991   0.000000
    177          2.671570   0.000000
    178          2.703130   0.000000
    179          2.852954   0.000000
    180          2.854861   0.000000
    181          2.899209   0.000000
    182          3.032475   0.000000
    183          3.210313   0.000000
    184          3.346523   0.000000
    185          3.354160   0.000000
    186          3.383134   0.000000
    187          3.461275   0.000000
    188          3.482839   0.000000
    189          3.522363   0.000000
    190          3.760325   0.000000
    191          3.816960   0.000000
    192          3.929279   0.000000
 
  0.2500000E+00  0.2500000E+00  0.1276756E-14  0.2500000E+00
      1        -56.772425   1.000000
      2        -56.772141   1.000000
      3        -56.333446   1.000000
      4        -56.333118   1.000000
      5        -56.246145   1.000000
      6        -56.245801   1.000000
      7        -56.242912   1.000000
      8        -56.242589   1.000000
      9        -56.172533   1.000000
     10        -56.172167   1.000000
     11        -56.168983   1.000000
     12        -56.168633   1.000000
     13        -56.092454   1.000000
     14        -56.092111   1.000000
     15        -55.946221   1.000000
     16        -55.945865   1.000000
     17        -33.136432   1.000000
     18        -33.129743   1.000000
     19        -33.062956   1.000000
     20        -33.062156   1.000000
     21        -32.959124   1.000000
     22        -32.958546   1.000000
     23        -32.839854   1.000000
     24        -32.838965   1.000000
     25        -32.629739   1.000000
     26        -32.628699   1.000000
     27        -32.624609   1.000000
     28        -32.623527   1.000000
     29        -32.586436   1.000000