       N       E                     dE             d eps       ncg     rms          rms(c)
DAV:   1     0.242268109183E+04    0.24227E+04   -0.12839E+05  3456   0.126E+03
DAV:   2     0.838235186563E+02   -0.23389E+04   -0.22631E+04  3712   0.381E+02
DAV:   3    -0.181728982551E+03   -0.26555E+03   -0.25986E+03  6912   0.113E+02
DAV:   4    -0.215449371649E+03   -0.33720E+02   -0.33427E+02  5248   0.337E+01
DAV:   5    -0.218719258420E+03   -0.32699E+01   -0.32692E+01  5760   0.893E+00    0.389E+01
DAV:   6    -0.308817218002E+03   -0.90098E+02   -0.66778E+02  5760   0.486E+01    0.895E+01
DAV:   7    -0.230995858890E+03    0.77821E+02   -0.41229E+02  5760   0.521E+01    0.606E+01
DAV:   8    -0.194259870157E+03    0.36736E+02   -0.18685E+02  5440   0.362E+01    0.316E+01
DAV:   9    -0.183672146787E+03    0.10588E+02   -0.65090E+01  5120   0.181E+01    0.151E+01
DAV:  10    -0.179702523882E+03    0.39696E+01   -0.10550E+01  5120   0.799E+00    0.944E+00
DAV:  11    -0.178992175900E+03    0.71035E+00   -0.56521E+00  5120   0.846E+00    0.102E+01
DAV:  12    -0.178176714447E+03    0.81546E+00   -0.38780E+00  5120   0.530E+00    0.686E+00
DAV:  13    -0.177865361240E+03    0.31135E+00   -0.36162E+00  5504   0.649E+00    0.523E+00
DAV:  14    -0.177836856875E+03    0.28504E-01   -0.15886E+00  5120   0.458E+00    0.389E+00
DAV:  15    -0.177694467625E+03    0.14239E+00   -0.87311E-01  5120   0.323E+00    0.179E+00
DAV:  16    -0.177662946654E+03    0.31521E-01   -0.18077E-01  5760   0.162E+00    0.108E+00
DAV:  17    -0.177668708904E+03   -0.57622E-02   -0.96209E-02  5184   0.559E-01    0.133E+00
DAV:  18    -0.177660994085E+03    0.77148E-02   -0.61865E-02  5056   0.489E-01    0.486E-01
DAV:  19    -0.177661610303E+03   -0.61622E-03   -0.32139E-03  5248   0.168E-01    0.263E-01
DAV:  20    -0.177662920672E+03   -0.13104E-02   -0.16785E-03  4928   0.891E-02    0.617E-02
DAV:  21    -0.177663806080E+03   -0.88541E-03   -0.57152E-04  4672   0.541E-02    0.560E-02
DAV:  22    -0.177664157792E+03   -0.35171E-03   -0.21544E-04  5376   0.516E-02    0.228E-02
DAV:  23    -0.177664372491E+03   -0.21470E-03   -0.88113E-05  4416   0.206E-02    0.256E-02
DAV:  24    -0.177664514464E+03   -0.14197E-03   -0.45853E-05  4352   0.121E-02    0.769E-03
DAV:  25    -0.177664638646E+03   -0.12418E-03   -0.16184E-05  4160   0.595E-03    0.739E-03
DAV:  26    -0.177664796852E+03   -0.15821E-03   -0.13768E-05  4480   0.591E-03    0.483E-03
DAV:  27    -0.177664901264E+03   -0.10441E-03   -0.53958E-06  4224   0.331E-03    0.431E-03
DAV:  28    -0.177664958799E+03   -0.57536E-04   -0.16002E-06  3648   0.224E-03    0.178E-03
DAV:  29    -0.177664995585E+03   -0.36785E-04   -0.27915E-06  3776   0.166E-03    0.761E-04
DAV:  30    -0.177665001102E+03   -0.55178E-05   -0.27178E-07  3264   0.755E-04
   1 F= -.17766500E+03 E0= -.17766232E+03  d E =-.803688E-02
