 vasp.6.5.0 16Dec24 (build Apr 17 2025 17:55:45) complex                        
  
 executed on             LinuxIFC date 2025.06.10  11:34:24
 running   64 mpi-ranks, on    1 nodes
 distrk:  each k-point on   64 cores,    1 groups
 distr:  one band on NCORE=   1 cores,   64 groups


--------------------------------------------------------------------------------------------------------


 INCAR:
   ISTART = 0
   ICHARG = 2
   PREC = N
   LREAL = .FALSE.
   ENCUT = 520
   ALGO = N
   NELM = 500
   EDIFF = 1E-05
   IBRION = -1
   ISIF = 3
   NSW = 0
   EDIFFG = -0.01
   ISMEAR = 1
   SIGMA = 0.1
   LVHAR = .TRUE.
   LVTOT = .TRUE.

 POTCAR:    PAW_PBE Ti_sv 26Sep2005               
 POTCAR:    PAW_PBE Ga_d 06Jul2010                
 POTCAR:    PAW_PBE Al 04Jan2001                  
 -----------------------------------------------------------------------------
|                                                                             |
|           W    W    AA    RRRRR   N    N  II  N    N   GGGG   !!!           |
|           W    W   A  A   R    R  NN   N  II  NN   N  G    G  !!!           |
|           W    W  A    A  R    R  N N  N  II  N N  N  G       !!!           |
|           W WW W  AAAAAA  RRRRR   N  N N  II  N  N N  G  GGG   !            |
|           WW  WW  A    A  R   R   N   NN  II  N   NN  G    G                |
|           W    W  A    A  R    R  N    N  II  N    N   GGGG   !!!           |
|                                                                             |
|     For optimal performance we recommend to set                             |
|       NCORE = 2 up to number-of-cores-per-socket                            |
|     NCORE specifies how many cores store one orbital (NPAR=cpu/NCORE).      |
|     This setting can greatly improve the performance of VASP for DFT.       |
|     The default, NCORE=1 might be grossly inefficient on modern             |
|     multi-core architectures or massively parallel machines. Do your        |
|     own testing! More info at https://www.vasp.at/wiki/index.php/NCORE      |
|     Unfortunately you need to use the default for GW and RPA                |
|     calculations (for HF NCORE is supported but not extensively tested      |
|     yet).                                                                   |
|                                                                             |
 -----------------------------------------------------------------------------

 POTCAR:    PAW_PBE Ti_sv 26Sep2005               
   SHA256 =  4d747badb5a5ea28d858fbac70885b3f8929d6fd9e5b0dbe1ecb9878dc164da1 Ti_sv/POTCAR          
   COPYR  = (c) Copyright 26Sep2005 Georg Kresse                                                    
   COPYR  = This file is part of the software VASP. Any use, copying, and all other rights are regul
   COPYR  = If you do not have a valid VASP license, you may not use, copy or distribute this file. 
   VRHFIN =Ti: 3p4s3d                                                                               
   LEXCH  = PE                                                                                      
   EATOM  =  1588.0892 eV,  116.7213 Ry                                                             
                                                                                                    
   TITEL  = PAW_PBE Ti_sv 26Sep2005                                                                 
   LULTRA =        F    use ultrasoft PP ?                                                          
   IUNSCR =        1    unscreen: 0-lin 1-nonlin 2-no                                               
   RPACOR =    2.000    partial core radius                                                         
   POMASS =   47.880; ZVAL   =   12.000    mass and valenz                                          
   RCORE  =    2.300    outmost cutoff radius                                                       
   RWIGS  =    2.300; RWIGS  =    1.217    wigner-seitz radius (au A)                               
   ENMAX  =  274.610; ENMIN  =  205.957 eV                                                          
   ICORE  =        3    local potential                                                             
   LCOR   =        T    correct aug charges                                                         
   LPAW   =        T    paw PP                                                                      
   EAUG   =  482.848                                                                                
   RMAX   =    2.348    core radius for proj-oper                                                   
   RAUG   =    1.300    factor for augmentation sphere                                              
   RDEP   =    2.381    radius for radial grids                                                     
   RDEPT  =    1.930    core radius for aug-charge                                                  
                                                                                                    
   Atomic configuration                                                                             
    8 entries                                                                                       
     n  l   j            E        occ.                                                              
     1  0  0.50     -4865.3608   2.0000                                                             
     2  0  0.50      -533.1368   2.0000                                                             
     2  1  1.50      -440.5031   6.0000                                                             
     3  0  0.50       -59.3186   2.0000                                                             
     4  0  0.50        -3.7291   1.0000                                                             
     3  1  1.50       -35.7012   6.0000                                                             
     3  2  2.50        -1.9157   3.0000                                                             
     4  3  2.50        -1.3606   0.0000                                                             
   Description                                                                                      
     l       E           TYP  RCUT    TYP  RCUT                                                     
     0    -59.3185931     23  1.800                                                                 
     0     -3.7290822     23  2.300                                                                 
     1    -35.7012045     23  2.300                                                                 
     1     -1.3605826     23  2.300                                                                 
     2     -1.9156920     23  2.300                                                                 
     2     -0.0236318     23  2.300                                                                 
     3     -1.3605826     23  2.300                                                                 
  local pseudopotential read in
  partial core-charges read in
  partial kinetic energy density read in
  atomic valenz-charges read in
  non local Contribution for L=           0  read in
    real space projection operators read in
  non local Contribution for L=           0  read in
    real space projection operators read in
  non local Contribution for L=           1  read in
    real space projection operators read in
  non local Contribution for L=           1  read in
    real space projection operators read in
  non local Contribution for L=           2  read in
    real space projection operators read in
  non local Contribution for L=           2  read in
    real space projection operators read in
    PAW grid and wavefunctions read in
 
   number of l-projection  operators is LMAX  =           6
   number of lm-projection operators is LMMAX =          18
 
 POTCAR:    PAW_PBE Ga_d 06Jul2010                
   SHA256 =  a60ddf36e14f00ea098d9e3914b3745f1b7105e68786148f49ae384e44b4226c Ga_d/POTCAR           
   COPYR  = (c) Copyright 06Jul2010 Georg Kresse                                                    
   COPYR  = This file is part of the software VASP. Any use, copying, and all other rights are regul
   COPYR  = If you do not have a valid VASP license, you may not use, copy or distribute this file. 
   VRHFIN =Ga: s2p1                                                                                 
   LEXCH  = PE                                                                                      
   EATOM  =  2148.8298 eV,  157.9345 Ry                                                             
                                                                                                    
   TITEL  = PAW_PBE Ga_d 06Jul2010                                                                  
   LULTRA =        F    use ultrasoft PP ?                                                          
   IUNSCR =        1    unscreen: 0-lin 1-nonlin 2-no                                               
   RPACOR =    1.700    partial core radius                                                         
   POMASS =   69.723; ZVAL   =   13.000    mass and valenz                                          
   RCORE  =    2.300    outmost cutoff radius                                                       
   RWIGS  =    2.300; RWIGS  =    1.217    wigner-seitz radius (au A)                               
   ENMAX  =  282.691; ENMIN  =  212.018 eV                                                          
   ICORE  =        3    local potential                                                             
   LCOR   =        T    correct aug charges                                                         
   LPAW   =        T    paw PP                                                                      
   EAUG   =  490.690                                                                                
   DEXC   =    0.000                                                                                
   RMAX   =    2.341    core radius for proj-oper                                                   
   RAUG   =    1.300    factor for augmentation sphere                                              
   RDEP   =    2.413    radius for radial grids                                                     
   RDEPT  =    1.856    core radius for aug-charge                                                  
                                                                                                    
   Atomic configuration                                                                             
    9 entries                                                                                       
     n  l   j            E        occ.                                                              
     1  0  0.50    -10228.7831   2.0000                                                             
     2  0  0.50     -1262.1604   2.0000                                                             
     2  1  1.50     -1098.6333   6.0000                                                             
     3  0  0.50      -148.1110   2.0000                                                             
     3  1  1.50       -98.8436   6.0000                                                             
     3  2  2.50       -19.1549  10.0000                                                             
     4  0  0.50        -8.9483   2.0000                                                             
     4  1  0.50        -2.5791   1.0000                                                             
     4  3  2.50        -2.7416   0.0000                                                             
   Description                                                                                      
     l       E           TYP  RCUT    TYP  RCUT                                                     
     2    -19.1549037     23  2.300                                                                 
     2     -5.4423304     23  2.300                                                                 
     0     -8.9483111     23  2.300                                                                 
     0     68.0291300     23  2.300                                                                 
     1     -2.5790802     23  2.100                                                                 
     1     81.6349560     23  2.300                                                                 
     3      6.8029130     23  2.300                                                                 
  local pseudopotential read in
  partial core-charges read in
  partial kinetic energy density read in
  atomic valenz-charges read in
  non local Contribution for L=           2  read in
    real space projection operators read in
  non local Contribution for L=           2  read in
    real space projection operators read in
  non local Contribution for L=           0  read in
    real space projection operators read in
  non local Contribution for L=           0  read in
    real space projection operators read in
  non local Contribution for L=           1  read in
    real space projection operators read in
  non local Contribution for L=           1  read in
    real space projection operators read in
    PAW grid and wavefunctions read in
 
   number of l-projection  operators is LMAX  =           6
   number of lm-projection operators is LMMAX =          18
 
 POTCAR:    PAW_PBE Al 04Jan2001                  
   SHA256 =  17880443556af62b473fe41b62a467bd001ad55d2cabe504a3f22e34d4e9db96 Al/POTCAR             
   COPYR  = (c) Copyright 04Jan2001 Georg Kresse                                                    
   COPYR  = This file is part of the software VASP. Any use, copying, and all other rights are regul
   COPYR  = If you do not have a valid VASP license, you may not use, copy or distribute this file. 
   VRHFIN =Al: s2p1                                                                                 
   LEXCH  = PE                                                                                      
   EATOM  =    53.5387 eV,    3.9350 Ry                                                             
                                                                                                    
   TITEL  = PAW_PBE Al 04Jan2001                                                                    
   LULTRA =        F    use ultrasoft PP ?                                                          
   IUNSCR =        1    unscreen: 0-lin 1-nonlin 2-no                                               
   RPACOR =    1.500    partial core radius                                                         
   POMASS =   26.981; ZVAL   =    3.000    mass and valenz                                          
   RCORE  =    1.900    outmost cutoff radius                                                       
   RWIGS  =    2.650; RWIGS  =    1.402    wigner-seitz radius (au A)                               
   ENMAX  =  240.300; ENMIN  =  180.225 eV                                                          
   ICORE  =        2    local potential                                                             
   LCOR   =        T    correct aug charges                                                         
   LPAW   =        T    paw PP                                                                      
   EAUG   =  291.052                                                                                
   DEXC   =    0.000                                                                                
   RMAX   =    1.939    core radius for proj-oper                                                   
   RAUG   =    1.300    factor for augmentation sphere                                              
   RDEP   =    1.966    radius for radial grids                                                     
   RDEPT  =    1.856    core radius for aug-charge                                                  
                                                                                                    
   Atomic configuration                                                                             
    6 entries                                                                                       
     n  l   j            E        occ.                                                              
     1  0  0.50     -1511.1048   2.0000                                                             
     2  0  0.50      -108.1629   2.0000                                                             
     2  1  1.50       -69.6402   6.0000                                                             
     3  0  0.50        -7.7528   2.0000                                                             
     3  1  1.50        -2.7121   1.0000                                                             
     3  2  2.50        -2.7212   0.0000                                                             
   Description                                                                                      
     l       E           TYP  RCUT    TYP  RCUT                                                     
     0     -7.7528455     23  1.900                                                                 
     0     -3.3096929     23  1.900                                                                 
     1     -2.7120682     23  1.900                                                                 
     1     13.6058260     23  1.900                                                                 
     2     -2.7211652      7  1.900                                                                 
  local pseudopotential read in
  partial core-charges read in
  partial kinetic energy density read in
  atomic valenz-charges read in
  non local Contribution for L=           0  read in
    real space projection operators read in
  non local Contribution for L=           0  read in
    real space projection operators read in
  non local Contribution for L=           1  read in
    real space projection operators read in
  non local Contribution for L=           1  read in
    real space projection operators read in
    PAW grid and wavefunctions read in
 
   number of l-projection  operators is LMAX  =           4
   number of lm-projection operators is LMMAX =           8
 
 -----------------------------------------------------------------------------
|                                                                             |
|               ----> ADVICE to this user running VASP <----                  |
|                                                                             |
|     You have a (more or less) 'large supercell' and for larger cells it     |
|     might be more efficient to use real-space projection operators.         |
|     Therefore, try LREAL= Auto in the INCAR file.                           |
|     Mind: For very accurate calculation, you might also keep the            |
|     reciprocal projection scheme (i.e. LREAL=.FALSE.).                      |
|                                                                             |
 -----------------------------------------------------------------------------

  PAW_PBE Ti_sv 26Sep2005               :
 energy of atom  1       EATOM=-1588.0892
 kinetic energy error for atom=    0.0042 (will be added to EATOM!!)
  PAW_PBE Ga_d 06Jul2010                :
 energy of atom  2       EATOM=-2148.8298
 kinetic energy error for atom=    0.0026 (will be added to EATOM!!)
  PAW_PBE Al 04Jan2001                  :
 energy of atom  3       EATOM=  -53.5387
 kinetic energy error for atom=    0.0002 (will be added to EATOM!!)
 
 
 POSCAR: Generated by VASPKIT code
  positions in direct lattice
  No initial velocities read in


 exchange-correlation table for PE
   RHO(1)=    0.500       N(1)  =     2000
   RHO(2)=  100.500       N(2)  =     4000
 


--------------------------------------------------------------------------------------------------------


 ion  position               nearest neighbor table
   1  0.000  0.999  0.326-   5 2.82   9 2.82  17 2.84  22 2.84  26 2.84  19 2.85  28 2.85  24 2.85

   2  0.500  0.999  0.500-   6 2.82  10 2.82   9 2.82   5 2.82  18 2.84  21 2.84  25 2.84  30 2.84
                            20 2.85  27 2.85  23 2.85  32 2.85
   3  0.000  0.501  0.326-   7 2.82  11 2.82  17 2.84  26 2.84  22 2.84  19 2.85  24 2.85  28 2.85

   4  0.500  0.501  0.500-   8 2.82  12 2.82  11 2.82   7 2.82  18 2.84  25 2.84  21 2.84  30 2.84
                            20 2.85  23 2.85  27 2.85  32 2.85
   5  0.750  0.999  0.413-   1 2.82  13 2.82   2 2.82  17 2.84  21 2.84  26 2.84  30 2.84  19 2.85
                            28 2.85  23 2.85  32 2.85
   6  0.250  0.999  0.587-   2 2.82  14 2.82  13 2.82  18 2.84  25 2.84  29 2.84  20 2.85  27 2.85
                            31 2.85
   7  0.750  0.501  0.413-   3 2.82  15 2.82   4 2.82  17 2.84  21 2.84  26 2.84  30 2.84  19 2.85
                            28 2.85  23 2.85  32 2.85
   8  0.250  0.501  0.587-   4 2.82  16 2.82  15 2.82  18 2.84  25 2.84  29 2.84  20 2.85  27 2.85
                            31 2.85
   9  0.250  0.999  0.413-   1 2.82  13 2.82   2 2.82  17 2.84  22 2.84  25 2.84  30 2.84  19 2.85
                            27 2.85  24 2.85  32 2.85
  10  0.750  0.999  0.587-   2 2.82  14 2.82  13 2.82  18 2.84  21 2.84  29 2.84  20 2.85  23 2.85
                            31 2.85
  11  0.250  0.501  0.413-   3 2.82  15 2.82   4 2.82  17 2.84  22 2.84  25 2.84  30 2.84  19 2.85
                            27 2.85  24 2.85  32 2.85
  12  0.750  0.501  0.587-   4 2.82  16 2.82  15 2.82  18 2.84  21 2.84  29 2.84  20 2.85  23 2.85
                            31 2.85
  13  0.000  0.999  0.500-   5 2.82   9 2.82   6 2.82  10 2.82  17 2.84  25 2.84  21 2.84  29 2.84
                            19 2.85  23 2.85  27 2.85  31 2.85
  14  0.500  0.999  0.674-   6 2.82  10 2.82  18 2.84  20 2.85
  15  0.000  0.501  0.500-   7 2.82  11 2.82   8 2.82  12 2.82  17 2.84  21 2.84  25 2.84  29 2.84
                            19 2.85  27 2.85  23 2.85  31 2.85
  16  0.500  0.501  0.674-   8 2.82  12 2.82  18 2.84  20 2.85
  17  0.000  0.750  0.413-  21 2.82  22 2.82  25 2.82  26 2.82   5 2.84  11 2.84   9 2.84   7 2.84
                             1 2.84   3 2.84  13 2.84  15 2.84
  18  0.500  0.750  0.587-  21 2.82  25 2.82   2 2.84   4 2.84   6 2.84  12 2.84  10 2.84   8 2.84
                            14 2.84  16 2.84
  19  0.000  0.250  0.413-  23 2.82  24 2.82  27 2.82  28 2.82   7 2.85   9 2.85   5 2.85  11 2.85
                             1 2.85   3 2.85  13 2.85  15 2.85
  20  0.500  0.250  0.587-  23 2.82  27 2.82   2 2.85   4 2.85   8 2.85  10 2.85   6 2.85  12 2.85
                            14 2.85  16 2.85
  21  0.750  0.750  0.500-  17 2.82  18 2.82  29 2.82  30 2.82   5 2.84   7 2.84  10 2.84  12 2.84
                             2 2.84  15 2.84  13 2.84   4 2.84
  22  0.250  0.750  0.326-  17 2.82  30 2.82   9 2.84  11 2.84   1 2.84   3 2.84
  23  0.750  0.250  0.500-  19 2.82  20 2.82  31 2.82  32 2.82   5 2.85   7 2.85  10 2.85  12 2.85
                             4 2.85  13 2.85   2 2.85  15 2.85
  24  0.250  0.250  0.326-  19 2.82  32 2.82   9 2.85  11 2.85   3 2.85   1 2.85
  25  0.250  0.750  0.500-  17 2.82  18 2.82  29 2.82  30 2.82   6 2.84   8 2.84   9 2.84  11 2.84
                             4 2.84  13 2.84   2 2.84  15 2.84
  26  0.750  0.750  0.326-  17 2.82  30 2.82   5 2.84   7 2.84   3 2.84   1 2.84
  27  0.250  0.250  0.500-  19 2.82  20 2.82  31 2.82  32 2.82   6 2.85   8 2.85   9 2.85  11 2.85
                             2 2.85  15 2.85  13 2.85   4 2.85
  28  0.750  0.250  0.326-  19 2.82  32 2.82   5 2.85   7 2.85   1 2.85   3 2.85
  29  0.000  0.750  0.587-  21 2.82  25 2.82  13 2.84  15 2.84   8 2.84  10 2.84   6 2.84  12 2.84

  30  0.500  0.750  0.413-  21 2.82  22 2.82  25 2.82  26 2.82   7 2.84   9 2.84   5 2.84  11 2.84
                             2 2.84   4 2.84
  31  0.000  0.250  0.587-  23 2.82  27 2.82  13 2.85  15 2.85   6 2.85  12 2.85  10 2.85   8 2.85

  32  0.500  0.250  0.413-  23 2.82  24 2.82  27 2.82  28 2.82   5 2.85  11 2.85   9 2.85   7 2.85
                             2 2.85   4 2.85
 
  LATTYP: Found a simple orthorhombic cell.
 ALAT       =     7.9836401110
 B/A-ratio  =     1.0158251561
 C/A-ratio  =     2.8786450504
  
  Lattice vectors:
  
 A1 = (   7.9836401110,   0.0000000000,   0.0000000000)
 A2 = (   0.0000000000,   8.1099824619,   0.0000000000)
 A3 = (   0.0000000000,   0.0000000000,  22.9820660895)


Analysis of symmetry for initial positions (statically):
=====================================================================
 Subroutine PRICEL returns:
 Original cell was already a primitive cell.
 

 Routine SETGRP: Setting up the symmetry group for a 
 simple orthorhombic supercell.


 Subroutine GETGRP returns: Found  4 space group operations
 (whereof  2 operations were pure point group operations)
 out of a pool of  8 trial point group operations.


The static configuration has the point symmetry C_1h.
 The point group associated with its full space group is C_2v.


Analysis of symmetry for dynamics (positions and initial velocities):
=====================================================================
 Subroutine PRICEL returns:
 Original cell was already a primitive cell.
 

 Routine SETGRP: Setting up the symmetry group for a 
 simple orthorhombic supercell.


 Subroutine GETGRP returns: Found  4 space group operations
 (whereof  2 operations were pure point group operations)
 out of a pool of  8 trial point group operations.


The dynamic configuration has the point symmetry C_1h.
 The point group associated with its full space group is C_2v.


 Subroutine INISYM returns: Found  4 space group operations
 (whereof  2 operations are pure point group operations),
 and found     1 'primitive' translations


----------------------------------------------------------------------------------------

                                     Primitive cell                                     

  volume of cell :    1488.0240

  direct lattice vectors                    reciprocal lattice vectors
     7.983640111  0.000000000  0.000000000     0.125256147 -0.000000000 -0.000000000
     0.000000000  8.109982462  0.000000000     0.000000000  0.123304829 -0.000000000
     0.000000000  0.000000000 22.982066090     0.000000000  0.000000000  0.043512189

  length of vectors
     7.983640111  8.109982462 22.982066090     0.125256147  0.123304829  0.043512189

  position of ions in fractional coordinates (direct lattice)
     1.000000000  0.999382808  0.326409906
     0.500000000  0.999382808  0.500102734
     1.000000000  0.500617192  0.326409906
     0.500000000  0.500617192  0.500102734
     0.750197156  0.999382808  0.413187830
     0.250197156  0.999382808  0.586880659
     0.750197156  0.500617192  0.413187830
     0.250197156  0.500617192  0.586880659
     0.249802844  0.999382808  0.413187830
     0.749802844  0.999382808  0.586880659
     0.249802844  0.500617192  0.413187830
     0.749802844  0.500617192  0.586880659
     1.000000000  0.999382808  0.499965755
     0.500000000  0.999382808  0.673658584
     1.000000000  0.500617192  0.499965755
     0.500000000  0.500617192  0.673658584
     1.000000000  0.750000000  0.413187830
     0.500000000  0.750000000  0.586880659
     1.000000000  0.250000000  0.413187830
     0.500000000  0.250000000  0.586880659
     0.750000000  0.750000000  0.500034245
     0.250000000  0.750000000  0.326341416
     0.750000000  0.250000000  0.500034245
     0.250000000  0.250000000  0.326341416
     0.250000000  0.750000000  0.500034245
     0.750000000  0.750000000  0.326341416
     0.250000000  0.250000000  0.500034245
     0.750000000  0.250000000  0.326341416
     1.000000000  0.750000000  0.586880659
     0.500000000  0.750000000  0.413187830
     1.000000000  0.250000000  0.586880659
     0.500000000  0.250000000  0.413187830

  ion indices of the primitive-cell ions
   primitive index   ion index
                 1           1
                 2           2
                 3           3
                 4           4
                 5           5
                 6           6
                 7           7
                 8           8
                 9           9
                10          10
                11          11
                12          12
                13          13
                14          14
                15          15
                16          16
                17          17
                18          18
                19          19
                20          20
                21          21
                22          22
                23          23
                24          24
                25          25
                26          26
                27          27
                28          28
                29          29
                30          30
                31          31
                32          32

----------------------------------------------------------------------------------------

 
 
 KPOINTS: K-Spacing Value to Generate K-Mesh: 0.03

Automatic generation of k-mesh.
 Grid dimensions read from file:
 generate k-points for:    4    4    1

 Generating k-lattice:

  Cartesian coordinates                     Fractional coordinates (reciprocal lattice)
     0.031314037 -0.000000000 -0.000000000     0.250000000 -0.000000000 -0.000000000
     0.000000000  0.030826207 -0.000000000     0.000000000  0.250000000  0.000000000
     0.000000000  0.000000000  0.043512189     0.000000000  0.000000000  1.000000000

  Length of vectors
     0.031314037  0.030826207  0.043512189

  Shift w.r.t. Gamma in fractional coordinates (k-lattice)
     0.000000000  0.000000000  0.000000000

 
 Subroutine IBZKPT returns following result:
 ===========================================
 
 Found      9 irreducible k-points:
 
 Following reciprocal coordinates:
            Coordinates               Weight
  0.000000  0.000000  0.000000      1.000000
  0.250000  0.000000  0.000000      2.000000
  0.500000  0.000000  0.000000      1.000000
  0.000000  0.250000  0.000000      2.000000
  0.250000  0.250000  0.000000      4.000000
  0.500000  0.250000  0.000000      2.000000
  0.000000  0.500000  0.000000      1.000000
  0.250000  0.500000  0.000000      2.000000
  0.500000  0.500000  0.000000      1.000000
 
 Following cartesian coordinates:
            Coordinates               Weight
  0.000000  0.000000  0.000000      1.000000
  0.031314  0.000000  0.000000      2.000000
  0.062628  0.000000  0.000000      1.000000
  0.000000  0.030826  0.000000      2.000000
  0.031314  0.030826  0.000000      4.000000
  0.062628  0.030826  0.000000      2.000000
  0.000000  0.061652  0.000000      1.000000
  0.031314  0.061652  0.000000      2.000000
  0.062628  0.061652  0.000000      1.000000
 


--------------------------------------------------------------------------------------------------------




 Dimension of arrays:
   k-points           NKPTS =      9   k-points in BZ     NKDIM =      9   number of bands    NBANDS=    192
   number of dos      NEDOS =    301   number of ions     NIONS =     32
   non local maximal  LDIM  =      6   non local SUM 2l+1 LMDIM =     18
   total plane-waves  NPLWV = 294912
   max r-space proj   IRMAX =      1   max aug-charges    IRDMAX=   7912
   dimension x,y,z NGX =    48 NGY =   48 NGZ =  128
   dimension x,y,z NGXF=    96 NGYF=   96 NGZF=  256
   support grid    NGXF=    96 NGYF=   96 NGZF=  256
   ions per type =              16   2  14
   NGX,Y,Z   is equivalent  to a cutoff of  10.00,  9.84,  9.26 a.u.
   NGXF,Y,Z  is equivalent  to a cutoff of  19.99, 19.68, 18.52 a.u.

 SYSTEM =  unknown system                          
 POSCAR =  Generated by VASPKIT code               

 Startparameter for this run:
   NWRITE =      2    write-flag & timer
   PREC   = n         normal or accurate (medium, high low for compatibility)
   ISTART =      0    job   : 0-new  1-cont  2-samecut
   ICHARG =      2    charge: 1-file 2-atom 10-const
   ISPIN  =      1    spin polarized calculation?
   LNONCOLLINEAR =      F non collinear calculations
   LSORBIT =      F    spin-orbit coupling
   INIWAV =      1    electr: 0-lowe 1-rand  2-diag
   LASPH  =      F    aspherical Exc in radial PAW
 Electronic Relaxation 1
   ENCUT  =  520.0 eV  38.22 Ry    6.18 a.u.  14.84 15.08 42.73*2*pi/ulx,y,z
   ENINI  =  520.0     initial cutoff
   ENAUG  =  490.7 eV  augmentation charge cutoff
   NELM   =    500;   NELMIN=  2; NELMDL= -5     # of ELM steps 
   EDIFF  = 0.1E-04   stopping-criterion for ELM
   LREAL  =      F    real-space projection
   NLSPLINE    = F    spline interpolate recip. space projectors
   LCOMPAT=      F    compatible to vasp.4.4
   GGA_COMPAT  = T    GGA compatible to vasp.4.4-vasp.4.6
   LMAXPAW     = -100 max onsite density
   LMAXMIX     =    2 max onsite mixed and CHGCAR
   VOSKOWN=      0    Vosko Wilk Nusair interpolation
   ROPT   =    0.00000   0.00000   0.00000
 Ionic relaxation
   EDIFFG = -.1E-01   stopping-criterion for IOM
   NSW    =      0    number of steps for IOM
   NBLOCK =      1;   KBLOCK =      1    inner block; outer block 
   IBRION =     -1    ionic relax: 0-MD 1-quasi-New 2-CG
   NFREE  =      0    steps in history (QN), initial steepest desc. (CG)
   ISIF   =      3    stress and relaxation
   IWAVPR =     10    prediction:  0-non 1-charg 2-wave 3-comb
   ISYM   =      2    0-nonsym 1-usesym 2-fastsym
   LCORR  =      T    Harris-Foulkes like correction to forces

   POTIM  = 0.5000    time-step for ionic-motion
   TEIN   =    0.0    initial temperature
   TEBEG  =    0.0;   TEEND  =   0.0 temperature during run
   SMASS  =  -3.00    Nose mass-parameter (am)
   estimated Nose-frequenzy (Omega)   =  0.10E-29 period in steps = 0.13E+47 mass=  -0.146E-26a.u.
   SCALEE = 1.0000    scale energy and forces
   NPACO  =    256;   APACO  = 10.0  distance and # of slots for P.C.
   PSTRESS=    0.0 pullay stress

  Mass of Ions in am
   POMASS =  47.88 69.72 26.98
  Ionic Valenz
   ZVAL   =  12.00 13.00  3.00
  Atomic Wigner-Seitz radii
   RWIGS  =  -1.00 -1.00 -1.00
  virtual crystal weights 
   VCA    =   1.00  1.00  1.00
   NELECT =     260.0000    total number of electrons
   NUPDOWN=      -1.0000    fix difference up-down

 DOS related values:
   EMIN   =  10.00;   EMAX   =-10.00  energy-range for DOS
   EFERMI =   0.00;   METHOD = LEGACY      
   ISMEAR =     1;   SIGMA  =   0.10  broadening in eV -4-tet -1-fermi 0-gaus
   EFERMI_NEDOS =   21; number of points for ismear=-14 and -15

 Electronic relaxation 2 (details)
   IALGO  =     38    algorithm
   LDIAG  =      T    sub-space diagonalisation (order eigenvalues)
   LSUBROT=      F    optimize rotation matrix (better conditioning)
   TURBO    =      0    0=normal 1=particle mesh
   IRESTART =      0    0=no restart 2=restart with 2 vectors
   NREBOOT  =      0    no. of reboots
   NMIN     =      0    reboot dimension
   EREF     =   0.00    reference energy to select bands
   IMIX   =      4    mixing-type and parameters
     AMIX     =   0.40;   BMIX     =  1.00
     AMIX_MAG =   1.60;   BMIX_MAG =  1.00
     AMIN     =   0.10
     WC   =   100.;   INIMIX=   1;  MIXPRE=   1;  MAXMIX= -45

 Intra band minimization:
   WEIMIN = 0.0000     energy-eigenvalue tresh-hold
   EBREAK =  0.13E-07  absolut break condition
   DEPER  =   0.30     relativ break condition  

   TIME   =   0.40     timestep for ELM

  volume/ion in A,a.u.               =      46.50       313.80
  Fermi-wavevector in a.u.,A,eV,Ry     =   0.915228  1.729530 11.396815  0.837642
  Thomas-Fermi vector in A             =   2.039945
 
 Write flags
   LWAVE        =      T    write WAVECAR
   LDOWNSAMPLE  =      F    k-point downsampling of WAVECAR
   LCHARG       =      T    write CHGCAR
   LVTOT        =      F    write LOCPOT, total local potential
   LVHAR        =      T    write LOCPOT, Hartree potential only
   WRT_POTENTIAL=  hartree ionic  ! write potential to hdf5 file
   LELF         =      F    write electronic localiz. function (ELF)
   LORBIT       =      0    0 simple, 1 ext, 2 COOP (PROOUT), +10 PAW based schemes


 Python interface
   PLUGINS active      =      F    recompile with -DPLUGINS to activate
 
 Dipole corrections
   LMONO      =      F    monopole corrections only (constant potential shift)
   LDIPOL     =      F    correct potential (dipole corrections)
   IDIPOL     =      0    1-x, 2-y, 3-z, 4-all directions 
   EPSILON    =  1.0000000 bulk dielectric constant
   LVACPOTAV  =      F  vacuum potentials using an averaging scheme for the charge density
   VACPOTFLAT =  0.1000000 required flatness to determine vacuum potential
 
Coulomb truncation method
  LTRUNCATE          =      F  Coulomb kernel truncation to be used
  IDIMENSIONALITY    =      3  Dimensionality of cutoff (0 molecules / 2 surfaces)
  ISURFACE           =     -1  Direction of surface normal
  LCOARSEN           =      F  Coarsen the charge grid before padding, preferred

 
 Exchange correlation treatment:
   GGA     = PE    functional components
   XC_C    = 1    coefficients multiplying the functional components
   LIBXC   =     F    Libxc                    
   VOSKOWN =     0    Vosko Wilk Nusair interpolation
   LHFCALC =     F    Hartree Fock is set to
   LHFONE  =     F    Hartree Fock one center treatment
   AEXX    =    0.0000 exact exchange contribution

 Parameters of functionals:
   PE:
     No parameter
 
 Van der Waals corrections
   IVDW    =     0    specifies the selected vdW correction

 Linear response parameters
   LEPSILON=     F    determine dielectric tensor
   LRPA    =     F    only Hartree local field effects (RPA)
   LNABLA  =     F    use nabla operator in PAW spheres
   LVEL    =     F    velocity operator in full k-point grid
   CSHIFT  =0.1000    complex shift for real part using Kramers Kronig
   OMEGAMAX=  -1.0    maximum frequency
   DEG_THRESHOLD= 0.2000000E-02 threshold for treating states as degnerate
   RTIME   =   -0.100 relaxation time in fs
  (WPLASMAI=    0.000 imaginary part of plasma frequency in eV, 0.658/RTIME)
   DFIELD  = 0.0000000 0.0000000 0.0000000 field for delta impulse in time
 
  Optional k-point grid parameters
   LKPOINTS_OPT  =     F    use optional k-point grid
   KPOINTS_OPT_MODE=     1    mode for optional k-point grid
 
 Orbital magnetization related:
   ORBITALMAG=     F  switch on orbital magnetization
   LCHIMAG   =     F  perturbation theory with respect to B field
   DQ        =  0.001000  dq finite difference perturbation B field
   LLRAUG    =     F  two centre corrections for induced B field
   LBONE     =     F  B-component reconstruction in AE one-centre
   LVGVCALC  =     T  calculate vGv susceptibility
   LVGVAPPL  =     F  apply vGv susceptibility instead of pGv for G=0

 Random number generation:
   RANDOM_GENERATOR = DEFAULT
   PCG_SEED         = not used


--------------------------------------------------------------------------------------------------------


 Static calculation
 charge density and potential will be updated during run
 non-spin polarized calculation
 Variant of blocked Davidson
 Davidson routine will perform the subspace rotation
 perform sub-space diagonalisation
    after iterative eigenvector-optimisation
 modified Broyden-mixing scheme, WC =      100.0
 initial mixing is a Kerker type mixing with AMIX =  0.4000 and BMIX =      1.0000
 Hartree-type preconditioning will be used
 using additional bands           62
 reciprocal scheme for non local part
 use partial core corrections
 calculate Harris-corrections to forces 
   (improved forces if not selfconsistent)
 use gradient corrections 
 use of overlap-Matrix (Vanderbilt PP)
 Methfessel and Paxton  Order N= 1 SIGMA  =   0.10


--------------------------------------------------------------------------------------------------------


  energy-cutoff  :      520.00
  volume of cell :     1488.02
      direct lattice vectors                 reciprocal lattice vectors
     7.983640111  0.000000000  0.000000000     0.125256147 -0.000000000 -0.000000000
     0.000000000  8.109982462  0.000000000     0.000000000  0.123304829 -0.000000000
     0.000000000  0.000000000 22.982066090     0.000000000  0.000000000  0.043512189

  length of vectors
     7.983640111  8.109982462 22.982066090     0.125256147  0.123304829  0.043512189


 
 k-points in units of 2pi/SCALE and weight: K-Spacing Value to Generate K-Mesh: 0.03
   0.00000000  0.00000000  0.00000000       0.062
   0.03131404  0.00000000  0.00000000       0.125
   0.06262807  0.00000000  0.00000000       0.062
   0.00000000  0.03082621  0.00000000       0.125
   0.03131404  0.03082621  0.00000000       0.250
   0.06262807  0.03082621  0.00000000       0.125
   0.00000000  0.06165241  0.00000000       0.062
   0.03131404  0.06165241  0.00000000       0.125
   0.06262807  0.06165241  0.00000000       0.062
 
 k-points in reciprocal lattice and weights: K-Spacing Value to Generate K-Mesh: 0.03
   0.00000000  0.00000000  0.00000000       0.062
   0.25000000  0.00000000  0.00000000       0.125
   0.50000000  0.00000000  0.00000000       0.062
   0.00000000  0.25000000  0.00000000       0.125
   0.25000000  0.25000000  0.00000000       0.250
   0.50000000  0.25000000  0.00000000       0.125
   0.00000000  0.50000000  0.00000000       0.062
   0.25000000  0.50000000  0.00000000       0.125
   0.50000000  0.50000000  0.00000000       0.062
 
 position of ions in fractional coordinates (direct lattice) 
   0.00000000  0.99938281  0.32640991
   0.50000000  0.99938281  0.50010273
   0.00000000  0.50061719  0.32640991
   0.50000000  0.50061719  0.50010273
   0.75019716  0.99938281  0.41318783
   0.25019716  0.99938281  0.58688066
   0.75019716  0.50061719  0.41318783
   0.25019716  0.50061719  0.58688066
   0.24980284  0.99938281  0.41318783
   0.74980284  0.99938281  0.58688066
   0.24980284  0.50061719  0.41318783
   0.74980284  0.50061719  0.58688066
   0.00000000  0.99938281  0.49996576
   0.50000000  0.99938281  0.67365858
   0.00000000  0.50061719  0.49996576
   0.50000000  0.50061719  0.67365858
   0.00000000  0.75000000  0.41318783
   0.50000000  0.75000000  0.58688066
   0.00000000  0.25000000  0.41318783
   0.50000000  0.25000000  0.58688066
   0.75000000  0.75000000  0.50003424
   0.25000000  0.75000000  0.32634142
   0.75000000  0.25000000  0.50003424
   0.25000000  0.25000000  0.32634142
   0.25000000  0.75000000  0.50003424
   0.75000000  0.75000000  0.32634142
   0.25000000  0.25000000  0.50003424
   0.75000000  0.25000000  0.32634142
   0.00000000  0.75000000  0.58688066
   0.50000000  0.75000000  0.41318783
   0.00000000  0.25000000  0.58688066
   0.50000000  0.25000000  0.41318783
 
 position of ions in cartesian coordinates  (Angst):
   0.00000000  8.10497704  7.50157402
   3.99182006  8.10497704 11.49339408
   0.00000000  4.05999665  7.50157402
   3.99182006  4.05999665 11.49339408
   5.98930410  8.10497704  9.49591003
   1.99748405  8.10497704 13.48773008
   5.98930410  4.05999665  9.49591003
   1.99748405  4.05999665 13.48773008
   1.99433601  8.10497704  9.49591003
   5.98615606  8.10497704 13.48773008
   1.99433601  4.05999665  9.49591003
   5.98615606  4.05999665 13.48773008
   0.00000000  8.10497704 11.49024603
   3.99182006  8.10497704 15.48206609
   0.00000000  4.05999665 11.49024603
   3.99182006  4.05999665 15.48206609
   0.00000000  6.08248685  9.49591003
   3.99182006  6.08248685 13.48773008
   0.00000000  2.02749562  9.49591003
   3.99182006  2.02749562 13.48773008
   5.98773008  6.08248685 11.49182006
   1.99591003  6.08248685  7.50000000
   5.98773008  2.02749562 11.49182006
   1.99591003  2.02749562  7.50000000
   1.99591003  6.08248685 11.49182006
   5.98773008  6.08248685  7.50000000
   1.99591003  2.02749562 11.49182006
   5.98773008  2.02749562  7.50000000
   0.00000000  6.08248685 13.48773008
   3.99182006  6.08248685  9.49591003
   0.00000000  2.02749562 13.48773008
   3.99182006  2.02749562  9.49591003
 


--------------------------------------------------------------------------------------------------------


 k-point     1 :   0.0000 0.0000 0.0000  plane waves:   39991
 k-point     2 :   0.2500 0.0000 0.0000  plane waves:   40068
 k-point     3 :   0.5000 0.0000 0.0000  plane waves:   40054
 k-point     4 :   0.0000 0.2500 0.0000  plane waves:   40062
 k-point     5 :   0.2500 0.2500 0.0000  plane waves:   40055
 k-point     6 :   0.5000 0.2500 0.0000  plane waves:   40084
 k-point     7 :   0.0000 0.5000 0.0000  plane waves:   40138
 k-point     8 :   0.2500 0.5000 0.0000  plane waves:   40106
 k-point     9 :   0.5000 0.5000 0.0000  plane waves:   40084

 maximum and minimum number of plane-waves per node :     40138    39991

 maximum number of plane-waves:     40138
 maximum index in each direction: 
   IXMAX=   14   IYMAX=   15   IZMAX=   42
   IXMIN=  -15   IYMIN=  -15   IZMIN=  -42


 serial   3D FFT for wavefunctions
 parallel 3D FFT for charge:
    minimum data exchange during FFTs selected (reduces bandwidth)


 total amount of memory used by VASP MPI-rank0   242652. kBytes
=======================================================================

   base                                    :      30000. kBytes
   nonl-proj                               :     176844. kBytes
   fftplans                                :       2758. kBytes
   grid                                    :      14997. kBytes
   one-center                              :        497. kBytes
   wavefun                                 :      17556. kBytes
 
     INWAV:  cpu time      0.0000: real time      0.0000
 Broyden mixing: mesh for mixing (old mesh)
   NGX = 29   NGY = 31   NGZ = 85
  (NGX  = 96   NGY  = 96   NGZ  =256)
  gives a total of  76415 points

 initial charge density was supplied:
 charge density of overlapping atoms calculated
 number of electron     260.0000000 magnetization 
 keeping initial charge density in first step


--------------------------------------------------------------------------------------------------------


 Maximum index for augmentation-charges          451 (set IRDMAX)


--------------------------------------------------------------------------------------------------------


 First call to EWALD:  gamma=   0.155
 Maximum number of real-space cells   4x   4x   2
 Maximum number of reciprocal cells   2x   2x   5

    FEWALD:  cpu time      0.0019: real time      0.0019


--------------------------------------- Ionic step        1  -------------------------------------------




--------------------------------------- Iteration      1(   1)  ---------------------------------------


    POTLOK:  cpu time      0.0430: real time      0.0430
    SETDIJ:  cpu time      0.0028: real time      0.0028
     EDDAV:  cpu time      6.0172: real time      6.0186
       DOS:  cpu time      0.0004: real time      0.0004
    --------------------------------------------
      LOOP:  cpu time      6.0633: real time      6.0648

 eigenvalue-minimisations  :  3456
 total energy-change (2. order) : 0.2422681E+04  (-0.1283944E+05)
 number of electron     260.0000000 magnetization 
 augmentation part      260.0000000 magnetization 

 Free energy of the ion-electron system (eV)
  ---------------------------------------------------
  alpha Z        PSCENC =       265.18332506
  Ewald energy   TEWEN  =     55857.92080792
  -Hartree energ DENC   =    -82030.80912882
  -exchange      EXHF   =         0.00000000
  -V(xc)+E(xc)   XCENC  =       702.71640950
  PAW double counting   =     24366.15670160   -24272.54104771
  entropy T*S    EENTRO =        -0.00802668
  eigenvalues    EBANDS =     -2922.49055893
  atomic energy  EATOM  =     30456.55260990
  Solvation  Ediel_sol  =         0.00000000
  ---------------------------------------------------
  free energy    TOTEN  =      2422.68109183 eV

  energy without entropy =     2422.68911852  energy(sigma->0) =     2422.68376739


--------------------------------------------------------------------------------------------------------




--------------------------------------- Iteration      1(   2)  ---------------------------------------


     EDDAV:  cpu time      6.3969: real time      6.3980
       DOS:  cpu time      0.0004: real time      0.0004
    --------------------------------------------
      LOOP:  cpu time      6.3973: real time      6.3984

 eigenvalue-minimisations  :  3712
 total energy-change (2. order) :-0.2338858E+04  (-0.2263086E+04)
 number of electron     260.0000000 magnetization 
 augmentation part      260.0000000 magnetization 

 Free energy of the ion-electron system (eV)
  ---------------------------------------------------
  alpha Z        PSCENC =       265.18332506
  Ewald energy   TEWEN  =     55857.92080792
  -Hartree energ DENC   =    -82030.80912882
  -exchange      EXHF   =         0.00000000
  -V(xc)+E(xc)   XCENC  =       702.71640950
  PAW double counting   =     24366.15670160   -24272.54104771
  entropy T*S    EENTRO =         0.00730460
  eigenvalues    EBANDS =     -5261.36346339
  atomic energy  EATOM  =     30456.55260990
  Solvation  Ediel_sol  =         0.00000000
  ---------------------------------------------------
  free energy    TOTEN  =        83.82351866 eV

  energy without entropy =       83.81621406  energy(sigma->0) =       83.82108379


--------------------------------------------------------------------------------------------------------




--------------------------------------- Iteration      1(   3)  ---------------------------------------


     EDDAV:  cpu time     12.9035: real time     12.9046
       DOS:  cpu time      0.0004: real time      0.0004
    --------------------------------------------
      LOOP:  cpu time     12.9038: real time     12.9049

 eigenvalue-minimisations  :  6912
 total energy-change (2. order) :-0.2655525E+03  (-0.2598591E+03)
 number of electron     260.0000000 magnetization 
 augmentation part      260.0000000 magnetization 

 Free energy of the ion-electron system (eV)
  ---------------------------------------------------
  alpha Z        PSCENC =       265.18332506
  Ewald energy   TEWEN  =     55857.92080792
  -Hartree energ DENC   =    -82030.80912882
  -exchange      EXHF   =         0.00000000
  -V(xc)+E(xc)   XCENC  =       702.71640950
  PAW double counting   =     24366.15670160   -24272.54104771
  entropy T*S    EENTRO =        -0.00762893
  eigenvalues    EBANDS =     -5526.90103107
  atomic energy  EATOM  =     30456.55260990
  Solvation  Ediel_sol  =         0.00000000
  ---------------------------------------------------
  free energy    TOTEN  =      -181.72898255 eV

  energy without entropy =     -181.72135362  energy(sigma->0) =     -181.72643958


--------------------------------------------------------------------------------------------------------




--------------------------------------- Iteration      1(   4)  ---------------------------------------


     EDDAV:  cpu time      9.4195: real time      9.4200
       DOS:  cpu time      0.0004: real time      0.0004
    --------------------------------------------
      LOOP:  cpu time      9.4199: real time      9.4204

 eigenvalue-minimisations  :  5248
 total energy-change (2. order) :-0.3372039E+02  (-0.3342658E+02)
 number of electron     260.0000000 magnetization 
 augmentation part      260.0000000 magnetization 

 Free energy of the ion-electron system (eV)
  ---------------------------------------------------
  alpha Z        PSCENC =       265.18332506
  Ewald energy   TEWEN  =     55857.92080792
  -Hartree energ DENC   =    -82030.80912882
  -exchange      EXHF   =         0.00000000
  -V(xc)+E(xc)   XCENC  =       702.71640950
  PAW double counting   =     24366.15670160   -24272.54104771
  entropy T*S    EENTRO =        -0.00840359
  eigenvalues    EBANDS =     -5560.62064550
  atomic energy  EATOM  =     30456.55260990
  Solvation  Ediel_sol  =         0.00000000
  ---------------------------------------------------
  free energy    TOTEN  =      -215.44937165 eV

  energy without entropy =     -215.44096806  energy(sigma->0) =     -215.44657045


--------------------------------------------------------------------------------------------------------




--------------------------------------- Iteration      1(   5)  ---------------------------------------


     EDDAV:  cpu time     10.3978: real time     10.3988
       DOS:  cpu time      0.0004: real time      0.0004
    CHARGE:  cpu time      0.1251: real time      0.1251
    MIXING:  cpu time      0.0007: real time      0.0007
    --------------------------------------------
      LOOP:  cpu time     10.5239: real time     10.5250

 eigenvalue-minimisations  :  5760
 total energy-change (2. order) :-0.3269887E+01  (-0.3269237E+01)
 number of electron     260.0000191 magnetization 
 augmentation part       71.7105473 magnetization 

 Broyden mixing:
  rms(total) = 0.38923E+01    rms(broyden)= 0.38923E+01
  rms(prec ) = 0.45976E+01
  weight for this iteration     100.00

 Free energy of the ion-electron system (eV)
  ---------------------------------------------------
  alpha Z        PSCENC =       265.18332506
  Ewald energy   TEWEN  =     55857.92080792
  -Hartree energ DENC   =    -82030.80912882
  -exchange      EXHF   =         0.00000000
  -V(xc)+E(xc)   XCENC  =       702.71640950
  PAW double counting   =     24366.15670160   -24272.54104771
  entropy T*S    EENTRO =        -0.00863369
  eigenvalues    EBANDS =     -5563.89030217
  atomic energy  EATOM  =     30456.55260990
  Solvation  Ediel_sol  =         0.00000000
  ---------------------------------------------------
  free energy    TOTEN  =      -218.71925842 eV

  energy without entropy =     -218.71062473  energy(sigma->0) =     -218.71638052


--------------------------------------------------------------------------------------------------------




--------------------------------------- Iteration      1(   6)  ---------------------------------------


    POTLOK:  cpu time      0.0349: real time      0.0349
    SETDIJ:  cpu time      0.0024: real time      0.0024
     EDDAV:  cpu time     10.7145: real time     10.7152
       DOS:  cpu time      0.0004: real time      0.0004
    CHARGE:  cpu time      0.1228: real time      0.1228
    MIXING:  cpu time      0.0007: real time      0.0007
    --------------------------------------------
      LOOP:  cpu time     10.8756: real time     10.8763

 eigenvalue-minimisations  :  5760
 total energy-change (2. order) :-0.9009796E+02  (-0.6677785E+02)
 number of electron     260.0000245 magnetization 
 augmentation part       87.7587477 magnetization 

 Broyden mixing:
  rms(total) = 0.89518E+01    rms(broyden)= 0.89517E+01
  rms(prec ) = 0.12855E+02
  weight for this iteration     100.00

 eigenvalues of (default mixing * dielectric matrix)
  average eigenvalue GAMMA=   0.2563
  0.2563

 Free energy of the ion-electron system (eV)
  ---------------------------------------------------
  alpha Z        PSCENC =       265.18332506
  Ewald energy   TEWEN  =     55857.92080792
  -Hartree energ DENC   =    -81880.38120361
  -exchange      EXHF   =         0.00000000
  -V(xc)+E(xc)   XCENC  =       680.05421082
  PAW double counting   =     25896.76860698   -25814.22805510
  entropy T*S    EENTRO =        -0.00314251
  eigenvalues    EBANDS =     -5770.68437745
  atomic energy  EATOM  =     30456.55260990
  Solvation  Ediel_sol  =         0.00000000
  ---------------------------------------------------
  free energy    TOTEN  =      -308.81721800 eV

  energy without entropy =     -308.81407549  energy(sigma->0) =     -308.81617050


--------------------------------------------------------------------------------------------------------




--------------------------------------- Iteration      1(   7)  ---------------------------------------


    POTLOK:  cpu time      0.0355: real time      0.0355
    SETDIJ:  cpu time      0.0024: real time      0.0024
     EDDAV:  cpu time     10.8546: real time     10.8547
       DOS:  cpu time      0.0004: real time      0.0004
    CHARGE:  cpu time      0.1236: real time      0.1236
    MIXING:  cpu time      0.0006: real time      0.0006
    --------------------------------------------
      LOOP:  cpu time     11.0171: real time     11.0172

 eigenvalue-minimisations  :  5760
 total energy-change (2. order) : 0.7782136E+02  (-0.4122937E+02)
 number of electron     260.0000222 magnetization 
 augmentation part       82.0267088 magnetization 

 Broyden mixing:
  rms(total) = 0.60647E+01    rms(broyden)= 0.60645E+01
  rms(prec ) = 0.88382E+01
  weight for this iteration     100.00

 eigenvalues of (default mixing * dielectric matrix)
  average eigenvalue GAMMA=   0.2862
  0.4317  0.1406

 Free energy of the ion-electron system (eV)
  ---------------------------------------------------
  alpha Z        PSCENC =       265.18332506
  Ewald energy   TEWEN  =     55857.92080792
  -Hartree energ DENC   =    -81924.42383278
  -exchange      EXHF   =         0.00000000
  -V(xc)+E(xc)   XCENC  =       685.94716727
  PAW double counting   =     26207.41745817   -26119.28973714
  entropy T*S    EENTRO =         0.00049094
  eigenvalues    EBANDS =     -5660.30414822
  atomic energy  EATOM  =     30456.55260990
  Solvation  Ediel_sol  =         0.00000000
  ---------------------------------------------------
  free energy    TOTEN  =      -230.99585889 eV

  energy without entropy =     -230.99634983  energy(sigma->0) =     -230.99602254


--------------------------------------------------------------------------------------------------------




--------------------------------------- Iteration      1(   8)  ---------------------------------------


    POTLOK:  cpu time      0.0340: real time      0.0353
    SETDIJ:  cpu time      0.0024: real time      0.0024
     EDDAV:  cpu time     10.0583: real time     10.0592
       DOS:  cpu time      0.0005: real time      0.0005
    CHARGE:  cpu time      0.1232: real time      0.1232
    MIXING:  cpu time      0.0008: real time      0.0008
    --------------------------------------------
      LOOP:  cpu time     10.2192: real time     10.2214

 eigenvalue-minimisations  :  5440
 total energy-change (2. order) : 0.3673599E+02  (-0.1868475E+02)
 number of electron     260.0000203 magnetization 
 augmentation part       76.6575347 magnetization 

 Broyden mixing:
  rms(total) = 0.31595E+01    rms(broyden)= 0.31593E+01
  rms(prec ) = 0.39618E+01
  weight for this iteration     100.00

 eigenvalues of (default mixing * dielectric matrix)
  average eigenvalue GAMMA=   0.3697
  0.7558  0.2133  0.1399

 Free energy of the ion-electron system (eV)
  ---------------------------------------------------
  alpha Z        PSCENC =       265.18332506
  Ewald energy   TEWEN  =     55857.92080792
  -Hartree energ DENC   =    -81985.68194152
  -exchange      EXHF   =         0.00000000
  -V(xc)+E(xc)   XCENC  =       690.53204473
  PAW double counting   =     26586.13008700   -26492.20348811
  entropy T*S    EENTRO =         0.01386069
  eigenvalues    EBANDS =     -5572.70717583
  atomic energy  EATOM  =     30456.55260990
  Solvation  Ediel_sol  =         0.00000000
  ---------------------------------------------------
  free energy    TOTEN  =      -194.25987016 eV

  energy without entropy =     -194.27373085  energy(sigma->0) =     -194.26449039


--------------------------------------------------------------------------------------------------------




--------------------------------------- Iteration      1(   9)  ---------------------------------------


    POTLOK:  cpu time      0.0379: real time      0.0379
    SETDIJ:  cpu time      0.0024: real time      0.0024
     EDDAV:  cpu time      9.4034: real time      9.4038
       DOS:  cpu time      0.0004: real time      0.0004
    CHARGE:  cpu time      0.1152: real time      0.1152
    MIXING:  cpu time      0.0009: real time      0.0009
    --------------------------------------------
      LOOP:  cpu time      9.5602: real time      9.5606

 eigenvalue-minimisations  :  5120
 total energy-change (2. order) : 0.1058772E+02  (-0.6508968E+01)
 number of electron     260.0000178 magnetization 
 augmentation part       73.7373204 magnetization 

 Broyden mixing:
  rms(total) = 0.15103E+01    rms(broyden)= 0.15101E+01
  rms(prec ) = 0.17367E+01
  weight for this iteration     100.00

 eigenvalues of (default mixing * dielectric matrix)
  average eigenvalue GAMMA=   0.4341
  1.0770  0.3008  0.2235  0.1350

 Free energy of the ion-electron system (eV)
  ---------------------------------------------------
  alpha Z        PSCENC =       265.18332506
  Ewald energy   TEWEN  =     55857.92080792
  -Hartree energ DENC   =    -82147.55619613
  -exchange      EXHF   =         0.00000000
  -V(xc)+E(xc)   XCENC  =       692.15083525
  PAW double counting   =     27106.58243667   -27005.25584532
  entropy T*S    EENTRO =         0.00070725
  eigenvalues    EBANDS =     -5409.25082739
  atomic energy  EATOM  =     30456.55260990
  Solvation  Ediel_sol  =         0.00000000
  ---------------------------------------------------
  free energy    TOTEN  =      -183.67214679 eV

  energy without entropy =     -183.67285404  energy(sigma->0) =     -183.67238254


--------------------------------------------------------------------------------------------------------




--------------------------------------- Iteration      1(  10)  ---------------------------------------


    POTLOK:  cpu time      0.0357: real time      0.0357
    SETDIJ:  cpu time      0.0025: real time      0.0025
     EDDAV:  cpu time      9.3701: real time      9.3710
       DOS:  cpu time      0.0004: real time      0.0004
    CHARGE:  cpu time      0.1230: real time      0.1230
    MIXING:  cpu time      0.0008: real time      0.0008
    --------------------------------------------
      LOOP:  cpu time      9.5325: real time      9.5334

 eigenvalue-minimisations  :  5120
 total energy-change (2. order) : 0.3969623E+01  (-0.1054985E+01)
 number of electron     260.0000183 magnetization 
 augmentation part       74.5919253 magnetization 

 Broyden mixing:
  rms(total) = 0.94421E+00    rms(broyden)= 0.94418E+00
  rms(prec ) = 0.10504E+01
  weight for this iteration     100.00

 eigenvalues of (default mixing * dielectric matrix)
  average eigenvalue GAMMA=   0.5034
  1.3750  0.4019  0.4019  0.1360  0.2021

 Free energy of the ion-electron system (eV)
  ---------------------------------------------------
  alpha Z        PSCENC =       265.18332506
  Ewald energy   TEWEN  =     55857.92080792
  -Hartree energ DENC   =    -82083.51661325
  -exchange      EXHF   =         0.00000000
  -V(xc)+E(xc)   XCENC  =       689.56164976
  PAW double counting   =     27489.16635878   -27382.53367541
  entropy T*S    EENTRO =        -0.00551222
  eigenvalues    EBANDS =     -5472.03147442
  atomic energy  EATOM  =     30456.55260990
  Solvation  Ediel_sol  =         0.00000000
  ---------------------------------------------------
  free energy    TOTEN  =      -179.70252388 eV

  energy without entropy =     -179.69701166  energy(sigma->0) =     -179.70068647


--------------------------------------------------------------------------------------------------------




--------------------------------------- Iteration      1(  11)  ---------------------------------------


    POTLOK:  cpu time      0.0350: real time      0.0350
    SETDIJ:  cpu time      0.0024: real time      0.0024
     EDDAV:  cpu time      9.2683: real time      9.2686
       DOS:  cpu time      0.0004: real time      0.0004
    CHARGE:  cpu time      0.1152: real time      0.1152
    MIXING:  cpu time      0.0008: real time      0.0008
    --------------------------------------------
      LOOP:  cpu time      9.4222: real time      9.4225

 eigenvalue-minimisations  :  5120
 total energy-change (2. order) : 0.7103480E+00  (-0.5652138E+00)
 number of electron     260.0000186 magnetization 
 augmentation part       75.5739784 magnetization 

 Broyden mixing:
  rms(total) = 0.10156E+01    rms(broyden)= 0.10155E+01
  rms(prec ) = 0.11783E+01
  weight for this iteration     100.00

 eigenvalues of (default mixing * dielectric matrix)
  average eigenvalue GAMMA=   0.5292
  1.6290  0.5615  0.4555  0.1362  0.2147  0.1781

 Free energy of the ion-electron system (eV)
  ---------------------------------------------------
  alpha Z        PSCENC =       265.18332506
  Ewald energy   TEWEN  =     55857.92080792
  -Hartree energ DENC   =    -82066.90256702
  -exchange      EXHF   =         0.00000000
  -V(xc)+E(xc)   XCENC  =       687.89884424
  PAW double counting   =     27821.38875525   -27708.63737556
  entropy T*S    EENTRO =         0.00303162
  eigenvalues    EBANDS =     -5492.39960731
  atomic energy  EATOM  =     30456.55260990
  Solvation  Ediel_sol  =         0.00000000
  ---------------------------------------------------
  free energy    TOTEN  =      -178.99217590 eV

  energy without entropy =     -178.99520752  energy(sigma->0) =     -178.99318644


--------------------------------------------------------------------------------------------------------




--------------------------------------- Iteration      1(  12)  ---------------------------------------


    POTLOK:  cpu time      0.0350: real time      0.0350
    SETDIJ:  cpu time      0.0025: real time      0.0025
     EDDAV:  cpu time      9.2604: real time      9.2605
       DOS:  cpu time      0.0004: real time      0.0004
    CHARGE:  cpu time      0.1134: real time      0.1134
    MIXING:  cpu time      0.0008: real time      0.0008
    --------------------------------------------
      LOOP:  cpu time      9.4125: real time      9.4126

 eigenvalue-minimisations  :  5120
 total energy-change (2. order) : 0.8154615E+00  (-0.3878017E+00)
 number of electron     260.0000187 magnetization 
 augmentation part       75.9262867 magnetization 

 Broyden mixing:
  rms(total) = 0.68626E+00    rms(broyden)= 0.68621E+00
  rms(prec ) = 0.84310E+00
  weight for this iteration     100.00

 eigenvalues of (default mixing * dielectric matrix)
  average eigenvalue GAMMA=   0.5922
  1.7887  1.1060  0.4130  0.3219  0.2228  0.1373  0.1557

 Free energy of the ion-electron system (eV)
  ---------------------------------------------------
  alpha Z        PSCENC =       265.18332506
  Ewald energy   TEWEN  =     55857.92080792
  -Hartree energ DENC   =    -82058.26282225
  -exchange      EXHF   =         0.00000000
  -V(xc)+E(xc)   XCENC  =       686.77935487
  PAW double counting   =     28110.71875681   -27990.87822616
  entropy T*S    EENTRO =        -0.01007387
  eigenvalues    EBANDS =     -5506.18044672
  atomic energy  EATOM  =     30456.55260990
  Solvation  Ediel_sol  =         0.00000000
  ---------------------------------------------------
  free energy    TOTEN  =      -178.17671445 eV

  energy without entropy =     -178.16664058  energy(sigma->0) =     -178.17335649


--------------------------------------------------------------------------------------------------------




--------------------------------------- Iteration      1(  13)  ---------------------------------------


    POTLOK:  cpu time      0.0344: real time      0.0344
    SETDIJ:  cpu time      0.0025: real time      0.0025
     EDDAV:  cpu time      9.9228: real time      9.9232
       DOS:  cpu time      0.0004: real time      0.0004
    CHARGE:  cpu time      0.1241: real time      0.1242
    MIXING:  cpu time      0.0008: real time      0.0008
    --------------------------------------------
      LOOP:  cpu time     10.0851: real time     10.0855

 eigenvalue-minimisations  :  5504
 total energy-change (2. order) : 0.3113532E+00  (-0.3616185E+00)
 number of electron     260.0000188 magnetization 
 augmentation part       76.1941543 magnetization 

 Broyden mixing:
  rms(total) = 0.52270E+00    rms(broyden)= 0.52266E+00
  rms(prec ) = 0.61629E+00
  weight for this iteration     100.00

 eigenvalues of (default mixing * dielectric matrix)
  average eigenvalue GAMMA=   0.6766
  1.7986  1.7986  0.6096  0.4598  0.2308  0.2308  0.1389  0.1457

 Free energy of the ion-electron system (eV)
  ---------------------------------------------------
  alpha Z        PSCENC =       265.18332506
  Ewald energy   TEWEN  =     55857.92080792
  -Hartree energ DENC   =    -82094.66882561
  -exchange      EXHF   =         0.00000000
  -V(xc)+E(xc)   XCENC  =       686.53410248
  PAW double counting   =     28370.66143484   -28241.62509519
  entropy T*S    EENTRO =        -0.00567193
  eigenvalues    EBANDS =     -5478.41804870
  atomic energy  EATOM  =     30456.55260990
  Solvation  Ediel_sol  =         0.00000000
  ---------------------------------------------------
  free energy    TOTEN  =      -177.86536124 eV

  energy without entropy =     -177.85968931  energy(sigma->0) =     -177.86347060


--------------------------------------------------------------------------------------------------------




--------------------------------------- Iteration      1(  14)  ---------------------------------------


    POTLOK:  cpu time      0.0356: real time      0.0356
    SETDIJ:  cpu time      0.0027: real time      0.0027
     EDDAV:  cpu time      9.2160: real time      9.2163
       DOS:  cpu time      0.0004: real time      0.0004
    CHARGE:  cpu time      0.1229: real time      0.1229
    MIXING:  cpu time      0.0009: real time      0.0009
    --------------------------------------------
      LOOP:  cpu time      9.3785: real time      9.3787

 eigenvalue-minimisations  :  5120
 total energy-change (2. order) : 0.2850436E-01  (-0.1588571E+00)
 number of electron     260.0000187 magnetization 
 augmentation part       75.8831133 magnetization 

 Broyden mixing:
  rms(total) = 0.38898E+00    rms(broyden)= 0.38896E+00
  rms(prec ) = 0.47440E+00
  weight for this iteration     100.00

 eigenvalues of (default mixing * dielectric matrix)
  average eigenvalue GAMMA=   0.6758
  1.9713  1.9713  0.6735  0.4573  0.2792  0.2228  0.2228  0.1390  0.1447

 Free energy of the ion-electron system (eV)
  ---------------------------------------------------
  alpha Z        PSCENC =       265.18332506
  Ewald energy   TEWEN  =     55857.92080792
  -Hartree energ DENC   =    -82109.81205790
  -exchange      EXHF   =         0.00000000
  -V(xc)+E(xc)   XCENC  =       687.12781362
  PAW double counting   =     28360.57705634   -28224.71084826
  entropy T*S    EENTRO =        -0.00555447
  eigenvalues    EBANDS =     -5470.67000909
  atomic energy  EATOM  =     30456.55260990
  Solvation  Ediel_sol  =         0.00000000
  ---------------------------------------------------
  free energy    TOTEN  =      -177.83685688 eV

  energy without entropy =     -177.83130240  energy(sigma->0) =     -177.83500539


--------------------------------------------------------------------------------------------------------




--------------------------------------- Iteration      1(  15)  ---------------------------------------


    POTLOK:  cpu time      0.0347: real time      0.0347
    SETDIJ:  cpu time      0.0025: real time      0.0025
     EDDAV:  cpu time      9.2138: real time      9.2140
       DOS:  cpu time      0.0005: real time      0.0005
    CHARGE:  cpu time      0.1236: real time      0.1236
    MIXING:  cpu time      0.0012: real time      0.0012
    --------------------------------------------
      LOOP:  cpu time      9.3763: real time      9.3764

 eigenvalue-minimisations  :  5120
 total energy-change (2. order) : 0.1423893E+00  (-0.8731129E-01)
 number of electron     260.0000187 magnetization 
 augmentation part       75.8006736 magnetization 

 Broyden mixing:
  rms(total) = 0.17923E+00    rms(broyden)= 0.17920E+00
  rms(prec ) = 0.23380E+00
  weight for this iteration     100.00

 eigenvalues of (default mixing * dielectric matrix)
  average eigenvalue GAMMA=   0.7448
  2.2140  2.2140  0.9390  0.6888  0.4359  0.1389  0.1452  0.2417  0.2216  0.2088

 Free energy of the ion-electron system (eV)
  ---------------------------------------------------
  alpha Z        PSCENC =       265.18332506
  Ewald energy   TEWEN  =     55857.92080792
  -Hartree energ DENC   =    -82121.19899893
  -exchange      EXHF   =         0.00000000
  -V(xc)+E(xc)   XCENC  =       687.43190920
  PAW double counting   =     28348.07123365   -28208.85028162
  entropy T*S    EENTRO =        -0.00982087
  eigenvalues    EBANDS =     -5462.79525192
  atomic energy  EATOM  =     30456.55260990
  Solvation  Ediel_sol  =         0.00000000
  ---------------------------------------------------
  free energy    TOTEN  =      -177.69446763 eV

  energy without entropy =     -177.68464675  energy(sigma->0) =     -177.69119400


--------------------------------------------------------------------------------------------------------




--------------------------------------- Iteration      1(  16)  ---------------------------------------


    POTLOK:  cpu time      0.0358: real time      0.0358
    SETDIJ:  cpu time      0.0025: real time      0.0025
     EDDAV:  cpu time     10.2985: real time     10.2986
       DOS:  cpu time      0.0004: real time      0.0004
    CHARGE:  cpu time      0.1224: real time      0.1224
    MIXING:  cpu time      0.0009: real time      0.0009
    --------------------------------------------
      LOOP:  cpu time     10.4605: real time     10.4606

 eigenvalue-minimisations  :  5760
 total energy-change (2. order) : 0.3152097E-01  (-0.1807725E-01)
 number of electron     260.0000187 magnetization 
 augmentation part       75.8338140 magnetization 

 Broyden mixing:
  rms(total) = 0.10768E+00    rms(broyden)= 0.10767E+00
  rms(prec ) = 0.15121E+00
  weight for this iteration     100.00

 eigenvalues of (default mixing * dielectric matrix)
  average eigenvalue GAMMA=   0.7764
  2.5464  1.6343  1.6343  0.7311  0.5953  0.4465  0.1390  0.1451  0.2309  0.2309
  0.2070

 Free energy of the ion-electron system (eV)
  ---------------------------------------------------
  alpha Z        PSCENC =       265.18332506
  Ewald energy   TEWEN  =     55857.92080792
  -Hartree energ DENC   =    -82142.75908716
  -exchange      EXHF   =         0.00000000
  -V(xc)+E(xc)   XCENC  =       687.57811688
  PAW double counting   =     28415.23557537   -28269.80604145
  entropy T*S    EENTRO =        -0.00982930
  eigenvalues    EBANDS =     -5447.55842386
  atomic energy  EATOM  =     30456.55260990
  Solvation  Ediel_sol  =         0.00000000
  ---------------------------------------------------
  free energy    TOTEN  =      -177.66294665 eV

  energy without entropy =     -177.65311735  energy(sigma->0) =     -177.65967022


--------------------------------------------------------------------------------------------------------




--------------------------------------- Iteration      1(  17)  ---------------------------------------


    POTLOK:  cpu time      0.0354: real time      0.0354
    SETDIJ:  cpu time      0.0024: real time      0.0024
     EDDAV:  cpu time     11.3192: real time     11.3201
       DOS:  cpu time      0.0004: real time      0.0004
    CHARGE:  cpu time      0.1266: real time      0.1266
    MIXING:  cpu time      0.0012: real time      0.0012
    --------------------------------------------
      LOOP:  cpu time     11.4852: real time     11.4860

 eigenvalue-minimisations  :  5184
 total energy-change (2. order) :-0.5762250E-02  (-0.9620873E-02)
 number of electron     260.0000187 magnetization 
 augmentation part       75.8450335 magnetization 

 Broyden mixing:
  rms(total) = 0.13259E+00    rms(broyden)= 0.13257E+00
  rms(prec ) = 0.17477E+00
  weight for this iteration     100.00

 eigenvalues of (default mixing * dielectric matrix)
  average eigenvalue GAMMA=   0.8143
  2.3218  2.3218  1.6283  0.8992  0.6058  0.6058  0.4354  0.1390  0.1450  0.2311
  0.2311  0.2067

 Free energy of the ion-electron system (eV)
  ---------------------------------------------------
  alpha Z        PSCENC =       265.18332506
  Ewald energy   TEWEN  =     55857.92080792
  -Hartree energ DENC   =    -82155.64048516
  -exchange      EXHF   =         0.00000000
  -V(xc)+E(xc)   XCENC  =       687.72438461
  PAW double counting   =     28424.90812753   -28277.54394515
  entropy T*S    EENTRO =        -0.00874524
  eigenvalues    EBANDS =     -5436.76478837
  atomic energy  EATOM  =     30456.55260990
  Solvation  Ediel_sol  =         0.00000000
  ---------------------------------------------------
  free energy    TOTEN  =      -177.66870890 eV

  energy without entropy =     -177.65996366  energy(sigma->0) =     -177.66579382


--------------------------------------------------------------------------------------------------------




--------------------------------------- Iteration      1(  18)  ---------------------------------------


    POTLOK:  cpu time      0.0341: real time      0.0341
    SETDIJ:  cpu time      0.0026: real time      0.0026
     EDDAV:  cpu time      9.1761: real time      9.1763
       DOS:  cpu time      0.0004: real time      0.0004
    CHARGE:  cpu time      0.1244: real time      0.1244
    MIXING:  cpu time      0.0010: real time      0.0010
    --------------------------------------------
      LOOP:  cpu time      9.3388: real time      9.3390

 eigenvalue-minimisations  :  5056
 total energy-change (2. order) : 0.7714819E-02  (-0.6186529E-02)
 number of electron     260.0000186 magnetization 
 augmentation part       75.7321547 magnetization 

 Broyden mixing:
  rms(total) = 0.48581E-01    rms(broyden)= 0.48563E-01
  rms(prec ) = 0.63553E-01
  weight for this iteration     100.00

 eigenvalues of (default mixing * dielectric matrix)
  average eigenvalue GAMMA=   0.8369
  2.3883  2.3883  1.4078  1.4078  0.7480  0.5996  0.5498  0.4375  0.1390  0.1450
  0.2312  0.2312  0.2066

 Free energy of the ion-electron system (eV)
  ---------------------------------------------------
  alpha Z        PSCENC =       265.18332506
  Ewald energy   TEWEN  =     55857.92080792
  -Hartree energ DENC   =    -82163.99166211
  -exchange      EXHF   =         0.00000000
  -V(xc)+E(xc)   XCENC  =       687.92852695
  PAW double counting   =     28408.10239834   -28259.70613642
  entropy T*S    EENTRO =        -0.00856366
  eigenvalues    EBANDS =     -5429.64230006
  atomic energy  EATOM  =     30456.55260990
  Solvation  Ediel_sol  =         0.00000000
  ---------------------------------------------------
  free energy    TOTEN  =      -177.66099408 eV

  energy without entropy =     -177.65243043  energy(sigma->0) =     -177.65813953


--------------------------------------------------------------------------------------------------------




--------------------------------------- Iteration      1(  19)  ---------------------------------------


    POTLOK:  cpu time      0.0346: real time      0.0346
    SETDIJ:  cpu time      0.0023: real time      0.0023
     EDDAV:  cpu time      9.4728: real time      9.4729
       DOS:  cpu time      0.0004: real time      0.0004
    CHARGE:  cpu time      0.1147: real time      0.1147
    MIXING:  cpu time      0.0010: real time      0.0010
    --------------------------------------------
      LOOP:  cpu time      9.6259: real time      9.6260

 eigenvalue-minimisations  :  5248
 total energy-change (2. order) :-0.6162180E-03  (-0.3213895E-03)
 number of electron     260.0000186 magnetization 
 augmentation part       75.7226961 magnetization 

 Broyden mixing:
  rms(total) = 0.26315E-01    rms(broyden)= 0.26315E-01
  rms(prec ) = 0.35071E-01
[...]
     73     -13.6706      2.00000
     74     -13.6328      2.00000
     75      -7.3785      2.00000
     76      -7.0685      2.00000
     77      -6.8819      2.00000
     78      -6.7730      2.00000
     79      -5.7934      2.00000
     80      -5.7675      2.00000
     81      -5.5571      2.00000
     82      -5.3970      2.00000
     83      -4.0608      2.00000
     84      -3.8753      2.00000
     85      -3.8250      2.00000
     86      -3.7699      2.00000
     87      -3.3014      2.00000
     88      -3.1041      2.00000
     89      -3.0716      2.00000
     90      -3.0394      2.00000
     91      -2.2658      2.00000
     92      -2.2190      2.00000
     93      -2.1651      2.00000
     94      -2.1603      2.00000
     95      -1.8226      2.00000
     96      -1.7930      2.00000
     97      -1.7551      2.00000
     98      -1.6486      2.00000
     99      -1.5903      2.00000
    100      -1.5067      2.00000
    101      -1.4962      2.00000
    102      -1.4672      2.00000
    103      -1.4261      2.00000
    104      -1.3876      2.00000
    105      -1.1702      2.00000
    106      -1.1450      2.00000
    107      -0.9652      2.00000
    108      -0.9505      2.00000
    109      -0.7706      2.00000
    110      -0.7311      2.00000
    111      -0.4478      2.00000
    112      -0.4255      2.00000
    113      -0.3653      2.00000
    114      -0.3408      2.00000
    115      -0.2059      2.00000
    116      -0.2048      2.00000
    117      -0.1947      2.00000
    118      -0.1672      2.00000
    119       0.1515      2.00000
    120       0.1571      2.00000
    121       0.1851      2.00000
    122       0.2160      2.00000
    123       0.2274      2.00000
    124       0.2320      2.00000
    125       0.2471      2.00001
    126       0.2847      2.00008
    127       0.3992      2.01558
    128       0.4296      2.03672
    129       0.5228      1.96498
    130       0.5424      1.81806
    131       0.6101      0.83045
    132       0.6249      0.59288
    133       0.8297     -0.00546
    134       0.8336     -0.00467
    135       0.8562     -0.00175
    136       0.8643     -0.00119
    137       0.9636     -0.00000
    138       1.0020     -0.00000
    139       1.0090     -0.00000
    140       1.0416     -0.00000
    141       1.1549     -0.00000
    142       1.1693     -0.00000
    143       1.3794     -0.00000
    144       1.3845     -0.00000
    145       1.5396     -0.00000
    146       1.5531     -0.00000
    147       1.5582     -0.00000
    148       1.5680     -0.00000
    149       1.6654     -0.00000
    150       1.6696     -0.00000
    151       1.6731     -0.00000
    152       1.6741     -0.00000
    153       1.7613     -0.00000
    154       1.7871     -0.00000
    155       2.0297     -0.00000
    156       2.0302     -0.00000
    157       2.0573     -0.00000
    158       2.1142     -0.00000
    159       2.1597     -0.00000
    160       2.1872     -0.00000
    161       2.2016     -0.00000
    162       2.2047     -0.00000
    163       2.2209     -0.00000
    164       2.2426     -0.00000
    165       2.3165     -0.00000
    166       2.3453     -0.00000
    167       2.3480     -0.00000
    168       2.3882     -0.00000
    169       2.5415     -0.00000
    170       2.6044      0.00000
    171       2.6463      0.00000
    172       2.6769      0.00000
    173       2.6990      0.00000
    174       2.7187      0.00000
    175       2.7452      0.00000
    176       2.7763      0.00000
    177       2.8967      0.00000
    178       2.9218      0.00000
    179       2.9825      0.00000
    180       3.0100      0.00000
    181       3.0221      0.00000
    182       3.0290      0.00000
    183       3.0536      0.00000
    184       3.1389      0.00000
    185       3.1565      0.00000
    186       3.1870      0.00000
    187       3.5067      0.00000
    188       3.5141      0.00000
    189       3.5153      0.00000
    190       3.5592      0.00000
    191       3.7735      0.00000
    192       3.8175      0.00000


--------------------------------------------------------------------------------------------------------


 soft charge-density along one line, spin component           1
         0         1         2         3         4         5         6         7         8         9
 total charge-density along one line
 
 pseudopotential strength for first ion, spin component:           1
 -2.747 -23.968   0.002  -0.020  -0.000  -0.002   0.006   0.000
-23.968  11.218   0.001   0.020  -0.000   0.000  -0.003  -0.000
  0.002   0.001 -27.282   0.005  -0.000  10.451  -0.004   0.000
 -0.020   0.020   0.005 -27.449  -0.000  -0.004  10.559   0.000
 -0.000  -0.000  -0.000  -0.000 -27.198   0.000   0.000  10.394
 -0.002   0.000  10.451  -0.004   0.000   5.074   0.001  -0.000
  0.006  -0.003  -0.004  10.559   0.000   0.001   5.028  -0.000
  0.000  -0.000   0.000   0.000  10.394  -0.000  -0.000   5.096
 -0.000  -0.000  -0.000  -0.000   0.002   0.000   0.000  -0.001
  0.003   0.001  -0.001   0.001  -0.000   0.002  -0.001   0.000
 -0.090  -0.019  -0.001  -0.001   0.000   0.001   0.002  -0.000
 -0.000  -0.000  -0.000  -0.000  -0.010   0.000   0.000   0.006
  0.029   0.009  -0.001  -0.004  -0.000   0.001   0.002   0.000
 -0.000  -0.000  -0.000  -0.000   0.002   0.000   0.000  -0.001
  0.004   0.002  -0.002   0.001  -0.000   0.004  -0.001   0.000
 -0.111  -0.021  -0.002  -0.003   0.000   0.001   0.004  -0.000
 -0.000  -0.000  -0.000  -0.000  -0.013   0.000   0.000   0.009
  0.036   0.010  -0.002  -0.005  -0.000   0.001   0.002   0.000
 total augmentation occupancy for first ion, spin component:           1
  1.995  -0.055  -0.000  -0.003  -0.000  -0.000  -0.006  -0.000   0.000   0.002  -0.027  -0.000   0.011  -0.000  -0.002   0.031
 -0.055   1.258  -0.000  -0.021  -0.000   0.005   0.098   0.000   0.000   0.033  -0.217  -0.000   0.133  -0.000  -0.011   0.111
 -0.000  -0.000   1.984  -0.000   0.000  -0.037   0.000  -0.000  -0.000  -0.030   0.001  -0.000  -0.000   0.000   0.021  -0.001
 -0.003  -0.021  -0.000   1.984   0.000   0.000  -0.035  -0.000   0.000   0.001  -0.040  -0.000   0.004  -0.000  -0.001   0.028
 -0.000  -0.000   0.000   0.000   1.983  -0.000  -0.000  -0.037  -0.001  -0.000  -0.000  -0.025  -0.000   0.001   0.000   0.000
 -0.000   0.005  -0.037   0.000  -0.000   0.083   0.001   0.000   0.000   0.100   0.001   0.000  -0.002  -0.000  -0.064  -0.000
 -0.006   0.098   0.000  -0.035  -0.000   0.001   0.051   0.000  -0.000   0.003   0.150   0.000  -0.002   0.000   0.000  -0.069
 -0.000   0.000  -0.000  -0.000  -0.037   0.000   0.000   0.106  -0.001   0.000   0.000   0.169   0.000  -0.000  -0.000  -0.000
  0.000   0.000  -0.000   0.000  -0.001   0.000  -0.000  -0.001   2.375   0.000  -0.000   0.020   0.000  -0.975  -0.000   0.000
  0.002   0.033  -0.030   0.001  -0.000   0.100   0.003   0.000   0.000   1.592   0.015   0.000   0.001  -0.000  -0.644  -0.001
 -0.027  -0.217   0.001  -0.040  -0.000   0.001   0.150   0.000  -0.000   0.015   1.096   0.000  -0.103   0.000  -0.000  -0.501
 -0.000  -0.000  -0.000  -0.000  -0.025   0.000   0.000   0.169   0.020   0.000   0.000   1.393   0.000  -0.011  -0.000  -0.000
  0.011   0.133  -0.000   0.004  -0.000  -0.002  -0.002   0.000   0.000   0.001  -0.103   0.000   1.407  -0.000  -0.006   0.069
 -0.000  -0.000   0.000  -0.000   0.001  -0.000   0.000  -0.000  -0.975  -0.000   0.000  -0.011  -0.000   0.446   0.000  -0.000
 -0.002  -0.011   0.021  -0.001   0.000  -0.064   0.000  -0.000  -0.000  -0.644  -0.000  -0.000  -0.006   0.000   0.291  -0.003
  0.031   0.111  -0.001   0.028   0.000  -0.000  -0.069  -0.000   0.000  -0.001  -0.501  -0.000   0.069  -0.000  -0.003   0.245
  0.000   0.000   0.000   0.000   0.017  -0.000  -0.000  -0.056  -0.011  -0.000  -0.000  -0.397  -0.000   0.005   0.000   0.000
 -0.012  -0.020   0.001  -0.002   0.000   0.001   0.015  -0.000  -0.000  -0.005   0.064  -0.000  -0.537   0.000   0.006  -0.034


------------------------ aborting loop because EDIFF is reached ----------------------------------------


    CHARGE:  cpu time      0.1143: real time      0.1143
    FORLOC:  cpu time      0.0027: real time      0.0027
    FORNL :  cpu time      3.0682: real time      3.0683
    STRESS:  cpu time      6.5100: real time      6.5101
    FORCOR:  cpu time      0.0310: real time      0.0310
    FORHAR:  cpu time      0.0082: real time      0.0082
    MIXING:  cpu time      0.0015: real time      0.0015
    OFIELD:  cpu time      0.0000: real time      0.0000

  FORCE on cell =-STRESS in cart. coord.  units (eV):
  Direction    XX          YY          ZZ          XY          YZ          ZX
  --------------------------------------------------------------------------------------
  Alpha Z   265.18333   265.18333   265.18333
  Ewald   66906.64759 67316.52647-78365.30462    -0.00000    -0.00000    -0.00000
  Hartree 74492.28637 74825.71936-67133.24685    -0.00000    -0.00000    -0.00000
  E(xc)   -1283.46748 -1285.93278 -1285.08666     0.00000     0.00000    -0.00000
  Local  ************************142413.24669    -0.00000     0.00000     0.00000
  n-local  -292.22349  -188.91618  -282.04846     0.06053     0.00000    -0.00000
  augment  1234.77295  1196.44241  1223.58722    -0.00000     0.00000     0.00000
  Kinetic  3177.25881  3054.53246  3154.60470     0.22875    -0.00000     0.00000
  Fock        0.00000     0.00000     0.00000     0.00000     0.00000     0.00000
  -------------------------------------------------------------------------------------
  Total     -18.25544   -20.85040    -9.06466    -0.00000    -0.00000    -0.00000
  in kB     -19.65590   -22.44993    -9.76005    -0.00000    -0.00000    -0.00000
  external pressure =      -17.29 kB  Pullay stress =        0.00 kB


 VOLUME and BASIS-vectors are now :
 -----------------------------------------------------------------------------
  energy-cutoff  :      520.00
  volume of cell :     1488.02
      direct lattice vectors                 reciprocal lattice vectors
     7.983640111  0.000000000  0.000000000     0.125256147 -0.000000000 -0.000000000
     0.000000000  8.109982462  0.000000000     0.000000000  0.123304829 -0.000000000
     0.000000000  0.000000000 22.982066090     0.000000000  0.000000000  0.043512189

  length of vectors
     7.983640111  8.109982462 22.982066090     0.125256147  0.123304829  0.043512189


 FORCES acting on ions
    electron-ion (+dipol)            ewald-force                    non-local-force                 convergence-correction
 -----------------------------------------------------------------------------------------------
   0.214E-13 -.130E+03 0.232E+04   -.406E-13 0.130E+03 -.232E+04   -.114E-15 -.207E+00 -.467E+01   -.332E-12 0.238E-04 0.767E-03
   0.936E-12 -.156E+03 0.446E+02   0.396E-14 0.156E+03 -.457E+02   0.122E-16 -.214E+00 0.118E+01   -.569E-13 -.147E-04 -.406E-03
   0.636E-14 0.130E+03 0.232E+04   -.122E-13 -.130E+03 -.232E+04   -.888E-16 0.207E+00 -.467E+01   -.237E-12 -.238E-04 0.767E-03
   0.935E-12 0.156E+03 0.446E+02   -.142E-13 -.156E+03 -.457E+02   0.390E-16 0.214E+00 0.118E+01   -.112E-13 0.147E-04 -.406E-03
   0.283E+03 -.146E+03 0.128E+04   -.283E+03 0.146E+03 -.128E+04   -.702E+00 -.228E+00 0.301E+00   -.154E-03 -.122E-04 0.119E-02
   0.283E+03 -.145E+03 -.154E+04   -.283E+03 0.146E+03 0.153E+04   -.746E+00 -.194E+00 0.230E+01   -.799E-03 -.134E-04 -.239E-02
   0.283E+03 0.146E+03 0.128E+04   -.283E+03 -.146E+03 -.128E+04   -.702E+00 0.228E+00 0.301E+00   -.154E-03 0.122E-04 0.119E-02
   0.283E+03 0.145E+03 -.154E+04   -.283E+03 -.146E+03 0.153E+04   -.746E+00 0.194E+00 0.230E+01   -.799E-03 0.134E-04 -.239E-02
   -.283E+03 -.146E+03 0.128E+04   0.283E+03 0.146E+03 -.128E+04   0.702E+00 -.228E+00 0.301E+00   0.154E-03 -.122E-04 0.119E-02
   -.283E+03 -.145E+03 -.154E+04   0.283E+03 0.146E+03 0.153E+04   0.746E+00 -.194E+00 0.230E+01   0.799E-03 -.134E-04 -.239E-02
   -.283E+03 0.146E+03 0.128E+04   0.283E+03 -.146E+03 -.128E+04   0.702E+00 0.228E+00 0.301E+00   0.154E-03 0.122E-04 0.119E-02
   -.283E+03 0.145E+03 -.154E+04   0.283E+03 -.146E+03 0.153E+04   0.746E+00 0.194E+00 0.230E+01   0.799E-03 0.134E-04 -.239E-02
   0.250E-13 -.156E+03 -.304E+03   0.381E-13 0.156E+03 0.305E+03   -.434E-16 -.222E+00 -.136E+01   -.220E-13 -.289E-04 -.345E-04
   0.105E-11 -.129E+03 -.239E+04   0.445E-13 0.130E+03 0.238E+04   0.125E-15 -.275E+00 0.652E+01   0.446E-14 -.155E-04 -.120E-02
   -.172E-13 0.156E+03 -.304E+03   0.131E-12 -.156E+03 0.305E+03   -.157E-16 0.222E+00 -.136E+01   0.472E-13 0.289E-04 -.345E-04
   0.105E-11 0.129E+03 -.239E+04   0.372E-13 -.130E+03 0.238E+04   0.159E-15 0.275E+00 0.652E+01   0.107E-12 0.155E-04 -.120E-02
   0.195E-14 0.218E-11 0.123E+04   0.151E-12 -.262E-13 -.123E+04   0.184E-16 0.184E-16 0.847E+00   -.172E-12 -.656E-13 0.126E-02
   0.170E-11 0.652E-11 -.150E+04   0.955E-13 -.539E-13 0.151E+04   -.646E-16 -.646E-16 -.297E+01   -.139E-13 0.352E-13 -.323E-02
   0.140E-13 -.200E-12 0.280E+03   0.833E-14 0.167E-13 -.280E+03   -.281E-17 -.281E-17 -.129E+00   -.111E-13 0.833E-14 0.255E-03
   -.209E-13 0.185E-12 -.343E+03   -.907E-15 0.220E-13 0.343E+03   0.624E-17 0.624E-17 0.287E+00   -.110E-13 -.124E-13 -.706E-03
   -.423E-02 0.127E-12 -.331E+02   -.764E-13 -.238E-14 0.333E+02   -.335E-02 0.000E+00 -.505E-01   -.158E-04 0.119E-13 -.479E-04
   -.107E+03 0.516E-12 0.582E+03   0.104E+03 -.247E-13 -.579E+03   0.284E+01 -.468E-16 -.218E+01   0.334E-04 -.267E-13 0.205E-03
   0.263E-01 -.455E-12 -.331E+02   -.690E-13 0.786E-14 0.333E+02   -.199E-01 0.000E+00 -.578E-01   -.166E-04 -.106E-13 -.510E-04
   -.823E+02 -.146E-12 0.553E+03   0.789E+02 -.177E-13 -.550E+03   0.294E+01 -.520E-16 -.237E+01   0.317E-04 0.198E-13 0.201E-03
   0.423E-02 0.377E-12 -.331E+02   0.240E-13 -.370E-14 0.333E+02   0.335E-02 0.000E+00 -.505E-01   0.158E-04 0.900E-14 -.479E-04
   0.107E+03 0.119E-11 0.582E+03   -.104E+03 0.213E-13 -.579E+03   -.284E+01 -.468E-16 -.218E+01   -.334E-04 -.117E-13 0.205E-03
   -.263E-01 -.474E-12 -.331E+02   0.283E-13 0.180E-13 0.333E+02   0.199E-01 0.000E+00 -.578E-01   0.166E-04 -.817E-14 -.510E-04
   0.823E+02 0.293E-11 0.553E+03   -.789E+02 0.336E-13 -.550E+03   -.294E+01 -.520E-16 -.237E+01   -.317E-04 0.361E-14 0.201E-03
   0.288E-13 0.230E-12 -.426E+03   -.100E-13 0.579E-15 0.424E+03   0.432E-16 0.432E-16 0.199E+01   0.121E-13 0.256E-13 -.394E-03
   -.432E-14 0.973E-12 0.362E+03   -.520E-14 -.311E-14 -.360E+03   -.337E-16 -.337E-16 -.155E+01   0.180E-13 -.101E-13 0.260E-03
   0.265E-13 0.350E-14 -.413E+03   -.248E-13 0.131E-14 0.411E+03   0.432E-16 0.432E-16 0.199E+01   0.150E-13 -.168E-13 -.390E-03
   -.213E-13 0.101E-11 0.349E+03   -.482E-13 -.450E-14 -.347E+03   -.330E-16 -.330E-16 -.152E+01   0.982E-14 0.259E-14 0.257E-03
 -----------------------------------------------------------------------------------------------
   0.118E-10 0.397E-10 -.335E+01   0.396E-13 -.157E-12 -.114E-12   0.464E-15 0.168E-15 0.336E+01   -.851E-12 -.219E-12 -.864E-02
 
 
 POSITION                                       TOTAL-FORCE (eV/Angst)
 -----------------------------------------------------------------------------------
      0.00000      8.10498      7.50157         0.000000      0.020096      0.137014
      3.99182      8.10498     11.49339         0.000000      0.007161      0.060740
      0.00000      4.06000      7.50157         0.000000     -0.020096      0.137014
      3.99182      4.06000     11.49339        -0.000000     -0.007161      0.060740
      5.98930      8.10498      9.49591        -0.394708     -0.020273     -0.475074
      1.99748      8.10498     13.48773        -0.015423     -0.020416      0.382680
      5.98930      4.06000      9.49591        -0.394708      0.020273     -0.475074
      1.99748      4.06000     13.48773        -0.015423      0.020416      0.382680
      1.99434      8.10498      9.49591         0.394708     -0.020273     -0.475074
      5.98616      8.10498     13.48773         0.015423     -0.020416      0.382680
      1.99434      4.06000      9.49591         0.394708      0.020273     -0.475074
      5.98616      4.06000     13.48773         0.015423      0.020416      0.382680
      0.00000      8.10498     11.49025         0.000000      0.006254      0.215313
      3.99182      8.10498     15.48207        -0.000000     -0.074476     -1.515048
      0.00000      4.06000     11.49025         0.000000     -0.006254      0.215313
      3.99182      4.06000     15.48207        -0.000000      0.074476     -1.515048
      0.00000      6.08249      9.49591        -0.000000     -0.000000     -0.060626
      3.99182      6.08249     13.48773         0.000000      0.000000      0.617645
      0.00000      2.02750      9.49591        -0.000000     -0.000000     -0.201021
      3.99182      2.02750     13.48773         0.000000      0.000000      0.505583
      5.98773      6.08249     11.49182        -0.007603      0.000000      0.139885
      1.99591      6.08249      7.50000        -0.396892      0.000000      0.345447
      5.98773      2.02750     11.49182         0.006332      0.000000      0.137343
      1.99591      2.02750      7.50000        -0.440568      0.000000      0.402915
      1.99591      6.08249     11.49182         0.007603      0.000000      0.139885
      5.98773      6.08249      7.50000         0.396892      0.000000      0.345447
      1.99591      2.02750     11.49182        -0.006332      0.000000      0.137343
      5.98773      2.02750      7.50000         0.440568      0.000000      0.402915
      0.00000      6.08249     13.48773        -0.000000      0.000000      0.016795
      3.99182      6.08249      9.49591        -0.000000     -0.000000     -0.186001
      0.00000      2.02750     13.48773        -0.000000     -0.000000     -0.023259
      3.99182      2.02750      9.49591        -0.000000     -0.000000     -0.146759
 -----------------------------------------------------------------------------------
    total drift:                                0.000000      0.000000     -0.000156


--------------------------------------------------------------------------------------------------------



  FREE ENERGIE OF THE ION-ELECTRON SYSTEM (eV)
  ---------------------------------------------------
  free  energy   TOTEN  =      -177.66500110 eV

  energy  without entropy=     -177.65696422  energy(sigma->0) =     -177.66232214
 


--------------------------------------------------------------------------------------------------------


    POTLOK:  cpu time      0.0358: real time      0.0358


--------------------------------------------------------------------------------------------------------


 writing wavefunctions
     LOOP+:  cpu time    306.0499: real time    306.0769
    4ORBIT:  cpu time      0.0000: real time      0.0000

 total amount of memory used by VASP MPI-rank0   242652. kBytes
=======================================================================

   base                                    :      30000. kBytes
   nonl-proj                               :     176844. kBytes
   fftplans                                :       2758. kBytes
   grid                                    :      14997. kBytes
   one-center                              :        497. kBytes
   wavefun                                 :      17556. kBytes
 
  
  
 General timing and accounting informations for this job:
 ========================================================
  
                  Total CPU time used (sec):      314.251
                            User time (sec):      300.621
                          System time (sec):       13.630
                         Elapsed time (sec):      314.538
  
                   Maximum memory used (kb):      433972.
                   Average memory used (kb):          N/A
  
                          Minor page faults:        78711
                          Major page faults:           17
                 Voluntary context switches:          107
