<?xml version="1.0" encoding="ISO-8859-1"?>
<modeling>
 <generator>
  <i name="program" type="string">vasp </i>
  <i name="version" type="string">6.5.0  </i>
  <i name="subversion" type="string">16Dec24 (build Apr 17 2025 17:55:45) complex                          parallel </i>
  <i name="platform" type="string">LinuxIFC </i>
  <i name="date" type="string">2025 06 10 </i>
  <i name="time" type="string">11:34:24 </i>
 </generator>
 <incar>
  <i type="int" name="ISTART">     0</i>
  <i type="string" name="PREC">N</i>
  <i type="string" name="ALGO">N</i>
  <i type="int" name="ICHARG">     2</i>
  <i type="int" name="NELM">   500</i>
  <i type="int" name="IBRION">    -1</i>
  <i name="EDIFF">      0.00001000</i>
  <i name="EDIFFG">     -0.01000000</i>
  <i type="int" name="NSW">     0</i>
  <i type="int" name="ISIF">     3</i>
  <i name="ENCUT">    520.00000000</i>
  <i type="logical" name="LREAL"> F  </i>
  <i type="int" name="ISMEAR">     1</i>
  <i name="SIGMA">      0.10000000</i>
  <i type="logical" name="LVTOT"> T  </i>
  <i type="logical" name="LVHAR"> T  </i>
 </incar>
 <primitive_cell>
  <structure name="primitive_cell" >
   <crystal>
    <varray name="basis" >
     <v>       7.98364011       0.00000000       0.00000000 </v>
     <v>       0.00000000       8.10998246       0.00000000 </v>
     <v>       0.00000000       0.00000000      22.98206609 </v>
    </varray>
    <i name="volume">   1488.02399934 </i>
    <varray name="rec_basis" >
     <v>       0.12525615      -0.00000000      -0.00000000 </v>
     <v>       0.00000000       0.12330483      -0.00000000 </v>
     <v>       0.00000000       0.00000000       0.04351219 </v>
    </varray>
   </crystal>
   <varray name="positions" >
    <v>       1.00000000       0.99938281       0.32640991 </v>
    <v>       0.50000000       0.99938281       0.50010273 </v>
    <v>       1.00000000       0.50061719       0.32640991 </v>
    <v>       0.50000000       0.50061719       0.50010273 </v>
    <v>       0.75019716       0.99938281       0.41318783 </v>
    <v>       0.25019716       0.99938281       0.58688066 </v>
    <v>       0.75019716       0.50061719       0.41318783 </v>
    <v>       0.25019716       0.50061719       0.58688066 </v>
    <v>       0.24980284       0.99938281       0.41318783 </v>
    <v>       0.74980284       0.99938281       0.58688066 </v>
    <v>       0.24980284       0.50061719       0.41318783 </v>
    <v>       0.74980284       0.50061719       0.58688066 </v>
    <v>       1.00000000       0.99938281       0.49996576 </v>
    <v>       0.50000000       0.99938281       0.67365858 </v>
    <v>       1.00000000       0.50061719       0.49996576 </v>
    <v>       0.50000000       0.50061719       0.67365858 </v>
    <v>       1.00000000       0.75000000       0.41318783 </v>
    <v>       0.50000000       0.75000000       0.58688066 </v>
    <v>       1.00000000       0.25000000       0.41318783 </v>
    <v>       0.50000000       0.25000000       0.58688066 </v>
    <v>       0.75000000       0.75000000       0.50003424 </v>
    <v>       0.25000000       0.75000000       0.32634142 </v>
    <v>       0.75000000       0.25000000       0.50003424 </v>
    <v>       0.25000000       0.25000000       0.32634142 </v>
    <v>       0.25000000       0.75000000       0.50003424 </v>
    <v>       0.75000000       0.75000000       0.32634142 </v>
    <v>       0.25000000       0.25000000       0.50003424 </v>
    <v>       0.75000000       0.25000000       0.32634142 </v>
    <v>       1.00000000       0.75000000       0.58688066 </v>
    <v>       0.50000000       0.75000000       0.41318783 </v>
    <v>       1.00000000       0.25000000       0.58688066 </v>
    <v>       0.50000000       0.25000000       0.41318783 </v>
   </varray>
  </structure>
  <varray name="primitive_index" >
   <v type="int" >        1 </v>
   <v type="int" >        2 </v>
   <v type="int" >        3 </v>
   <v type="int" >        4 </v>
   <v type="int" >        5 </v>
   <v type="int" >        6 </v>
   <v type="int" >        7 </v>
   <v type="int" >        8 </v>
   <v type="int" >        9 </v>
   <v type="int" >       10 </v>
   <v type="int" >       11 </v>
   <v type="int" >       12 </v>
   <v type="int" >       13 </v>
   <v type="int" >       14 </v>
   <v type="int" >       15 </v>
   <v type="int" >       16 </v>
   <v type="int" >       17 </v>
   <v type="int" >       18 </v>
   <v type="int" >       19 </v>
   <v type="int" >       20 </v>
   <v type="int" >       21 </v>
   <v type="int" >       22 </v>
   <v type="int" >       23 </v>
   <v type="int" >       24 </v>
   <v type="int" >       25 </v>
   <v type="int" >       26 </v>
   <v type="int" >       27 </v>
   <v type="int" >       28 </v>
   <v type="int" >       29 </v>
   <v type="int" >       30 </v>
   <v type="int" >       31 </v>
   <v type="int" >       32 </v>
  </varray>
 </primitive_cell>
 <kpoints>
  <generation param="Gamma">
   <v type="int" name="divisions">       4        4        1 </v>
   <v name="usershift">      0.00000000       0.00000000       0.00000000 </v>
   <v name="genvec1">      0.25000000      -0.00000000      -0.00000000 </v>
   <v name="genvec2">      0.00000000       0.25000000       0.00000000 </v>
   <v name="genvec3">      0.00000000       0.00000000       1.00000000 </v>
   <v name="shift">      0.00000000       0.00000000       0.00000000 </v>
  </generation>
  <varray name="kpointlist" >
   <v>       0.00000000       0.00000000       0.00000000 </v>
   <v>       0.25000000       0.00000000       0.00000000 </v>
   <v>       0.50000000       0.00000000       0.00000000 </v>
   <v>       0.00000000       0.25000000       0.00000000 </v>
   <v>       0.25000000       0.25000000       0.00000000 </v>
   <v>       0.50000000       0.25000000       0.00000000 </v>
   <v>       0.00000000       0.50000000       0.00000000 </v>
   <v>       0.25000000       0.50000000       0.00000000 </v>
   <v>       0.50000000       0.50000000       0.00000000 </v>
  </varray>
  <varray name="weights" >
   <v>       0.06250000 </v>
   <v>       0.12500000 </v>
   <v>       0.06250000 </v>
   <v>       0.12500000 </v>
   <v>       0.25000000 </v>
   <v>       0.12500000 </v>
   <v>       0.06250000 </v>
   <v>       0.12500000 </v>
   <v>       0.06250000 </v>
  </varray>
 </kpoints>
 <parameters>
  <separator name="general" >
   <i type="string" name="SYSTEM">unknown system</i>
   <i type="logical" name="LCOMPAT"> F  </i>
  </separator>
  <separator name="electronic" >
   <i type="string" name="PREC">n</i>
   <i name="ENMAX">    520.00000000</i>
   <i name="ENAUG">    490.69000000</i>
   <i name="EDIFF">      0.00001000</i>
   <i type="int" name="IALGO">    38</i>
   <i type="int" name="IWAVPR">    10</i>
   <i type="int" name="NBANDS">   192</i>
   <i type="int" name="NBANDSLOW">    -1</i>
   <i type="int" name="NBANDSHIGH">    -1</i>
   <i name="NELECT">    260.00000000</i>
   <i type="int" name="TURBO">     0</i>
   <i type="int" name="IRESTART">     0</i>
   <i type="int" name="NREBOOT">     0</i>
   <i type="int" name="NMIN">     0</i>
   <i name="EREF">      0.00000000</i>
   <separator name="electronic smearing" >
    <i type="int" name="ISMEAR">     1</i>
    <i name="SIGMA">      0.10000000</i>
    <i name="KSPACING">      0.50000000</i>
    <i type="logical" name="KGAMMA"> T  </i>
    <i type="logical" name="KBLOWUP"> T  </i>
   </separator>
   <separator name="electronic projectors" >
    <i type="logical" name="LREAL"> F  </i>
    <v name="ROPT">      0.00000000      0.00000000      0.00000000</v>
    <i type="int" name="LMAXPAW">  -100</i>
    <i type="int" name="LMAXMIX">     2</i>
    <i type="logical" name="NLSPLINE"> F  </i>
   </separator>
   <separator name="electronic startup" >
    <i type="int" name="ISTART">     0</i>
    <i type="int" name="ICHARG">     2</i>
    <i type="int" name="INIWAV">     1</i>
   </separator>
   <separator name="electronic spin" >
    <i type="int" name="ISPIN">     1</i>
    <i type="logical" name="LNONCOLLINEAR"> F  </i>
    <v name="MAGMOM">      1.00000000      1.00000000      1.00000000      1.00000000      1.00000000      1.00000000      1.00000000      1.00000000      1.00000000      1.00000000      1.00000000      1.00000000      1.00000000      1.00000000      1.00000000      1.00000000      1.00000000      1.00000000      1.00000000      1.00000000
      1.00000000      1.00000000      1.00000000      1.00000000      1.00000000      1.00000000      1.00000000      1.00000000      1.00000000      1.00000000      1.00000000      1.00000000</v>
    <i name="NUPDOWN">     -1.00000000</i>
    <i type="logical" name="LSORBIT"> F  </i>
    <v name="SAXIS">      0.00000000      0.00000000      1.00000000</v>
    <i type="logical" name="LSPIRAL"> F  </i>
    <v name="QSPIRAL">      0.00000000      0.00000000      0.00000000</v>
    <i type="logical" name="LZEROZ"> F  </i>
   </separator>
   <separator name="electronic exchange-correlation" >
    <i type="logical" name="LASPH"> F  </i>
   </separator>
   <separator name="electronic convergence" >
    <i type="int" name="NELM">   500</i>
    <i type="int" name="NELMDL">    -5</i>
    <i type="int" name="NELMIN">     2</i>
    <i name="ENINI">    520.00000000</i>
    <separator name="electronic convergence detail" >
     <i type="logical" name="LDIAG"> T  </i>
     <i type="logical" name="LSUBROT"> F  </i>
     <i name="WEIMIN">      0.00000000</i>
     <i name="EBREAK">      0.00000001</i>
     <i name="DEPER">      0.30000000</i>
     <i type="int" name="NRMM">     4</i>
     <i name="TIME">      0.40000000</i>
    </separator>
   </separator>
   <separator name="electronic mixer" >
    <i name="AMIX">      0.40000000</i>
    <i name="BMIX">      1.00000000</i>
    <i name="AMIN">      0.10000000</i>
    <i name="AMIX_MAG">      1.60000000</i>
    <i name="BMIX_MAG">      1.00000000</i>
    <separator name="electronic mixer details" >
     <i type="int" name="IMIX">     4</i>
     <i type="logical" name="MIXFIRST"> F  </i>
     <i type="int" name="MAXMIX">   -45</i>
     <i name="WC">    100.00000000</i>
     <i type="int" name="INIMIX">     1</i>
     <i type="int" name="MIXPRE">     1</i>
     <i type="int" name="MREMOVE">     5</i>
    </separator>
   </separator>
   <separator name="electronic dipolcorrection" >
    <i type="logical" name="LDIPOL"> F  </i>
    <i type="logical" name="LMONO"> F  </i>
    <i type="int" name="IDIPOL">     0</i>
    <i name="EPSILON">      1.00000000</i>
    <v name="DIPOL">   -100.00000000   -100.00000000   -100.00000000</v>
    <i name="EFIELD">      0.00000000</i>
    <i type="logical" name="LVACPOTAV"> F  </i>
   </separator>
  </separator>
  <separator name="grids" >
   <i type="int" name="NGX">    48</i>
   <i type="int" name="NGY">    48</i>
   <i type="int" name="NGZ">   128</i>
   <i type="int" name="NGXF">    96</i>
   <i type="int" name="NGYF">    96</i>
   <i type="int" name="NGZF">   256</i>
   <i type="logical" name="ADDGRID"> F  </i>
  </separator>
  <separator name="ionic" >
   <i type="int" name="NSW">     0</i>
   <i type="int" name="IBRION">    -1</i>
   <i type="int" name="MDALGO">     0</i>
   <i type="int" name="ISIF">     3</i>
   <i name="PSTRESS">      0.00000000</i>
   <i name="EDIFFG">     -0.01000000</i>
   <i type="int" name="NFREE">     0</i>
   <i name="POTIM">      0.50000000</i>
   <i name="SMASS">     -3.00000000</i>
   <i name="SCALEE">      1.00000000</i>
  </separator>
  <separator name="ionic md" >
   <i name="TEBEG">      0.00010000</i>
   <i name="TEEND">      0.00010000</i>
   <i type="int" name="NBLOCK">     1</i>
   <i type="int" name="KBLOCK">     1</i>
   <i type="int" name="NPACO">   256</i>
   <i name="APACO">     10.00000000</i>
  </separator>
  <separator name="symmetry" >
   <i type="int" name="ISYM">     2</i>
   <i name="SYMPREC">      0.00001000</i>
  </separator>
  <separator name="dos" >
   <i type="int" name="LORBIT">     0</i>
   <v name="RWIGS">     -1.00000000     -1.00000000     -1.00000000</v>
   <i type="int" name="NEDOS">   301</i>
   <i name="EMIN">     10.00000000</i>
   <i name="EMAX">    -10.00000000</i>
   <i name="EFERMI">      0.00000000</i>
  </separator>
  <separator name="writing" >
   <i type="int" name="NWRITE">     2</i>
   <i type="logical" name="LWAVE"> T  </i>
   <i type="logical" name="LDOWNSAMPLE"> F  </i>
   <i type="logical" name="LCHARG"> T  </i>
   <i type="logical" name="LPARD"> F  </i>
   <i type="logical" name="LVTOT"> F  </i>
   <i type="logical" name="LVHAR"> T  </i>
   <i type="logical" name="LELF"> F  </i>
   <i type="logical" name="LOPTICS"> F  </i>
   <v name="STM">      0.00000000      0.00000000      0.00000000      0.00000000      0.00000000      0.00000000      0.00000000</v>
  </separator>
  <separator name="performance" >
   <i type="int" name="NPAR">    64</i>
   <i type="int" name="NSIM">     4</i>
   <i type="int" name="NBLK">    -1</i>
   <i type="logical" name="LPLANE"> T  </i>
   <i type="logical" name="LSCALAPACK"> T  </i>
   <i type="logical" name="LSCAAWARE"> F  </i>
   <i type="logical" name="LSCALU"> F  </i>
   <i type="logical" name="LASYNC"> F  </i>
   <i type="logical" name="LORBITALREAL"> F  </i>
  </separator>
  <separator name="miscellaneous" >
   <i type="int" name="IDIOT">     3</i>
   <i type="int" name="PHON_NSTRUCT">    -1</i>
   <i type="logical" name="LMUSIC"> F  </i>
   <v name="POMASS">     47.88000000     69.72300000     26.98100000</v>
   <v name="DARWINR">      0.00000000      0.00000000      0.00000000</v>
   <v name="DARWINV">      1.00000000      1.00000000      1.00000000</v>
   <i type="logical" name="LCORR"> T  </i>
  </separator>
  <i type="logical" name="GGA_COMPAT"> T  </i>
  <i type="logical" name="LBERRY"> F  </i>
  <i type="int" name="ICORELEVEL">     0</i>
  <i type="logical" name="LDAU"> F  </i>
  <i type="int" name="I_CONSTRAINED_M">     0</i>
  <separator name="electronic exchange-correlation" >
   <i type="string" name="GGA    ">PE</i>
   <i type="string" name="XC_C">1</i>
   <i type="int" name="VOSKOWN">     0</i>
   <i type="logical" name="LHFCALC"> F  </i>
   <i type="string" name="PRECFOCK"></i>
   <i type="logical" name="LSYMGRAD"> F  </i>
   <i type="logical" name="LHFONE"> F  </i>
   <i type="logical" name="LRHFCALC"> F  </i>
   <i type="logical" name="LTHOMAS"> F  </i>
   <i type="logical" name="LMODELHF"> F  </i>
   <i type="logical" name="LFOCKACE"> F  </i>
   <i name="ENCUT4O">     -1.00000000</i>
   <i type="int" name="EXXOEP">     0</i>
   <i type="int" name="FOURORBIT">     0</i>
   <i name="AEXX">      0.00000000</i>
   <i name="HFALPHA">      0.00000000</i>
   <i name="MCALPHA">      0.00000000</i>
   <i name="ALDAX">      1.00000000</i>
   <i name="AGGAX">      1.00000000</i>
   <i name="AMGGAX">      1.00000000</i>
   <i name="ALDAC">      1.00000000</i>
   <i name="AGGAC">      1.00000000</i>
   <i name="AMGGAC">      1.00000000</i>
   <i type="int" name="NKREDX">     1</i>
   <i type="int" name="NKREDY">     1</i>
   <i type="int" name="NKREDZ">     1</i>
   <i type="logical" name="SHIFTRED"> F  </i>
   <i type="logical" name="ODDONLY"> F  </i>
   <i type="logical" name="EVENONLY"> F  </i>
   <i type="int" name="LMAXFOCK">     0</i>
   <i type="int" name="NMAXFOCKAE">     0</i>
   <i type="logical" name="LFOCKAEDFT"> F  </i>
   <i name="HFSCREEN">      0.00000000</i>
   <i name="HFSCREENC">      0.00000000</i>
   <i type="int" name="NBANDSGWLOW">     0</i>
  </separator>
  <separator name="vdW DFT" >
   <i type="logical" name="LUSE_VDW"> F  </i>
   <i type="int" name="IVDW_NL">    -1</i>
   <i type="logical" name="LSPIN_VDW"> F  </i>
   <i name="ZAB_VDW">     -0.84910000</i>
   <i name="GAMMA_VDW">      1.39626340</i>
   <i name="ALPHA_VDW">      0.00000000</i>
   <i name="PARAM1">      0.12340000</i>
   <i name="PARAM2">      1.00000000</i>
   <i name="BPARAM">      6.30000000</i>
   <i name="CPARAM">      0.00930000</i>
  </separator>
  <separator name="model GW" >
   <i type="int" name="MODEL_GW">     0</i>
   <i name="MODEL_EPS0">     27.90044999</i>
   <i name="MODEL_ALPHA">      1.00000000</i>
  </separator>
  <separator name="linear response parameters" >
   <i type="logical" name="LEPSILON"> F  </i>
   <i type="logical" name="LRPA"> F  </i>
   <i type="logical" name="LNABLA"> F  </i>
   <i type="logical" name="LVEL"> F  </i>
   <i name="CSHIFT">      0.10000000</i>
   <i name="OMEGAMAX">     -1.00000000</i>
   <i name="DEG_THRESHOLD">      0.00200000</i>
   <i name="RTIME">     -0.10000000</i>
   <i name="WPLASMAI">      0.00000000</i>
   <v name="DFIELD">      0.00000000      0.00000000      0.00000000</v>
   <v name="WPLASMA">      0.00000000      0.00000000      0.00000000      0.00000000      0.00000000      0.00000000      0.00000000      0.00000000      0.00000000</v>
  </separator>
  <separator name="orbital magnetization" >
   <i type="logical" name="NUCIND"> F  </i>
   <v name="MAGPOS">      0.00000000      0.00000000      0.00000000</v>
   <i type="logical" name="LNICSALL"> T  </i>
   <i type="logical" name="ORBITALMAG"> F  </i>
   <i type="logical" name="LMAGBLOCH"> F  </i>
   <i type="logical" name="LCHIMAG"> F  </i>
   <i type="logical" name="LGAUGE"> T  </i>
   <i type="int" name="MAGATOM">     0</i>
   <v name="MAGDIPOL">      0.00000000      0.00000000      0.00000000</v>
   <v name="AVECCONST">      0.00000000      0.00000000      0.00000000</v>
  </separator>
  <separator name="response functions" >
   <i type="logical" name="LALL_IN_ONE"> F  </i>
   <i type="int" name="IALL_IN_ONE">    -1</i>
   <i type="int" name="NBANDS_WAVE">    -1</i>
   <i type="logical" name="LFINITE_TEMPERATURE"> F  </i>
   <i type="logical" name="LADDER"> F  </i>
   <i type="logical" name="LRPAFORCE"> F  </i>
   <i type="logical" name="LFXC"> F  </i>
   <i type="logical" name="LHARTREE"> T  </i>
   <i type="int" name="IBSE">     2</i>
   <v type="int" name="KPOINT">    -1     0     0     0</v>
   <i type="logical" name="LTCTC"> F  </i>
   <i type="logical" name="LTCTE"> F  </i>
   <i type="logical" name="LTETE"> F  </i>
   <i type="logical" name="LTRIPLET"> F  </i>
   <i type="logical" name="LFXCEPS"> F  </i>
   <i type="logical" name="LFXHEG"> F  </i>
   <i type="int" name="NATURALO">     2</i>
   <i type="logical" name="LHOLEGF"> F  </i>
   <i type="logical" name="L2ORDER"> F  </i>
   <i type="logical" name="LDMP1"> F  </i>
   <i type="logical" name="LMP2LT"> F  </i>
   <i type="logical" name="LSMP2LT"> F  </i>
   <i type="logical" name="LGWLF"> F  </i>
   <i name="ENCUTGW">     -1.60000002</i>
   <i name="ENCUTGWSOFT">     -1.60000002</i>
   <i name="ENCUTLF">     -1.00000000</i>
   <i type="logical" name="ESF_SPLINES"> F  </i>
   <i name="ESF_CONV">      0.01000000</i>
   <i type="int" name="ESF_NINTER">    15</i>
   <i type="int" name="LMAXMP2">    -1</i>
   <i name="SCISSOR">      0.00000000</i>
   <i type="int" name="NOMEGA">     0</i>
   <i type="int" name="NOMEGAR">     0</i>
   <i type="int" name="NBANDSGW">    -1</i>
   <i type="int" name="NBANDSO">    -1</i>
   <i type="int" name="NBANDSV">    -1</i>
   <i type="int" name="NELMGW">     1</i>
   <i type="int" name="NELMHF">     1</i>
   <i type="int" name="DIM">     3</i>
   <i type="int" name="IESPILON">     4</i>
   <i type="int" name="ANTIRES">     0</i>
   <i name="OMEGAMAX">    -30.00000000</i>
   <i name="OMEGAMIN">    -30.00000000</i>
   <i name="OMEGATL">   -200.00000000</i>
   <i type="int" name="OMEGAGRID">     0</i>
   <i name="CSHIFT">     -0.10000000</i>
   <i type="logical" name="LSELFENERGY"> F  </i>
   <i type="logical" name="LSPECTRAL"> F  </i>
   <i type="logical" name="LSPECTRALGW"> F  </i>
   <i type="logical" name="LSINGLES"> F  </i>
   <i type="logical" name="LFERMIGW"> F  </i>
   <i type="logical" name="ODDONLYGW"> F  </i>
   <i type="logical" name="EVENONLYGW"> F  </i>
   <i type="int" name="NKREDLFX">     1</i>
   <i type="int" name="NKREDLFY">     1</i>
   <i type="int" name="NKREDLFZ">     1</i>
   <i type="int" name="MAXMEM">  2800</i>
   <i type="int" name="TELESCOPE">     0</i>
   <i type="int" name="NTAUPAR">    -1</i>
   <i type="int" name="NOMEGAPAR">    -1</i>
   <i name="DAMP_NEWTON">      0.80000001</i>
   <i name="LAMBDA">      1.00000000</i>
  </separator>
  <separator name="External order field" >
   <i name="OFIELD_KAPPA">      0.00000000</i>
   <v name="OFIELD_K">      0.00000000      0.00000000      0.00000000</v>
   <i name="OFIELD_Q6_NEAR">      0.00000000</i>
   <i name="OFIELD_Q6_FAR">      0.00000000</i>
   <i name="OFIELD_A">      0.00000000</i>
  </separator>
  <separator name="optional k-points parameters" >
   <i type="int" name="KPOINTS_OPT_MODE">     1</i>
   <i type="logical" name="LKPOINTS_OPT"> F  </i>
  </separator>
 </parameters>
 <atominfo>
  <atoms>      32 </atoms>
  <types>       3 </types>
  <array name="atoms" >
   <dimension dim="1">ion</dimension>
   <field type="string">element</field>
   <field type="int">atomtype</field>
   <set>
    <rc><c>Ti</c><c>   1</c></rc>
    <rc><c>Ti</c><c>   1</c></rc>
    <rc><c>Ti</c><c>   1</c></rc>
    <rc><c>Ti</c><c>   1</c></rc>
    <rc><c>Ti</c><c>   1</c></rc>
    <rc><c>Ti</c><c>   1</c></rc>
    <rc><c>Ti</c><c>   1</c></rc>
    <rc><c>Ti</c><c>   1</c></rc>
    <rc><c>Ti</c><c>   1</c></rc>
    <rc><c>Ti</c><c>   1</c></rc>
    <rc><c>Ti</c><c>   1</c></rc>
    <rc><c>Ti</c><c>   1</c></rc>
    <rc><c>Ti</c><c>   1</c></rc>
    <rc><c>Ti</c><c>   1</c></rc>
    <rc><c>Ti</c><c>   1</c></rc>
    <rc><c>Ti</c><c>   1</c></rc>
    <rc><c>Ga</c><c>   2</c></rc>
    <rc><c>Ga</c><c>   2</c></rc>
    <rc><c>Al</c><c>   3</c></rc>
    <rc><c>Al</c><c>   3</c></rc>
    <rc><c>Al</c><c>   3</c></rc>
    <rc><c>Al</c><c>   3</c></rc>
    <rc><c>Al</c><c>   3</c></rc>
    <rc><c>Al</c><c>   3</c></rc>
    <rc><c>Al</c><c>   3</c></rc>
    <rc><c>Al</c><c>   3</c></rc>
    <rc><c>Al</c><c>   3</c></rc>
    <rc><c>Al</c><c>   3</c></rc>
    <rc><c>Al</c><c>   3</c></rc>
    <rc><c>Al</c><c>   3</c></rc>
    <rc><c>Al</c><c>   3</c></rc>
    <rc><c>Al</c><c>   3</c></rc>
   </set>
  </array>
  <array name="atomtypes" >
   <dimension dim="1">type</dimension>
   <field type="int">atomspertype</field>
   <field type="string">element</field>
   <field>mass</field>
   <field>valence</field>
   <field type="string">pseudopotential</field>
   <set>
    <rc><c>  16</c><c>Ti</c><c>     47.88000000</c><c>     12.00000000</c><c>  PAW_PBE Ti_sv 26Sep2005               </c></rc>
    <rc><c>   2</c><c>Ga</c><c>     69.72300000</c><c>     13.00000000</c><c>  PAW_PBE Ga_d 06Jul2010                </c></rc>
    <rc><c>  14</c><c>Al</c><c>     26.98100000</c><c>      3.00000000</c><c>  PAW_PBE Al 04Jan2001                  </c></rc>
   </set>
  </array>
 </atominfo>
 <structure name="initialpos" >
  <crystal>
   <varray name="basis" >
    <v>       7.98364011       0.00000000       0.00000000 </v>
    <v>       0.00000000       8.10998246       0.00000000 </v>
    <v>       0.00000000       0.00000000      22.98206609 </v>
   </varray>
   <i name="volume">   1488.02399934 </i>
   <varray name="rec_basis" >
    <v>       0.12525615      -0.00000000      -0.00000000 </v>
    <v>       0.00000000       0.12330483      -0.00000000 </v>
    <v>       0.00000000       0.00000000       0.04351219 </v>
   </varray>
  </crystal>
  <varray name="positions" >
   <v>       0.00000000       0.99938281       0.32640991 </v>
   <v>       0.50000000       0.99938281       0.50010273 </v>
   <v>       0.00000000       0.50061719       0.32640991 </v>
   <v>       0.50000000       0.50061719       0.50010273 </v>
   <v>       0.75019716       0.99938281       0.41318783 </v>
   <v>       0.25019716       0.99938281       0.58688066 </v>
   <v>       0.75019716       0.50061719       0.41318783 </v>
   <v>       0.25019716       0.50061719       0.58688066 </v>
   <v>       0.24980284       0.99938281       0.41318783 </v>
   <v>       0.74980284       0.99938281       0.58688066 </v>
   <v>       0.24980284       0.50061719       0.41318783 </v>
   <v>       0.74980284       0.50061719       0.58688066 </v>
   <v>       0.00000000       0.99938281       0.49996576 </v>
   <v>       0.50000000       0.99938281       0.67365858 </v>
   <v>       0.00000000       0.50061719       0.49996576 </v>
   <v>       0.50000000       0.50061719       0.67365858 </v>
   <v>       0.00000000       0.75000000       0.41318783 </v>
   <v>       0.50000000       0.75000000       0.58688066 </v>
   <v>       0.00000000       0.25000000       0.41318783 </v>
   <v>       0.50000000       0.25000000       0.58688066 </v>
   <v>       0.75000000       0.75000000       0.50003424 </v>
   <v>       0.25000000       0.75000000       0.32634142 </v>
   <v>       0.75000000       0.25000000       0.50003424 </v>
   <v>       0.25000000       0.25000000       0.32634142 </v>
   <v>       0.25000000       0.75000000       0.50003424 </v>
   <v>       0.75000000       0.75000000       0.32634142 </v>
   <v>       0.25000000       0.25000000       0.50003424 </v>
   <v>       0.75000000       0.25000000       0.32634142 </v>
   <v>       0.00000000       0.75000000       0.58688066 </v>
   <v>       0.50000000       0.75000000       0.41318783 </v>
   <v>       0.00000000       0.25000000       0.58688066 </v>
   <v>       0.50000000       0.25000000       0.41318783 </v>
  </varray>
 </structure>
 <calculation>
  <scstep>
   <time name="dav">    6.02    6.02</time>
   <time name="total">    6.06    6.06</time>
   <energy>
    <i name="alphaZ">    265.18332506 </i>
    <i name="ewald">  55857.92080792 </i>
    <i name="hartreedc"> -82030.80912882 </i>
    <i name="XCdc">    702.71640950 </i>
    <i name="pawpsdc">  24366.15670160 </i>
    <i name="pawaedc"> -24272.54104771 </i>
    <i name="eentropy">     -0.00802668 </i>
    <i name="bandstr">  -2922.49055893 </i>
    <i name="atom">  30456.55260990 </i>
    <i name="e_fr_energy">   2422.68109183 </i>
    <i name="e_wo_entrp">   2422.68911852 </i>
    <i name="e_0_energy">   2422.68376739 </i>
   </energy>
  </scstep>
  <scstep>
   <time name="dav">    6.40    6.40</time>
   <time name="total">    6.40    6.40</time>
   <energy>
    <i name="e_fr_energy">     83.82351866 </i>
    <i name="e_wo_entrp">     83.81621406 </i>
    <i name="e_0_energy">     83.82108379 </i>
   </energy>
  </scstep>
  <scstep>
   <time name="dav">   12.90   12.90</time>
   <time name="total">   12.90   12.90</time>
   <energy>
    <i name="e_fr_energy">   -181.72898255 </i>
    <i name="e_wo_entrp">   -181.72135362 </i>
    <i name="e_0_energy">   -181.72643958 </i>
   </energy>
  </scstep>
  <scstep>
   <time name="dav">    9.42    9.42</time>
   <time name="total">    9.42    9.42</time>
   <energy>
    <i name="e_fr_energy">   -215.44937165 </i>
    <i name="e_wo_entrp">   -215.44096806 </i>
    <i name="e_0_energy">   -215.44657045 </i>
   </energy>
  </scstep>
  <scstep>
   <time name="dav">   10.40   10.40</time>
   <time name="total">   10.52   10.52</time>
   <energy>
    <i name="e_fr_energy">   -218.71925842 </i>
    <i name="e_wo_entrp">   -218.71062473 </i>
    <i name="e_0_energy">   -218.71638052 </i>
   </energy>
  </scstep>
  <scstep>
   <time name="dav">   10.71   10.72</time>
   <time name="total">   10.88   10.88</time>
   <energy>
    <i name="e_fr_energy">   -308.81721800 </i>
    <i name="e_wo_entrp">   -308.81407549 </i>
    <i name="e_0_energy">   -308.81617050 </i>
   </energy>
  </scstep>
  <scstep>
   <time name="dav">   10.85   10.85</time>
   <time name="total">   11.02   11.02</time>
   <energy>
    <i name="e_fr_energy">   -230.99585889 </i>
    <i name="e_wo_entrp">   -230.99634983 </i>
    <i name="e_0_energy">   -230.99602254 </i>
   </energy>
  </scstep>
  <scstep>
   <time name="dav">   10.06   10.06</time>
   <time name="total">   10.22   10.22</time>
   <energy>
    <i name="e_fr_energy">   -194.25987016 </i>
    <i name="e_wo_entrp">   -194.27373085 </i>
    <i name="e_0_energy">   -194.26449039 </i>
   </energy>
  </scstep>
  <scstep>
   <time name="dav">    9.40    9.40</time>
   <time name="total">    9.56    9.56</time>
   <energy>
    <i name="e_fr_energy">   -183.67214679 </i>
    <i name="e_wo_entrp">   -183.67285404 </i>
    <i name="e_0_energy">   -183.67238254 </i>
   </energy>
  </scstep>
  <scstep>
   <time name="dav">    9.37    9.37</time>
   <time name="total">    9.53    9.53</time>
   <energy>
    <i name="e_fr_energy">   -179.70252388 </i>
    <i name="e_wo_entrp">   -179.69701166 </i>
    <i name="e_0_energy">   -179.70068647 </i>
   </energy>
  </scstep>
  <scstep>
   <time name="dav">    9.27    9.27</time>
   <time name="total">    9.42    9.42</time>
   <energy>
    <i name="e_fr_energy">   -178.99217590 </i>
    <i name="e_wo_entrp">   -178.99520752 </i>
    <i name="e_0_energy">   -178.99318644 </i>
   </energy>
  </scstep>
  <scstep>
   <time name="dav">    9.26    9.26</time>
   <time name="total">    9.41    9.41</time>
   <energy>
    <i name="e_fr_energy">   -178.17671445 </i>
    <i name="e_wo_entrp">   -178.16664058 </i>
    <i name="e_0_energy">   -178.17335649 </i>
   </energy>
  </scstep>
  <scstep>
   <time name="dav">    9.92    9.92</time>
   <time name="total">   10.09   10.09</time>
   <energy>
    <i name="e_fr_energy">   -177.86536124 </i>
    <i name="e_wo_entrp">   -177.85968931 </i>
    <i name="e_0_energy">   -177.86347060 </i>
   </energy>
  </scstep>
  <scstep>
   <time name="dav">    9.22    9.22</time>
   <time name="total">    9.38    9.38</time>
   <energy>
    <i name="e_fr_energy">   -177.83685688 </i>
    <i name="e_wo_entrp">   -177.83130240 </i>
    <i name="e_0_energy">   -177.83500539 </i>
   </energy>
  </scstep>
  <scstep>
   <time name="dav">    9.21    9.21</time>
   <time name="total">    9.38    9.38</time>
   <energy>
    <i name="e_fr_energy">   -177.69446763 </i>
    <i name="e_wo_entrp">   -177.68464675 </i>
    <i name="e_0_energy">   -177.69119400 </i>
   </energy>
  </scstep>
  <scstep>
   <time name="dav">   10.30   10.30</time>
   <time name="total">   10.46   10.46</time>
   <energy>
    <i name="e_fr_energy">   -177.66294665 </i>
    <i name="e_wo_entrp">   -177.65311735 </i>
    <i name="e_0_energy">   -177.65967022 </i>
   </energy>
  </scstep>
  <scstep>
   <time name="dav">   11.32   11.32</time>
   <time name="total">   11.49   11.49</time>
   <energy>
    <i name="e_fr_energy">   -177.66870890 </i>
    <i name="e_wo_entrp">   -177.65996366 </i>
    <i name="e_0_energy">   -177.66579382 </i>
   </energy>
  </scstep>
  <scstep>
   <time name="dav">    9.18    9.18</time>
   <time name="total">    9.34    9.34</time>
   <energy>
    <i name="e_fr_energy">   -177.66099408 </i>
    <i name="e_wo_entrp">   -177.65243043 </i>
    <i name="e_0_energy">   -177.65813953 </i>
   </energy>
  </scstep>
  <scstep>
   <time name="dav">    9.47    9.47</time>
   <time name="total">    9.63    9.63</time>
   <energy>
    <i name="e_fr_energy">   -177.66161030 </i>
    <i name="e_wo_entrp">   -177.65321831 </i>
    <i name="e_0_energy">   -177.65881297 </i>
   </energy>
  </scstep>
  <scstep>
   <time name="dav">   11.65   11.65</time>
   <time name="total">   11.87   11.87</time>
   <energy>
    <i name="e_fr_energy">   -177.66292067 </i>
    <i name="e_wo_entrp">   -177.65473712 </i>
    <i name="e_0_energy">   -177.66019282 </i>
   </energy>
  </scstep>
  <scstep>
   <time name="dav">   12.74   12.74</time>
   <time name="total">   12.97   12.97</time>
   <energy>
    <i name="e_fr_energy">   -177.66380608 </i>
    <i name="e_wo_entrp">   -177.65575334 </i>
    <i name="e_0_energy">   -177.66112183 </i>
   </energy>
  </scstep>
  <scstep>
   <time name="dav">   14.97   14.97</time>
   <time name="total">   15.22   15.22</time>
   <energy>
    <i name="e_fr_energy">   -177.66415779 </i>
    <i name="e_wo_entrp">   -177.65611025 </i>
    <i name="e_0_energy">   -177.66147528 </i>
   </energy>
  </scstep>
  <scstep>
   <time name="dav">   12.06   12.06</time>
   <time name="total">   12.23   12.23</time>
   <energy>
    <i name="e_fr_energy">   -177.66437249 </i>
    <i name="e_wo_entrp">   -177.65634381 </i>
    <i name="e_0_energy">   -177.66169626 </i>
   </energy>
  </scstep>
  <scstep>
   <time name="dav">    8.04    8.04</time>
   <time name="total">    8.20    8.20</time>
   <energy>
    <i name="e_fr_energy">   -177.66451446 </i>
    <i name="e_wo_entrp">   -177.65647990 </i>
    <i name="e_0_energy">   -177.66183628 </i>
   </energy>
  </scstep>
  <scstep>
   <time name="dav">    7.79    7.79</time>
   <time name="total">    7.94    7.94</time>
   <energy>
    <i name="e_fr_energy">   -177.66463865 </i>
    <i name="e_wo_entrp">   -177.65659748 </i>
    <i name="e_0_energy">   -177.66195826 </i>
   </energy>
  </scstep>
  <scstep>
   <time name="dav">    8.53    8.53</time>
   <time name="total">    8.68    8.68</time>
   <energy>
    <i name="e_fr_energy">   -177.66479685 </i>
    <i name="e_wo_entrp">   -177.65675538 </i>
    <i name="e_0_energy">   -177.66211636 </i>
   </energy>
  </scstep>
  <scstep>
   <time name="dav">    8.05    8.05</time>
   <time name="total">    8.20    8.20</time>
   <energy>
    <i name="e_fr_energy">   -177.66490126 </i>
    <i name="e_wo_entrp">   -177.65685877 </i>
    <i name="e_0_energy">   -177.66222043 </i>
   </energy>
  </scstep>
  <scstep>
   <time name="dav">    7.04    7.04</time>
   <time name="total">    7.19    7.19</time>
   <energy>
    <i name="e_fr_energy">   -177.66495880 </i>
    <i name="e_wo_entrp">   -177.65692050 </i>
    <i name="e_0_energy">   -177.66227936 </i>
   </energy>
  </scstep>
  <scstep>
   <time name="dav">    7.06    7.06</time>
   <time name="total">    7.21    7.21</time>
   <energy>
    <i name="e_fr_energy">   -177.66499558 </i>
    <i name="e_wo_entrp">   -177.65695847 </i>
    <i name="e_0_energy">   -177.66231655 </i>
   </energy>
  </scstep>
  <scstep>
   <time name="dav">    6.30    6.30</time>
   <time name="total">    6.34    6.34</time>
   <energy>
    <i name="alphaZ">    265.18332506 </i>
    <i name="ewald">  55857.92080792 </i>
    <i name="hartreedc"> -82184.81950811 </i>
    <i name="XCdc">    688.02059997 </i>
    <i name="pawpsdc">  28399.01278761 </i>
    <i name="pawaedc"> -28249.86392997 </i>
    <i name="eentropy">     -0.00803688 </i>
    <i name="bandstr">  -5409.66365659 </i>
    <i name="atom">  30456.55260990 </i>
    <i name="e_fr_energy">   -177.66500110 </i>
    <i name="e_wo_entrp">   -177.65696422 </i>
    <i name="e_0_energy">   -177.66232214 </i>
   </energy>
  </scstep>
  <structure>
   <crystal>
    <varray name="basis" >
     <v>       7.98364011       0.00000000       0.00000000 </v>
     <v>       0.00000000       8.10998246       0.00000000 </v>
     <v>       0.00000000       0.00000000      22.98206609 </v>
    </varray>
    <i name="volume">   1488.02399934 </i>
    <varray name="rec_basis" >
     <v>       0.12525615      -0.00000000      -0.00000000 </v>
     <v>       0.00000000       0.12330483      -0.00000000 </v>
     <v>       0.00000000       0.00000000       0.04351219 </v>
    </varray>
   </crystal>
   <varray name="positions" >
    <v>       0.00000000       0.99938281       0.32640991 </v>
    <v>       0.50000000       0.99938281       0.50010273 </v>
    <v>       0.00000000       0.50061719       0.32640991 </v>
    <v>       0.50000000       0.50061719       0.50010273 </v>
    <v>       0.75019716       0.99938281       0.41318783 </v>
    <v>       0.25019716       0.99938281       0.58688066 </v>
    <v>       0.75019716       0.50061719       0.41318783 </v>
    <v>       0.25019716       0.50061719       0.58688066 </v>
    <v>       0.24980284       0.99938281       0.41318783 </v>
    <v>       0.74980284       0.99938281       0.58688066 </v>
    <v>       0.24980284       0.50061719       0.41318783 </v>
    <v>       0.74980284       0.50061719       0.58688066 </v>
    <v>       0.00000000       0.99938281       0.49996576 </v>
    <v>       0.50000000       0.99938281       0.67365858 </v>
    <v>       0.00000000       0.50061719       0.49996576 </v>
    <v>       0.50000000       0.50061719       0.67365858 </v>
    <v>       0.00000000       0.75000000       0.41318783 </v>
    <v>       0.50000000       0.75000000       0.58688066 </v>
    <v>       0.00000000       0.25000000       0.41318783 </v>
    <v>       0.50000000       0.25000000       0.58688066 </v>
    <v>       0.75000000       0.75000000       0.50003424 </v>
    <v>       0.25000000       0.75000000       0.32634142 </v>
    <v>       0.75000000       0.25000000       0.50003424 </v>
    <v>       0.25000000       0.25000000       0.32634142 </v>
    <v>       0.25000000       0.75000000       0.50003424 </v>
    <v>       0.75000000       0.75000000       0.32634142 </v>
    <v>       0.25000000       0.25000000       0.50003424 </v>
    <v>       0.75000000       0.25000000       0.32634142 </v>
    <v>       0.00000000       0.75000000       0.58688066 </v>
    <v>       0.50000000       0.75000000       0.41318783 </v>
    <v>       0.00000000       0.25000000       0.58688066 </v>
    <v>       0.50000000       0.25000000       0.41318783 </v>
   </varray>
  </structure>
  <varray name="forces" >
   <v>       0.00000000       0.02009592       0.13701378 </v>
   <v>       0.00000000       0.00716138       0.06074021 </v>
   <v>       0.00000000      -0.02009592       0.13701378 </v>
   <v>      -0.00000000      -0.00716138       0.06074021 </v>
   <v>      -0.39470841      -0.02027305      -0.47507376 </v>
   <v>      -0.01542267      -0.02041577       0.38267992 </v>
   <v>      -0.39470841       0.02027305      -0.47507376 </v>
   <v>      -0.01542267       0.02041577       0.38267992 </v>
   <v>       0.39470841      -0.02027305      -0.47507376 </v>
   <v>       0.01542267      -0.02041577       0.38267992 </v>
   <v>       0.39470841       0.02027305      -0.47507376 </v>
   <v>       0.01542267       0.02041577       0.38267992 </v>
   <v>       0.00000000       0.00625354       0.21531345 </v>
   <v>      -0.00000000      -0.07447634      -1.51504798 </v>
   <v>       0.00000000      -0.00625354       0.21531345 </v>
   <v>      -0.00000000       0.07447634      -1.51504798 </v>
   <v>      -0.00000000      -0.00000000      -0.06062564 </v>
   <v>       0.00000000       0.00000000       0.61764454 </v>
   <v>      -0.00000000      -0.00000000      -0.20102060 </v>
   <v>       0.00000000       0.00000000       0.50558314 </v>
   <v>      -0.00760284       0.00000000       0.13988500 </v>
   <v>      -0.39689177       0.00000000       0.34544735 </v>
   <v>       0.00633186       0.00000000       0.13734256 </v>
   <v>      -0.44056813       0.00000000       0.40291480 </v>
   <v>       0.00760284       0.00000000       0.13988500 </v>
   <v>       0.39689177       0.00000000       0.34544735 </v>
   <v>      -0.00633186       0.00000000       0.13734256 </v>
   <v>       0.44056813       0.00000000       0.40291480 </v>
   <v>      -0.00000000       0.00000000       0.01679474 </v>
   <v>      -0.00000000      -0.00000000      -0.18600067 </v>
   <v>      -0.00000000      -0.00000000      -0.02325894 </v>
   <v>      -0.00000000      -0.00000000      -0.14675950 </v>
  </varray>
  <varray name="stress" >
   <v>     -19.65590303      -0.00000000      -0.00000000 </v>
   <v>      -0.00000000     -22.44993258      -0.00000000 </v>
   <v>      -0.00000000      -0.00000000      -9.76005001 </v>
  </varray>
  <energy>
   <i name="e_fr_energy">   -177.66500110 </i>
   <i name="e_wo_entrp">   -177.65696422 </i>
   <i name="e_0_energy">   -177.66232214 </i>
  </energy>
  <time name="totalsc">  306.05  306.08</time>
  <eigenvalues>
   <array>
    <dimension dim="1">band</dimension>
    <dimension dim="2">kpoint</dimension>
    <dimension dim="3">spin</dimension>
    <field>eigene</field>
    <field>occ</field>
    <set>
     <set comment="spin 1">
      <set comment="kpoint 1">
       <r>  -56.7725    1.0000 </r>
       <r>  -56.7721    1.0000 </r>
       <r>  -56.3335    1.0000 </r>
       <r>  -56.3331    1.0000 </r>
       <r>  -56.2467    1.0000 </r>
       <r>  -56.2462    1.0000 </r>
       <r>  -56.2426    1.0000 </r>
       <r>  -56.2421    1.0000 </r>
       <r>  -56.1732    1.0000 </r>
       <r>  -56.1726    1.0000 </r>
       <r>  -56.1683    1.0000 </r>
       <r>  -56.1678    1.0000 </r>
       <r>  -56.0927    1.0000 </r>
       <r>  -56.0922    1.0000 </r>
       <r>  -55.9463    1.0000 </r>
       <r>  -55.9458    1.0000 </r>
       <r>  -33.1378    1.0000 </r>
       <r>  -33.1284    1.0000 </r>
       <r>  -33.0632    1.0000 </r>
       <r>  -33.0620    1.0000 </r>
       <r>  -32.9593    1.0000 </r>
       <r>  -32.9585    1.0000 </r>
       <r>  -32.8401    1.0000 </r>
       <r>  -32.8389    1.0000 </r>
       <r>  -32.6325    1.0000 </r>
       <r>  -32.6310    1.0000 </r>
       <r>  -32.6233    1.0000 </r>
       <r>  -32.6217    1.0000 </r>
       <r>  -32.5894    1.0000 </r>
       <r>  -32.5805    1.0000 </r>
       <r>  -32.5761    1.0000 </r>
       <r>  -32.5734    1.0000 </r>
       <r>  -32.5691    1.0000 </r>
       <r>  -32.5603    1.0000 </r>
       <r>  -32.5510    1.0000 </r>
       <r>  -32.5506    1.0000 </r>
       <r>  -32.5493    1.0000 </r>
       <r>  -32.5484    1.0000 </r>
       <r>  -32.5288    1.0000 </r>
       <r>  -32.5276    1.0000 </r>
       <r>  -32.5162    1.0000 </r>
       <r>  -32.5150    1.0000 </r>
       <r>  -32.4980    1.0000 </r>
       <r>  -32.4964    1.0000 </r>
       <r>  -32.4857    1.0000 </r>
       <r>  -32.4734    1.0000 </r>
       <r>  -32.4006    1.0000 </r>
       <r>  -32.3991    1.0000 </r>
       <r>  -32.3925    1.0000 </r>
       <r>  -32.3915    1.0000 </r>
       <r>  -32.3546    1.0000 </r>
       <r>  -32.3426    1.0000 </r>
       <r>  -32.3421    1.0000 </r>
       <r>  -32.3395    1.0000 </r>
       <r>  -32.2989    1.0000 </r>
       <r>  -32.2978    1.0000 </r>
       <r>  -32.2044    1.0000 </r>
       <r>  -32.2037    1.0000 </r>
       <r>  -32.1812    1.0000 </r>
       <r>  -32.1803    1.0000 </r>
       <r>  -32.1021    1.0000 </r>
       <r>  -32.1013    1.0000 </r>
       <r>  -32.0517    1.0000 </r>
       <r>  -32.0508    1.0000 </r>
       <r>  -13.8571    1.0000 </r>
       <r>  -13.8434    1.0000 </r>
       <r>  -13.8258    1.0000 </r>
       <r>  -13.8252    1.0000 </r>
       <r>  -13.7947    1.0000 </r>
       <r>  -13.6827    1.0000 </r>
       <r>  -13.6768    1.0000 </r>
       <r>  -13.6726    1.0000 </r>
       <r>  -13.6706    1.0000 </r>
       <r>  -13.6328    1.0000 </r>
       <r>   -8.1014    1.0000 </r>
       <r>   -6.8547    1.0000 </r>
       <r>   -6.7011    1.0000 </r>
       <r>   -5.8322    1.0000 </r>
       <r>   -5.6438    1.0000 </r>
       <r>   -5.4659    1.0000 </r>
       <r>   -4.9811    1.0000 </r>
       <r>   -4.8901    1.0000 </r>
       <r>   -4.8282    1.0000 </r>
       <r>   -4.4290    1.0000 </r>
       <r>   -4.2632    1.0000 </r>
       <r>   -4.1443    1.0000 </r>
       <r>   -4.1189    1.0000 </r>
       <r>   -3.7078    1.0000 </r>
       <r>   -3.6685    1.0000 </r>
       <r>   -3.0275    1.0000 </r>
       <r>   -2.8399    1.0000 </r>
       <r>   -2.4297    1.0000 </r>
       <r>   -2.3928    1.0000 </r>
       <r>   -1.9248    1.0000 </r>
       <r>   -1.9209    1.0000 </r>
       <r>   -1.8309    1.0000 </r>
       <r>   -1.7079    1.0000 </r>
       <r>   -1.4828    1.0000 </r>
       <r>   -1.3644    1.0000 </r>
       <r>   -1.3004    1.0000 </r>
       <r>   -1.1892    1.0000 </r>
       <r>   -1.0473    1.0000 </r>
       <r>   -0.8741    1.0000 </r>
       <r>   -0.8681    1.0000 </r>
       <r>   -0.8634    1.0000 </r>
       <r>   -0.7016    1.0000 </r>
       <r>   -0.6792    1.0000 </r>
       <r>   -0.6386    1.0000 </r>
       <r>   -0.6039    1.0000 </r>
       <r>   -0.5139    1.0000 </r>
       <r>   -0.4867    1.0000 </r>
       <r>   -0.3482    1.0000 </r>
       <r>   -0.2434    1.0000 </r>
       <r>   -0.1583    1.0000 </r>
       <r>   -0.1289    1.0000 </r>
       <r>   -0.1095    1.0000 </r>
       <r>   -0.0049    1.0000 </r>
       <r>    0.0491    1.0000 </r>
       <r>    0.0501    1.0000 </r>
       <r>    0.1042    1.0000 </r>
       <r>    0.2062    1.0000 </r>
       <r>    0.2739    1.0000 </r>
       <r>    0.2765    1.0000 </r>
       <r>    0.2832    1.0000 </r>
       <r>    0.3103    1.0002 </r>
       <r>    0.4101    1.0109 </r>
       <r>    0.4143    1.0123 </r>
       <r>    0.4330    1.0199 </r>
       <r>    0.4522    1.0286 </r>
       <r>    0.5786    0.6768 </r>
       <r>    0.5792    0.6719 </r>
       <r>    0.5964    0.5310 </r>
       <r>    0.6866   -0.0050 </r>
       <r>    0.7152   -0.0345 </r>
       <r>    0.8363   -0.0021 </r>
       <r>    0.9775   -0.0000 </r>
       <r>    0.9906   -0.0000 </r>
       <r>    1.0227   -0.0000 </r>
       <r>    1.0437   -0.0000 </r>
       <r>    1.1049   -0.0000 </r>
       <r>    1.1127   -0.0000 </r>
       <r>    1.2020   -0.0000 </r>
       <r>    1.2690   -0.0000 </r>
       <r>    1.3405   -0.0000 </r>
       <r>    1.3536   -0.0000 </r>
       <r>    1.3818   -0.0000 </r>
       <r>    1.5409   -0.0000 </r>
       <r>    1.5829   -0.0000 </r>
       <r>    1.6065   -0.0000 </r>
       <r>    1.7317   -0.0000 </r>
       <r>    1.8561   -0.0000 </r>
       <r>    1.8646   -0.0000 </r>
       <r>    1.8875   -0.0000 </r>
       <r>    1.9153   -0.0000 </r>
       <r>    1.9494   -0.0000 </r>
       <r>    1.9751   -0.0000 </r>
       <r>    1.9978   -0.0000 </r>
       <r>    2.0152   -0.0000 </r>
       <r>    2.0181   -0.0000 </r>
       <r>    2.0660   -0.0000 </r>
       <r>    2.0905   -0.0000 </r>
       <r>    2.1037   -0.0000 </r>
       <r>    2.1264   -0.0000 </r>
       <r>    2.2433   -0.0000 </r>
       <r>    2.2489   -0.0000 </r>
       <r>    2.2698   -0.0000 </r>
       <r>    2.2755   -0.0000 </r>
       <r>    2.3694   -0.0000 </r>
       <r>    2.3911   -0.0000 </r>
       <r>    2.3961   -0.0000 </r>
       <r>    2.3987   -0.0000 </r>
       <r>    2.4270   -0.0000 </r>
       <r>    2.5027   -0.0000 </r>
       <r>    2.5141   -0.0000 </r>
       <r>    2.5618   -0.0000 </r>
       <r>    2.5732   -0.0000 </r>
       <r>    2.5859   -0.0000 </r>
       <r>    2.5898   -0.0000 </r>
       <r>    2.6685    0.0000 </r>
       <r>    2.6687    0.0000 </r>
       <r>    2.6713    0.0000 </r>
       <r>    2.7346    0.0000 </r>
       <r>    3.0371    0.0000 </r>
       <r>    3.2473    0.0000 </r>
       <r>    3.3437    0.0000 </r>
       <r>    3.3580    0.0000 </r>
       <r>    3.3788    0.0000 </r>
       <r>    3.5136    0.0000 </r>
       <r>    3.5814    0.0000 </r>
       <r>    3.6941    0.0000 </r>
       <r>    3.9012    0.0000 </r>
       <r>    3.9847    0.0000 </r>
      </set>
      <set comment="kpoint 2">
       <r>  -56.7725    1.0000 </r>
       <r>  -56.7721    1.0000 </r>
       <r>  -56.3335    1.0000 </r>
       <r>  -56.3331    1.0000 </r>
       <r>  -56.2462    1.0000 </r>
       <r>  -56.2457    1.0000 </r>
       <r>  -56.2430    1.0000 </r>
       <r>  -56.2425    1.0000 </r>
       <r>  -56.1726    1.0000 </r>
       <r>  -56.1721    1.0000 </r>
       <r>  -56.1691    1.0000 </r>
       <r>  -56.1686    1.0000 </r>
       <r>  -56.0925    1.0000 </r>
       <r>  -56.0920    1.0000 </r>
       <r>  -55.9463    1.0000 </r>
       <r>  -55.9458    1.0000 </r>
       <r>  -33.1378    1.0000 </r>
       <r>  -33.1284    1.0000 </r>
       <r>  -33.0631    1.0000 </r>
       <r>  -33.0620    1.0000 </r>
       <r>  -32.9592    1.0000 </r>
       <r>  -32.9584    1.0000 </r>
       <r>  -32.8400    1.0000 </r>
       <r>  -32.8388    1.0000 </r>
       <r>  -32.6300    1.0000 </r>
       <r>  -32.6285    1.0000 </r>
       <r>  -32.6248    1.0000 </r>
       <r>  -32.6233    1.0000 </r>
       <r>  -32.5883    1.0000 </r>
       <r>  -32.5814    1.0000 </r>
       <r>  -32.5753    1.0000 </r>
       <r>  -32.5733    1.0000 </r>
       <r>  -32.5697    1.0000 </r>
       <r>  -32.5602    1.0000 </r>
       <r>  -32.5530    1.0000 </r>
       <r>  -32.5513    1.0000 </r>
       <r>  -32.5486    1.0000 </r>
       <r>  -32.5465    1.0000 </r>
       <r>  -32.5298    1.0000 </r>
       <r>  -32.5275    1.0000 </r>
       <r>  -32.5169    1.0000 </r>
       <r>  -32.5151    1.0000 </r>
       <r>  -32.4979    1.0000 </r>
       <r>  -32.4963    1.0000 </r>
       <r>  -32.4850    1.0000 </r>
       <r>  -32.4729    1.0000 </r>
       <r>  -32.4015    1.0000 </r>
       <r>  -32.4002    1.0000 </r>
       <r>  -32.3951    1.0000 </r>
       <r>  -32.3938    1.0000 </r>
       <r>  -32.3546    1.0000 </r>
       <r>  -32.3476    1.0000 </r>
       <r>  -32.3465    1.0000 </r>
       <r>  -32.3412    1.0000 </r>
       <r>  -32.2897    1.0000 </r>
       <r>  -32.2886    1.0000 </r>
       <r>  -32.2055    1.0000 </r>
       <r>  -32.2048    1.0000 </r>
       <r>  -32.1783    1.0000 </r>
       <r>  -32.1775    1.0000 </r>
       <r>  -32.1066    1.0000 </r>
       <r>  -32.1058    1.0000 </r>
       <r>  -32.0501    1.0000 </r>
       <r>  -32.0492    1.0000 </r>
       <r>  -13.8571    1.0000 </r>
       <r>  -13.8434    1.0000 </r>
       <r>  -13.8258    1.0000 </r>
       <r>  -13.8252    1.0000 </r>
       <r>  -13.7947    1.0000 </r>
       <r>  -13.6827    1.0000 </r>
       <r>  -13.6768    1.0000 </r>
       <r>  -13.6726    1.0000 </r>
       <r>  -13.6706    1.0000 </r>
       <r>  -13.6328    1.0000 </r>
       <r>   -7.9604    1.0000 </r>
       <r>   -6.9647    1.0000 </r>
       <r>   -6.6092    1.0000 </r>
       <r>   -6.3491    1.0000 </r>
       <r>   -5.7789    1.0000 </r>
       <r>   -5.4374    1.0000 </r>
       <r>   -5.2812    1.0000 </r>
       <r>   -4.6936    1.0000 </r>
       <r>   -4.5137    1.0000 </r>
       <r>   -4.4385    1.0000 </r>
       <r>   -4.0226    1.0000 </r>
       <r>   -3.9819    1.0000 </r>
       <r>   -3.7314    1.0000 </r>
       <r>   -3.6646    1.0000 </r>
       <r>   -3.4231    1.0000 </r>
       <r>   -2.9035    1.0000 </r>
       <r>   -2.8679    1.0000 </r>
       <r>   -2.7778    1.0000 </r>
       <r>   -2.4732    1.0000 </r>
       <r>   -2.0469    1.0000 </r>
       <r>   -1.9434    1.0000 </r>
       <r>   -1.8855    1.0000 </r>
       <r>   -1.5899    1.0000 </r>
       <r>   -1.4852    1.0000 </r>
       <r>   -1.3904    1.0000 </r>
       <r>   -1.2933    1.0000 </r>
       <r>   -1.2818    1.0000 </r>
       <r>   -1.0259    1.0000 </r>
       <r>   -0.9562    1.0000 </r>
       <r>   -0.8653    1.0000 </r>
       <r>   -0.7929    1.0000 </r>
       <r>   -0.7881    1.0000 </r>
       <r>   -0.7779    1.0000 </r>
       <r>   -0.6770    1.0000 </r>
       <r>   -0.6419    1.0000 </r>
       <r>   -0.5919    1.0000 </r>
       <r>   -0.4726    1.0000 </r>
       <r>   -0.3075    1.0000 </r>
       <r>   -0.2900    1.0000 </r>
       <r>   -0.2742    1.0000 </r>
       <r>   -0.2594    1.0000 </r>
       <r>   -0.2132    1.0000 </r>
       <r>   -0.1154    1.0000 </r>
       <r>   -0.0116    1.0000 </r>
       <r>    0.0363    1.0000 </r>
       <r>    0.0854    1.0000 </r>
       <r>    0.1607    1.0000 </r>
       <r>    0.2014    1.0000 </r>
       <r>    0.2061    1.0000 </r>
       <r>    0.2555    1.0000 </r>
       <r>    0.3889    1.0055 </r>
       <r>    0.4119    1.0115 </r>
       <r>    0.4277    1.0176 </r>
       <r>    0.4933    1.0307 </r>
       <r>    0.5132    1.0054 </r>
       <r>    0.5371    0.9327 </r>
       <r>    0.5794    0.6703 </r>
       <r>    0.6107    0.4102 </r>
       <r>    0.7545   -0.0256 </r>
       <r>    0.7795   -0.0146 </r>
       <r>    0.7973   -0.0087 </r>
       <r>    0.9361   -0.0000 </r>
       <r>    0.9501   -0.0000 </r>
       <r>    1.0340   -0.0000 </r>
       <r>    1.0387   -0.0000 </r>
       <r>    1.0988   -0.0000 </r>
       <r>    1.1665   -0.0000 </r>
       <r>    1.1865   -0.0000 </r>
       <r>    1.2214   -0.0000 </r>
       <r>    1.2601   -0.0000 </r>
       <r>    1.3323   -0.0000 </r>
       <r>    1.4263   -0.0000 </r>
       <r>    1.4492   -0.0000 </r>
       <r>    1.5834   -0.0000 </r>
       <r>    1.6755   -0.0000 </r>
       <r>    1.6998   -0.0000 </r>
       <r>    1.7935   -0.0000 </r>
       <r>    1.8066   -0.0000 </r>
       <r>    1.8219   -0.0000 </r>
       <r>    1.8974   -0.0000 </r>
       <r>    1.9555   -0.0000 </r>
       <r>    2.0020   -0.0000 </r>
       <r>    2.0361   -0.0000 </r>
       <r>    2.0442   -0.0000 </r>
       <r>    2.0491   -0.0000 </r>
       <r>    2.0897   -0.0000 </r>
       <r>    2.1323   -0.0000 </r>
       <r>    2.1483   -0.0000 </r>
       <r>    2.1496   -0.0000 </r>
       <r>    2.2019   -0.0000 </r>
       <r>    2.2023   -0.0000 </r>
       <r>    2.2748   -0.0000 </r>
       <r>    2.2783   -0.0000 </r>
       <r>    2.3062   -0.0000 </r>
       <r>    2.4639   -0.0000 </r>
       <r>    2.4796   -0.0000 </r>
       <r>    2.4835   -0.0000 </r>
       <r>    2.5109   -0.0000 </r>
       <r>    2.5652   -0.0000 </r>
       <r>    2.5894   -0.0000 </r>
       <r>    2.6053    0.0000 </r>
       <r>    2.6192    0.0000 </r>
       <r>    2.6330    0.0000 </r>
       <r>    2.6550    0.0000 </r>
       <r>    2.6996    0.0000 </r>
       <r>    2.8096    0.0000 </r>
       <r>    2.8277    0.0000 </r>
       <r>    2.9437    0.0000 </r>
       <r>    3.1265    0.0000 </r>
       <r>    3.2383    0.0000 </r>
       <r>    3.2631    0.0000 </r>
       <r>    3.3000    0.0000 </r>
       <r>    3.3615    0.0000 </r>
       <r>    3.4680    0.0000 </r>
       <r>    3.5448    0.0000 </r>
       <r>    3.8981    0.0000 </r>
       <r>    3.9370    0.0000 </r>
       <r>    4.0495    0.0000 </r>
      </set>
      <set comment="kpoint 3">
       <r>  -56.7725    1.0000 </r>
       <r>  -56.7721    1.0000 </r>
       <r>  -56.3335    1.0000 </r>
       <r>  -56.3330    1.0000 </r>
       <r>  -56.2456    1.0000 </r>
       <r>  -56.2451    1.0000 </r>
       <r>  -56.2436    1.0000 </r>
       <r>  -56.2431    1.0000 </r>
       <r>  -56.1716    1.0000 </r>
       <r>  -56.1711    1.0000 </r>
       <r>  -56.1703    1.0000 </r>
       <r>  -56.1698    1.0000 </r>
       <r>  -56.0923    1.0000 </r>
       <r>  -56.0918    1.0000 </r>
       <r>  -55.9463    1.0000 </r>
       <r>  -55.9458    1.0000 </r>
       <r>  -33.1378    1.0000 </r>
       <r>  -33.1284    1.0000 </r>
       <r>  -33.0631    1.0000 </r>
       <r>  -33.0619    1.0000 </r>
       <r>  -32.9592    1.0000 </r>
       <r>  -32.9584    1.0000 </r>
       <r>  -32.8399    1.0000 </r>
       <r>  -32.8387    1.0000 </r>
       <r>  -32.6274    1.0000 </r>
       <r>  -32.6262    1.0000 </r>
       <r>  -32.6259    1.0000 </r>
       <r>  -32.6248    1.0000 </r>
       <r>  -32.5868    1.0000 </r>
       <r>  -32.5828    1.0000 </r>
       <r>  -32.5742    1.0000 </r>
       <r>  -32.5731    1.0000 </r>
       <r>  -32.5707    1.0000 </r>
       <r>  -32.5601    1.0000 </r>
       <r>  -32.5553    1.0000 </r>
       <r>  -32.5535    1.0000 </r>
       <r>  -32.5464    1.0000 </r>
       <r>  -32.5443    1.0000 </r>
       <r>  -32.5309    1.0000 </r>
       <r>  -32.5273    1.0000 </r>
       <r>  -32.5178    1.0000 </r>
       <r>  -32.5149    1.0000 </r>
       <r>  -32.4986    1.0000 </r>
       <r>  -32.4969    1.0000 </r>
       <r>  -32.4844    1.0000 </r>
       <r>  -32.4724    1.0000 </r>
       <r>  -32.4034    1.0000 </r>
       <r>  -32.4021    1.0000 </r>
       <r>  -32.3943    1.0000 </r>
       <r>  -32.3930    1.0000 </r>
       <r>  -32.3546    1.0000 </r>
       <r>  -32.3545    1.0000 </r>
       <r>  -32.3533    1.0000 </r>
       <r>  -32.3414    1.0000 </r>
       <r>  -32.2809    1.0000 </r>
       <r>  -32.2798    1.0000 </r>
       <r>  -32.2063    1.0000 </r>
       <r>  -32.2054    1.0000 </r>
       <r>  -32.1761    1.0000 </r>
       <r>  -32.1754    1.0000 </r>
       <r>  -32.1110    1.0000 </r>
       <r>  -32.1101    1.0000 </r>
       <r>  -32.0487    1.0000 </r>
       <r>  -32.0479    1.0000 </r>
       <r>  -13.8571    1.0000 </r>
       <r>  -13.8433    1.0000 </r>
       <r>  -13.8258    1.0000 </r>
       <r>  -13.8252    1.0000 </r>
       <r>  -13.7946    1.0000 </r>
       <r>  -13.6827    1.0000 </r>
       <r>  -13.6768    1.0000 </r>
       <r>  -13.6726    1.0000 </r>
       <r>  -13.6706    1.0000 </r>
       <r>  -13.6328    1.0000 </r>
       <r>   -7.6471    1.0000 </r>
       <r>   -7.4060    1.0000 </r>
       <r>   -6.4295    1.0000 </r>
       <r>   -6.2744    1.0000 </r>
       <r>   -6.0205    1.0000 </r>
       <r>   -5.9223    1.0000 </r>
       <r>   -5.1191    1.0000 </r>
       <r>   -5.0641    1.0000 </r>
       <r>   -4.1601    1.0000 </r>
       <r>   -4.1226    1.0000 </r>
       <r>   -3.7127    1.0000 </r>
       <r>   -3.5733    1.0000 </r>
       <r>   -3.4765    1.0000 </r>
       <r>   -3.4518    1.0000 </r>
       <r>   -3.3858    1.0000 </r>
       <r>   -3.2021    1.0000 </r>
       <r>   -2.9536    1.0000 </r>
       <r>   -2.8436    1.0000 </r>
       <r>   -2.2474    1.0000 </r>
       <r>   -2.1413    1.0000 </r>
       <r>   -2.0912    1.0000 </r>
       <r>   -1.9414    1.0000 </r>
       <r>   -1.8161    1.0000 </r>
       <r>   -1.6922    1.0000 </r>
       <r>   -1.3809    1.0000 </r>
       <r>   -1.3766    1.0000 </r>
       <r>   -1.2829    1.0000 </r>
       <r>   -1.2168    1.0000 </r>
       <r>   -1.0606    1.0000 </r>
       <r>   -0.9269    1.0000 </r>
       <r>   -0.8032    1.0000 </r>
       <r>   -0.7009    1.0000 </r>
       <r>   -0.6632    1.0000 </r>
       <r>   -0.6102    1.0000 </r>
       <r>   -0.5793    1.0000 </r>
       <r>   -0.5467    1.0000 </r>
       <r>   -0.5249    1.0000 </r>
       <r>   -0.5078    1.0000 </r>
       <r>   -0.3885    1.0000 </r>
       <r>   -0.3231    1.0000 </r>
       <r>   -0.3096    1.0000 </r>
       <r>   -0.2652    1.0000 </r>
       <r>    0.0245    1.0000 </r>
       <r>    0.0458    1.0000 </r>
       <r>    0.0491    1.0000 </r>
       <r>    0.0549    1.0000 </r>
       <r>    0.0989    1.0000 </r>
       <r>    0.1428    1.0000 </r>
       <r>    0.1479    1.0000 </r>
       <r>    0.2565    1.0000 </r>
       <r>    0.2890    1.0000 </r>
       <r>    0.3051    1.0001 </r>
       <r>    0.3762    1.0034 </r>
       <r>    0.5167    0.9981 </r>
       <r>    0.5283    0.9658 </r>
       <r>    0.5926    0.5624 </r>
       <r>    0.6411    0.1828 </r>
       <r>    0.6771    0.0179 </r>
       <r>    0.7626   -0.0219 </r>
       <r>    0.7651   -0.0207 </r>
       <r>    0.7993   -0.0082 </r>
       <r>    0.8623   -0.0007 </r>
       <r>    0.9235   -0.0000 </r>
       <r>    0.9370   -0.0000 </r>
       <r>    0.9940   -0.0000 </r>
       <r>    1.0411   -0.0000 </r>
       <r>    1.1396   -0.0000 </r>
       <r>    1.2117   -0.0000 </r>
       <r>    1.2346   -0.0000 </r>
       <r>    1.2694   -0.0000 </r>
       <r>    1.3102   -0.0000 </r>
       <r>    1.5102   -0.0000 </r>
       <r>    1.5355   -0.0000 </r>
       <r>    1.5586   -0.0000 </r>
       <r>    1.5921   -0.0000 </r>
       <r>    1.7111   -0.0000 </r>
       <r>    1.7320   -0.0000 </r>
       <r>    1.7883   -0.0000 </r>
       <r>    1.8234   -0.0000 </r>
       <r>    1.8813   -0.0000 </r>
       <r>    1.9648   -0.0000 </r>
       <r>    1.9788   -0.0000 </r>
       <r>    2.0322   -0.0000 </r>
       <r>    2.0434   -0.0000 </r>
       <r>    2.0889   -0.0000 </r>
       <r>    2.1055   -0.0000 </r>
       <r>    2.1304   -0.0000 </r>
       <r>    2.1460   -0.0000 </r>
       <r>    2.1972   -0.0000 </r>
       <r>    2.2484   -0.0000 </r>
       <r>    2.2857   -0.0000 </r>
       <r>    2.3186   -0.0000 </r>
       <r>    2.3429   -0.0000 </r>
       <r>    2.3429   -0.0000 </r>
       <r>    2.3840   -0.0000 </r>
       <r>    2.4614   -0.0000 </r>
       <r>    2.4963   -0.0000 </r>
       <r>    2.5076   -0.0000 </r>
       <r>    2.5627   -0.0000 </r>
       <r>    2.5734   -0.0000 </r>
       <r>    2.5739   -0.0000 </r>
       <r>    2.5794   -0.0000 </r>
       <r>    2.7088    0.0000 </r>
       <r>    2.8017    0.0000 </r>
       <r>    2.9634    0.0000 </r>
       <r>    3.0241    0.0000 </r>
       <r>    3.0546    0.0000 </r>
       <r>    3.0686    0.0000 </r>
       <r>    3.1119    0.0000 </r>
       <r>    3.2314    0.0000 </r>
       <r>    3.2916    0.0000 </r>
       <r>    3.4969    0.0000 </r>
       <r>    3.4988    0.0000 </r>
       <r>    3.5811    0.0000 </r>
       <r>    3.5972    0.0000 </r>
       <r>    3.7732    0.0000 </r>
       <r>    3.8140    0.0000 </r>
       <r>    3.8166    0.0000 </r>
      </set>
      <set comment="kpoint 4">
       <r>  -56.7724    1.0000 </r>
       <r>  -56.7721    1.0000 </r>
       <r>  -56.3335    1.0000 </r>
       <r>  -56.3331    1.0000 </r>
       <r>  -56.2466    1.0000 </r>
       <r>  -56.2462    1.0000 </r>
       <r>  -56.2425    1.0000 </r>
       <r>  -56.2422    1.0000 </r>
       <r>  -56.1731    1.0000 </r>
       <r>  -56.1727    1.0000 </r>
       <r>  -56.1682    1.0000 </r>
       <r>  -56.1679    1.0000 </r>
       <r>  -56.0926    1.0000 </r>
       <r>  -56.0923    1.0000 </r>
       <r>  -55.9462    1.0000 </r>
       <r>  -55.9458    1.0000 </r>
       <r>  -33.1364    1.0000 </r>
       <r>  -33.1297    1.0000 </r>
       <r>  -33.0630    1.0000 </r>
       <r>  -33.0622    1.0000 </r>
       <r>  -32.9592    1.0000 </r>
       <r>  -32.9586    1.0000 </r>
       <r>  -32.8400    1.0000 </r>
       <r>  -32.8391    1.0000 </r>
       <r>  -32.6323    1.0000 </r>
       <r>  -32.6312    1.0000 </r>
       <r>  -32.6230    1.0000 </r>
       <r>  -32.6219    1.0000 </r>
       <r>  -32.5874    1.0000 </r>
       <r>  -32.5788    1.0000 </r>
       <r>  -32.5780    1.0000 </r>
       <r>  -32.5715    1.0000 </r>
       <r>  -32.5707    1.0000 </r>
       <r>  -32.5622    1.0000 </r>
       <r>  -32.5507    1.0000 </r>
       <r>  -32.5503    1.0000 </r>
       <r>  -32.5495    1.0000 </r>
       <r>  -32.5487    1.0000 </r>
       <r>  -32.5270    1.0000 </r>
       <r>  -32.5258    1.0000 </r>
       <r>  -32.5181    1.0000 </r>
       <r>  -32.5169    1.0000 </r>
       <r>  -32.4977    1.0000 </r>
       <r>  -32.4966    1.0000 </r>
       <r>  -32.4839    1.0000 </r>
       <r>  -32.4752    1.0000 </r>
       <r>  -32.4004    1.0000 </r>
       <r>  -32.3993    1.0000 </r>
       <r>  -32.3924    1.0000 </r>
       <r>  -32.3917    1.0000 </r>
       <r>  -32.3527    1.0000 </r>
       <r>  -32.3440    1.0000 </r>
       <r>  -32.3419    1.0000 </r>
       <r>  -32.3402    1.0000 </r>
       <r>  -32.2988    1.0000 </r>
       <r>  -32.2980    1.0000 </r>
       <r>  -32.2043    1.0000 </r>
       <r>  -32.2038    1.0000 </r>
       <r>  -32.1810    1.0000 </r>
       <r>  -32.1804    1.0000 </r>
       <r>  -32.1020    1.0000 </r>
       <r>  -32.1014    1.0000 </r>
       <r>  -32.0516    1.0000 </r>
       <r>  -32.0509    1.0000 </r>
       <r>  -13.8571    1.0000 </r>
       <r>  -13.8434    1.0000 </r>
       <r>  -13.8258    1.0000 </r>
       <r>  -13.8253    1.0000 </r>
       <r>  -13.7947    1.0000 </r>
       <r>  -13.6827    1.0000 </r>
       <r>  -13.6768    1.0000 </r>
       <r>  -13.6726    1.0000 </r>
       <r>  -13.6706    1.0000 </r>
       <r>  -13.6328    1.0000 </r>
       <r>   -7.9772    1.0000 </r>
       <r>   -7.0201    1.0000 </r>
       <r>   -6.7402    1.0000 </r>
       <r>   -5.8827    1.0000 </r>
       <r>   -5.5496    1.0000 </r>
       <r>   -5.5089    1.0000 </r>
       <r>   -5.0192    1.0000 </r>
       <r>   -4.9791    1.0000 </r>
       <r>   -4.9461    1.0000 </r>
       <r>   -4.4161    1.0000 </r>
       <r>   -4.1827    1.0000 </r>
       <r>   -4.1266    1.0000 </r>
       <r>   -3.8650    1.0000 </r>
       <r>   -3.7708    1.0000 </r>
       <r>   -3.6181    1.0000 </r>
       <r>   -2.9190    1.0000 </r>
       <r>   -2.5192    1.0000 </r>
       <r>   -2.3685    1.0000 </r>
       <r>   -2.2981    1.0000 </r>
       <r>   -2.1640    1.0000 </r>
       <r>   -1.8259    1.0000 </r>
       <r>   -1.7395    1.0000 </r>
       <r>   -1.6796    1.0000 </r>
       <r>   -1.5953    1.0000 </r>
       <r>   -1.4842    1.0000 </r>
       <r>   -1.3006    1.0000 </r>
       <r>   -1.2532    1.0000 </r>
       <r>   -1.1832    1.0000 </r>
       <r>   -1.0743    1.0000 </r>
       <r>   -0.9843    1.0000 </r>
       <r>   -0.9833    1.0000 </r>
       <r>   -0.8432    1.0000 </r>
       <r>   -0.7476    1.0000 </r>
       <r>   -0.5998    1.0000 </r>
       <r>   -0.5308    1.0000 </r>
       <r>   -0.4560    1.0000 </r>
       <r>   -0.3769    1.0000 </r>
       <r>   -0.3033    1.0000 </r>
       <r>   -0.2613    1.0000 </r>
       <r>   -0.2137    1.0000 </r>
       <r>   -0.1738    1.0000 </r>
       <r>   -0.1053    1.0000 </r>
       <r>   -0.0729    1.0000 </r>
       <r>    0.0847    1.0000 </r>
       <r>    0.1043    1.0000 </r>
       <r>    0.1069    1.0000 </r>
       <r>    0.1835    1.0000 </r>
       <r>    0.1840    1.0000 </r>
       <r>    0.2236    1.0000 </r>
       <r>    0.2456    1.0000 </r>
       <r>    0.3387    1.0007 </r>
       <r>    0.3457    1.0010 </r>
       <r>    0.4164    1.0131 </r>
       <r>    0.4638    1.0331 </r>
       <r>    0.5259    0.9735 </r>
       <r>    0.5728    0.7212 </r>
       <r>    0.6346    0.2258 </r>
       <r>    0.6651    0.0587 </r>
       <r>    0.6779    0.0155 </r>
       <r>    0.7377   -0.0326 </r>
       <r>    0.8076   -0.0062 </r>
       <r>    0.9076   -0.0001 </r>
       <r>    0.9136   -0.0000 </r>
       <r>    1.0905   -0.0000 </r>
       <r>    1.0988   -0.0000 </r>
       <r>    1.1108   -0.0000 </r>
       <r>    1.1454   -0.0000 </r>
       <r>    1.1726   -0.0000 </r>
       <r>    1.2718   -0.0000 </r>
       <r>    1.3104   -0.0000 </r>
       <r>    1.3227   -0.0000 </r>
       <r>    1.3331   -0.0000 </r>
       <r>    1.4874   -0.0000 </r>
       <r>    1.5972   -0.0000 </r>
       <r>    1.6214   -0.0000 </r>
       <r>    1.6227   -0.0000 </r>
       <r>    1.6572   -0.0000 </r>
       <r>    1.7897   -0.0000 </r>
       <r>    1.8130   -0.0000 </r>
       <r>    1.8915   -0.0000 </r>
       <r>    1.9033   -0.0000 </r>
       <r>    2.0054   -0.0000 </r>
       <r>    2.0308   -0.0000 </r>
       <r>    2.0474   -0.0000 </r>
       <r>    2.0589   -0.0000 </r>
       <r>    2.0675   -0.0000 </r>
       <r>    2.1517   -0.0000 </r>
       <r>    2.1654   -0.0000 </r>
       <r>    2.1834   -0.0000 </r>
       <r>    2.1940   -0.0000 </r>
       <r>    2.3096   -0.0000 </r>
       <r>    2.3112   -0.0000 </r>
       <r>    2.3384   -0.0000 </r>
       <r>    2.3511   -0.0000 </r>
       <r>    2.3798   -0.0000 </r>
       <r>    2.5338   -0.0000 </r>
       <r>    2.5342   -0.0000 </r>
       <r>    2.5638   -0.0000 </r>
       <r>    2.5719   -0.0000 </r>
       <r>    2.5989   -0.0000 </r>
       <r>    2.6199    0.0000 </r>
       <r>    2.6350    0.0000 </r>
       <r>    2.6716    0.0000 </r>
       <r>    2.7031    0.0000 </r>
       <r>    2.8530    0.0000 </r>
       <r>    2.8549    0.0000 </r>
       <r>    2.8992    0.0000 </r>
       <r>    3.0325    0.0000 </r>
       <r>    3.2103    0.0000 </r>
       <r>    3.3465    0.0000 </r>
       <r>    3.3542    0.0000 </r>
       <r>    3.3831    0.0000 </r>
       <r>    3.4613    0.0000 </r>
       <r>    3.4828    0.0000 </r>
       <r>    3.5224    0.0000 </r>
       <r>    3.7603    0.0000 </r>
       <r>    3.8170    0.0000 </r>
       <r>    3.9293    0.0000 </r>
      </set>
      <set comment="kpoint 5">
       <r>  -56.7724    1.0000 </r>
       <r>  -56.7721    1.0000 </r>
       <r>  -56.3334    1.0000 </r>
       <r>  -56.3331    1.0000 </r>
       <r>  -56.2461    1.0000 </r>
       <r>  -56.2458    1.0000 </r>
       <r>  -56.2429    1.0000 </r>
       <r>  -56.2426    1.0000 </r>
       <r>  -56.1725    1.0000 </r>
       <r>  -56.1722    1.0000 </r>
       <r>  -56.1690    1.0000 </r>
       <r>  -56.1686    1.0000 </r>
       <r>  -56.0925    1.0000 </r>
       <r>  -56.0921    1.0000 </r>
       <r>  -55.9462    1.0000 </r>
       <r>  -55.9459    1.0000 </r>
       <r>  -33.1364    1.0000 </r>
       <r>  -33.1297    1.0000 </r>
       <r>  -33.0630    1.0000 </r>
       <r>  -33.0622    1.0000 </r>
       <r>  -32.9591    1.0000 </r>
       <r>  -32.9585    1.0000 </r>
       <r>  -32.8399    1.0000 </r>
       <r>  -32.8390    1.0000 </r>
       <r>  -32.6297    1.0000 </r>
       <r>  -32.6287    1.0000 </r>
       <r>  -32.6246    1.0000 </r>
       <r>  -32.6235    1.0000 </r>
       <r>  -32.5864    1.0000 </r>
       <r>  -32.5797    1.0000 </r>
       <r>  -32.5772    1.0000 </r>
       <r>  -32.5715    1.0000 </r>
       <r>  -32.5714    1.0000 </r>
       <r>  -32.5621    1.0000 </r>
       <r>  -32.5528    1.0000 </r>
       <r>  -32.5515    1.0000 </r>
       <r>  -32.5483    1.0000 </r>
       <r>  -32.5468    1.0000 </r>
       <r>  -32.5279    1.0000 </r>
       <r>  -32.5257    1.0000 </r>
       <r>  -32.5188    1.0000 </r>
       <r>  -32.5169    1.0000 </r>
       <r>  -32.4977    1.0000 </r>
       <r>  -32.4966    1.0000 </r>
       <r>  -32.4832    1.0000 </r>
       <r>  -32.4747    1.0000 </r>
       <r>  -32.4014    1.0000 </r>
       <r>  -32.4004    1.0000 </r>
       <r>  -32.3949    1.0000 </r>
       <r>  -32.3940    1.0000 </r>
       <r>  -32.3527    1.0000 </r>
       <r>  -32.3474    1.0000 </r>
       <r>  -32.3468    1.0000 </r>
       <r>  -32.3431    1.0000 </r>
       <r>  -32.2896    1.0000 </r>
       <r>  -32.2888    1.0000 </r>
       <r>  -32.2054    1.0000 </r>
       <r>  -32.2049    1.0000 </r>
       <r>  -32.1782    1.0000 </r>
       <r>  -32.1777    1.0000 </r>
       <r>  -32.1065    1.0000 </r>
       <r>  -32.1059    1.0000 </r>
       <r>  -32.0500    1.0000 </r>
       <r>  -32.0494    1.0000 </r>
       <r>  -13.8571    1.0000 </r>
       <r>  -13.8433    1.0000 </r>
       <r>  -13.8258    1.0000 </r>
       <r>  -13.8253    1.0000 </r>
       <r>  -13.7946    1.0000 </r>
       <r>  -13.6827    1.0000 </r>
       <r>  -13.6768    1.0000 </r>
       <r>  -13.6726    1.0000 </r>
       <r>  -13.6706    1.0000 </r>
       <r>  -13.6328    1.0000 </r>
       <r>   -7.8404    1.0000 </r>
       <r>   -6.9402    1.0000 </r>
       <r>   -6.8205    1.0000 </r>
       <r>   -6.2453    1.0000 </r>
       <r>   -5.9388    1.0000 </r>
       <r>   -5.5141    1.0000 </r>
       <r>   -5.3571    1.0000 </r>
       <r>   -4.7683    1.0000 </r>
       <r>   -4.4726    1.0000 </r>
       <r>   -4.3553    1.0000 </r>
       <r>   -4.0869    1.0000 </r>
       <r>   -3.8406    1.0000 </r>
       <r>   -3.7149    1.0000 </r>
       <r>   -3.5060    1.0000 </r>
       <r>   -3.4453    1.0000 </r>
       <r>   -2.7815    1.0000 </r>
       <r>   -2.6854    1.0000 </r>
       <r>   -2.5709    1.0000 </r>
       <r>   -2.3011    1.0000 </r>
       <r>   -2.1125    1.0000 </r>
       <r>   -1.9007    1.0000 </r>
       <r>   -1.8619    1.0000 </r>
       <r>   -1.6527    1.0000 </r>
       <r>   -1.5171    1.0000 </r>
       <r>   -1.3760    1.0000 </r>
       <r>   -1.3584    1.0000 </r>
       <r>   -1.2446    1.0000 </r>
       <r>   -1.1614    1.0000 </r>
       <r>   -1.1261    1.0000 </r>
       <r>   -1.0266    1.0000 </r>
       <r>   -0.9993    1.0000 </r>
       <r>   -0.8870    1.0000 </r>
       <r>   -0.8278    1.0000 </r>
       <r>   -0.7449    1.0000 </r>
       <r>   -0.6548    1.0000 </r>
       <r>   -0.6422    1.0000 </r>
       <r>   -0.5424    1.0000 </r>
       <r>   -0.4054    1.0000 </r>
       <r>   -0.3375    1.0000 </r>
       <r>   -0.3185    1.0000 </r>
       <r>   -0.2293    1.0000 </r>
       <r>   -0.1569    1.0000 </r>
       <r>   -0.0651    1.0000 </r>
       <r>   -0.0444    1.0000 </r>
       <r>    0.0602    1.0000 </r>
       <r>    0.0926    1.0000 </r>
       <r>    0.1654    1.0000 </r>
       <r>    0.1936    1.0000 </r>
       <r>    0.2483    1.0000 </r>
       <r>    0.3079    1.0001 </r>
       <r>    0.3434    1.0009 </r>
       <r>    0.3672    1.0024 </r>
       <r>    0.3910    1.0059 </r>
       <r>    0.4807    1.0353 </r>
       <r>    0.5271    0.9698 </r>
       <r>    0.5806    0.6610 </r>
       <r>    0.6048    0.4597 </r>
       <r>    0.7249   -0.0354 </r>
       <r>    0.7434   -0.0305 </r>
       <r>    0.7511   -0.0272 </r>
       <r>    0.8008   -0.0078 </r>
       <r>    0.8535   -0.0010 </r>
       <r>    0.9626   -0.0000 </r>
       <r>    1.0060   -0.0000 </r>
       <r>    1.0535   -0.0000 </r>
       <r>    1.0701   -0.0000 </r>
       <r>    1.1951   -0.0000 </r>
       <r>    1.2108   -0.0000 </r>
       <r>    1.3048   -0.0000 </r>
       <r>    1.3380   -0.0000 </r>
       <r>    1.3990   -0.0000 </r>
       <r>    1.4199   -0.0000 </r>
       <r>    1.5258   -0.0000 </r>
       <r>    1.5558   -0.0000 </r>
       <r>    1.5994   -0.0000 </r>
       <r>    1.6664   -0.0000 </r>
       <r>    1.7180   -0.0000 </r>
       <r>    1.7407   -0.0000 </r>
       <r>    1.8196   -0.0000 </r>
       <r>    1.9019   -0.0000 </r>
       <r>    1.9285   -0.0000 </r>
       <r>    1.9436   -0.0000 </r>
       <r>    1.9603   -0.0000 </r>
       <r>    2.0199   -0.0000 </r>
       <r>    2.0341   -0.0000 </r>
       <r>    2.0467   -0.0000 </r>
       <r>    2.1223   -0.0000 </r>
       <r>    2.1829   -0.0000 </r>
       <r>    2.2129   -0.0000 </r>
       <r>    2.2481   -0.0000 </r>
       <r>    2.2591   -0.0000 </r>
       <r>    2.3345   -0.0000 </r>
       <r>    2.3834   -0.0000 </r>
       <r>    2.4427   -0.0000 </r>
       <r>    2.4764   -0.0000 </r>
       <r>    2.4899   -0.0000 </r>
       <r>    2.5479   -0.0000 </r>
       <r>    2.5601   -0.0000 </r>
       <r>    2.5655   -0.0000 </r>
       <r>    2.6030    0.0000 </r>
       <r>    2.6686    0.0000 </r>
       <r>    2.6822    0.0000 </r>
       <r>    2.7528    0.0000 </r>
       <r>    2.7898    0.0000 </r>
       <r>    2.8712    0.0000 </r>
       <r>    2.9915    0.0000 </r>
       <r>    3.0124    0.0000 </r>
       <r>    3.0352    0.0000 </r>
       <r>    3.1752    0.0000 </r>
       <r>    3.2332    0.0000 </r>
       <r>    3.2777    0.0000 </r>
       <r>    3.3478    0.0000 </r>
       <r>    3.4995    0.0000 </r>
       <r>    3.5319    0.0000 </r>
       <r>    3.6441    0.0000 </r>
       <r>    3.7503    0.0000 </r>
       <r>    3.7977    0.0000 </r>
       <r>    3.9315    0.0000 </r>
      </set>
      <set comment="kpoint 6">
       <r>  -56.7724    1.0000 </r>
       <r>  -56.7721    1.0000 </r>
       <r>  -56.3334    1.0000 </r>
       <r>  -56.3331    1.0000 </r>
       <r>  -56.2455    1.0000 </r>
       <r>  -56.2452    1.0000 </r>
       <r>  -56.2435    1.0000 </r>
       <r>  -56.2432    1.0000 </r>
       <r>  -56.1715    1.0000 </r>
       <r>  -56.1711    1.0000 </r>
       <r>  -56.1702    1.0000 </r>
       <r>  -56.1699    1.0000 </r>
       <r>  -56.0923    1.0000 </r>
       <r>  -56.0919    1.0000 </r>
       <r>  -55.9463    1.0000 </r>
       <r>  -55.9459    1.0000 </r>
       <r>  -33.1364    1.0000 </r>
       <r>  -33.1297    1.0000 </r>
       <r>  -33.0629    1.0000 </r>
       <r>  -33.0621    1.0000 </r>
       <r>  -32.9591    1.0000 </r>
       <r>  -32.9585    1.0000 </r>
       <r>  -32.8398    1.0000 </r>
       <r>  -32.8389    1.0000 </r>
       <r>  -32.6272    1.0000 </r>
       <r>  -32.6261    1.0000 </r>
       <r>  -32.6260    1.0000 </r>
       <r>  -32.6250    1.0000 </r>
       <r>  -32.5850    1.0000 </r>
       <r>  -32.5810    1.0000 </r>
       <r>  -32.5761    1.0000 </r>
       <r>  -32.5725    1.0000 </r>
       <r>  -32.5712    1.0000 </r>
       <r>  -32.5620    1.0000 </r>
       <r>  -32.5551    1.0000 </r>
       <r>  -32.5538    1.0000 </r>
       <r>  -32.5461    1.0000 </r>
       <r>  -32.5446    1.0000 </r>
       <r>  -32.5290    1.0000 </r>
       <r>  -32.5255    1.0000 </r>
       <r>  -32.5197    1.0000 </r>
       <r>  -32.5168    1.0000 </r>
       <r>  -32.4984    1.0000 </r>
       <r>  -32.4972    1.0000 </r>
       <r>  -32.4826    1.0000 </r>
       <r>  -32.4741    1.0000 </r>
       <r>  -32.4032    1.0000 </r>
       <r>  -32.4022    1.0000 </r>
       <r>  -32.3941    1.0000 </r>
       <r>  -32.3932    1.0000 </r>
       <r>  -32.3544    1.0000 </r>
       <r>  -32.3535    1.0000 </r>
       <r>  -32.3526    1.0000 </r>
       <r>  -32.3434    1.0000 </r>
       <r>  -32.2807    1.0000 </r>
       <r>  -32.2799    1.0000 </r>
       <r>  -32.2061    1.0000 </r>
       <r>  -32.2056    1.0000 </r>
       <r>  -32.1760    1.0000 </r>
       <r>  -32.1755    1.0000 </r>
       <r>  -32.1109    1.0000 </r>
       <r>  -32.1103    1.0000 </r>
       <r>  -32.0486    1.0000 </r>
       <r>  -32.0480    1.0000 </r>
       <r>  -13.8571    1.0000 </r>
       <r>  -13.8433    1.0000 </r>
       <r>  -13.8258    1.0000 </r>
       <r>  -13.8253    1.0000 </r>
       <r>  -13.7946    1.0000 </r>
       <r>  -13.6827    1.0000 </r>
       <r>  -13.6768    1.0000 </r>
       <r>  -13.6726    1.0000 </r>
       <r>  -13.6706    1.0000 </r>
       <r>  -13.6328    1.0000 </r>
       <r>   -7.5438    1.0000 </r>
       <r>   -7.2902    1.0000 </r>
       <r>   -6.6235    1.0000 </r>
       <r>   -6.4608    1.0000 </r>
       <r>   -5.9519    1.0000 </r>
       <r>   -5.9008    1.0000 </r>
       <r>   -5.2937    1.0000 </r>
       <r>   -5.2099    1.0000 </r>
       <r>   -4.1202    1.0000 </r>
       <r>   -4.0422    1.0000 </r>
       <r>   -3.7621    1.0000 </r>
       <r>   -3.5935    1.0000 </r>
       <r>   -3.3599    1.0000 </r>
       <r>   -3.1670    1.0000 </r>
       <r>   -3.1301    1.0000 </r>
       <r>   -3.0359    1.0000 </r>
       <r>   -2.9826    1.0000 </r>
       <r>   -2.9538    1.0000 </r>
       <r>   -2.0073    1.0000 </r>
       <r>   -2.0054    1.0000 </r>
       <r>   -1.9380    1.0000 </r>
       <r>   -1.8628    1.0000 </r>
       <r>   -1.7195    1.0000 </r>
       <r>   -1.6602    1.0000 </r>
       <r>   -1.4485    1.0000 </r>
       <r>   -1.4232    1.0000 </r>
       <r>   -1.2924    1.0000 </r>
       <r>   -1.2610    1.0000 </r>
       <r>   -1.2348    1.0000 </r>
       <r>   -1.2302    1.0000 </r>
       <r>   -1.1629    1.0000 </r>
       <r>   -0.9406    1.0000 </r>
       <r>   -0.8838    1.0000 </r>
       <r>   -0.7535    1.0000 </r>
       <r>   -0.7022    1.0000 </r>
       <r>   -0.6835    1.0000 </r>
       <r>   -0.4877    1.0000 </r>
       <r>   -0.4574    1.0000 </r>
       <r>   -0.3695    1.0000 </r>
       <r>   -0.3216    1.0000 </r>
       <r>   -0.2502    1.0000 </r>
       <r>   -0.1909    1.0000 </r>
       <r>   -0.0697    1.0000 </r>
       <r>    0.0472    1.0000 </r>
       <r>    0.1028    1.0000 </r>
       <r>    0.1158    1.0000 </r>
       <r>    0.1357    1.0000 </r>
       <r>    0.1401    1.0000 </r>
       <r>    0.1516    1.0000 </r>
       <r>    0.1999    1.0000 </r>
       <r>    0.2685    1.0000 </r>
       <r>    0.3513    1.0012 </r>
       <r>    0.3835    1.0045 </r>
       <r>    0.4022    1.0086 </r>
       <r>    0.5027    1.0221 </r>
       <r>    0.5162    0.9993 </r>
       <r>    0.6019    0.4839 </r>
       <r>    0.7196   -0.0353 </r>
       <r>    0.8177   -0.0043 </r>
       <r>    0.8497   -0.0012 </r>
       <r>    0.8912   -0.0002 </r>
       <r>    0.9485   -0.0000 </r>
       <r>    0.9613   -0.0000 </r>
       <r>    0.9626   -0.0000 </r>
       <r>    1.0177   -0.0000 </r>
       <r>    1.0792   -0.0000 </r>
       <r>    1.0982   -0.0000 </r>
       <r>    1.1586   -0.0000 </r>
       <r>    1.2760   -0.0000 </r>
[...]
       <r>    0.9636   -0.0000 </r>
       <r>    1.0020   -0.0000 </r>
       <r>    1.0090   -0.0000 </r>
       <r>    1.0416   -0.0000 </r>
       <r>    1.1549   -0.0000 </r>
       <r>    1.1693   -0.0000 </r>
       <r>    1.3794   -0.0000 </r>
       <r>    1.3845   -0.0000 </r>
       <r>    1.5396   -0.0000 </r>
       <r>    1.5531   -0.0000 </r>
       <r>    1.5582   -0.0000 </r>
       <r>    1.5680   -0.0000 </r>
       <r>    1.6654   -0.0000 </r>
       <r>    1.6696   -0.0000 </r>
       <r>    1.6731   -0.0000 </r>
       <r>    1.6741   -0.0000 </r>
       <r>    1.7613   -0.0000 </r>
       <r>    1.7871   -0.0000 </r>
       <r>    2.0297   -0.0000 </r>
       <r>    2.0302   -0.0000 </r>
       <r>    2.0573   -0.0000 </r>
       <r>    2.1142   -0.0000 </r>
       <r>    2.1597   -0.0000 </r>
       <r>    2.1872   -0.0000 </r>
       <r>    2.2016   -0.0000 </r>
       <r>    2.2047   -0.0000 </r>
       <r>    2.2209   -0.0000 </r>
       <r>    2.2426   -0.0000 </r>
       <r>    2.3165   -0.0000 </r>
       <r>    2.3453   -0.0000 </r>
       <r>    2.3480   -0.0000 </r>
       <r>    2.3882   -0.0000 </r>
       <r>    2.5415   -0.0000 </r>
       <r>    2.6044    0.0000 </r>
       <r>    2.6463    0.0000 </r>
       <r>    2.6769    0.0000 </r>
       <r>    2.6990    0.0000 </r>
       <r>    2.7187    0.0000 </r>
       <r>    2.7452    0.0000 </r>
       <r>    2.7763    0.0000 </r>
       <r>    2.8967    0.0000 </r>
       <r>    2.9218    0.0000 </r>
       <r>    2.9825    0.0000 </r>
       <r>    3.0100    0.0000 </r>
       <r>    3.0221    0.0000 </r>
       <r>    3.0290    0.0000 </r>
       <r>    3.0536    0.0000 </r>
       <r>    3.1389    0.0000 </r>
       <r>    3.1565    0.0000 </r>
       <r>    3.1870    0.0000 </r>
       <r>    3.5067    0.0000 </r>
       <r>    3.5141    0.0000 </r>
       <r>    3.5153    0.0000 </r>
       <r>    3.5592    0.0000 </r>
       <r>    3.7735    0.0000 </r>
       <r>    3.8175    0.0000 </r>
      </set>
     </set>
    </set>
   </array>
  </eigenvalues>
  <separator name="orbital magnetization" >
   <v name="MAGDIPOLOUT">      0.00000000      0.00000000      0.00000000</v>
  </separator>
  <dos>
   <i name="efermi">      0.60003256 </i>
   <total>
    <array>
     <dimension dim="1">gridpoints</dimension>
     <dimension dim="2">spin</dimension>
     <field>energy</field>
     <field>total</field>
     <field>integrated</field>
     <set>
      <set comment="spin 1">
       <r>   -59.8136     0.0000     0.0000 </r>
       <r>   -59.5906     0.0000     0.0000 </r>
       <r>   -59.3676     0.0000     0.0000 </r>
       <r>   -59.1445     0.0000     0.0000 </r>
       <r>   -58.9215     0.0000     0.0000 </r>
       <r>   -58.6985     0.0000     0.0000 </r>
       <r>   -58.4755     0.0000     0.0000 </r>
       <r>   -58.2525     0.0000     0.0000 </r>
       <r>   -58.0295     0.0000     0.0000 </r>
       <r>   -57.8065     0.0000     0.0000 </r>
       <r>   -57.5834    -0.0000    -0.0000 </r>
       <r>   -57.3604    -0.0000    -0.0000 </r>
       <r>   -57.1374    -0.0000    -0.0000 </r>
       <r>   -56.9144    -0.5555    -0.1239 </r>
       <r>   -56.6914    18.3535     3.9692 </r>
       <r>   -56.4684    -0.5861     3.8385 </r>
       <r>   -56.2454    36.8430    12.0550 </r>
       <r>   -56.0223    72.2862    28.1758 </r>
       <r>   -55.7993    17.6721    32.1169 </r>
       <r>   -55.5763    -0.5243    32.0000 </r>
       <r>   -55.3533    -0.0000    32.0000 </r>
       <r>   -55.1303     0.0000    32.0000 </r>
       <r>   -54.9073     0.0000    32.0000 </r>
       <r>   -54.6843     0.0000    32.0000 </r>
       <r>   -54.4612     0.0000    32.0000 </r>
       <r>   -54.2382     0.0000    32.0000 </r>
       <r>   -54.0152     0.0000    32.0000 </r>
       <r>   -53.7922     0.0000    32.0000 </r>
       <r>   -53.5692     0.0000    32.0000 </r>
       <r>   -53.3462     0.0000    32.0000 </r>
       <r>   -53.1232     0.0000    32.0000 </r>
       <r>   -52.9002     0.0000    32.0000 </r>
       <r>   -52.6771     0.0000    32.0000 </r>
       <r>   -52.4541     0.0000    32.0000 </r>
       <r>   -52.2311     0.0000    32.0000 </r>
       <r>   -52.0081     0.0000    32.0000 </r>
       <r>   -51.7851     0.0000    32.0000 </r>
       <r>   -51.5621     0.0000    32.0000 </r>
       <r>   -51.3391     0.0000    32.0000 </r>
       <r>   -51.1160     0.0000    32.0000 </r>
       <r>   -50.8930     0.0000    32.0000 </r>
       <r>   -50.6700     0.0000    32.0000 </r>
       <r>   -50.4470     0.0000    32.0000 </r>
       <r>   -50.2240     0.0000    32.0000 </r>
       <r>   -50.0010     0.0000    32.0000 </r>
       <r>   -49.7780     0.0000    32.0000 </r>
       <r>   -49.5549     0.0000    32.0000 </r>
       <r>   -49.3319     0.0000    32.0000 </r>
       <r>   -49.1089     0.0000    32.0000 </r>
       <r>   -48.8859     0.0000    32.0000 </r>
       <r>   -48.6629     0.0000    32.0000 </r>
       <r>   -48.4399     0.0000    32.0000 </r>
       <r>   -48.2169     0.0000    32.0000 </r>
       <r>   -47.9938     0.0000    32.0000 </r>
       <r>   -47.7708     0.0000    32.0000 </r>
       <r>   -47.5478     0.0000    32.0000 </r>
       <r>   -47.3248     0.0000    32.0000 </r>
       <r>   -47.1018     0.0000    32.0000 </r>
       <r>   -46.8788     0.0000    32.0000 </r>
       <r>   -46.6558     0.0000    32.0000 </r>
       <r>   -46.4327     0.0000    32.0000 </r>
       <r>   -46.2097     0.0000    32.0000 </r>
       <r>   -45.9867     0.0000    32.0000 </r>
       <r>   -45.7637     0.0000    32.0000 </r>
       <r>   -45.5407     0.0000    32.0000 </r>
       <r>   -45.3177     0.0000    32.0000 </r>
       <r>   -45.0947     0.0000    32.0000 </r>
       <r>   -44.8716     0.0000    32.0000 </r>
       <r>   -44.6486     0.0000    32.0000 </r>
       <r>   -44.4256     0.0000    32.0000 </r>
       <r>   -44.2026     0.0000    32.0000 </r>
       <r>   -43.9796     0.0000    32.0000 </r>
       <r>   -43.7566     0.0000    32.0000 </r>
       <r>   -43.5336     0.0000    32.0000 </r>
       <r>   -43.3106     0.0000    32.0000 </r>
       <r>   -43.0875     0.0000    32.0000 </r>
       <r>   -42.8645     0.0000    32.0000 </r>
       <r>   -42.6415     0.0000    32.0000 </r>
       <r>   -42.4185     0.0000    32.0000 </r>
       <r>   -42.1955     0.0000    32.0000 </r>
       <r>   -41.9725     0.0000    32.0000 </r>
       <r>   -41.7495     0.0000    32.0000 </r>
       <r>   -41.5264     0.0000    32.0000 </r>
       <r>   -41.3034     0.0000    32.0000 </r>
       <r>   -41.0804     0.0000    32.0000 </r>
       <r>   -40.8574     0.0000    32.0000 </r>
       <r>   -40.6344     0.0000    32.0000 </r>
       <r>   -40.4114     0.0000    32.0000 </r>
       <r>   -40.1884     0.0000    32.0000 </r>
       <r>   -39.9653     0.0000    32.0000 </r>
       <r>   -39.7423     0.0000    32.0000 </r>
       <r>   -39.5193     0.0000    32.0000 </r>
       <r>   -39.2963     0.0000    32.0000 </r>
       <r>   -39.0733     0.0000    32.0000 </r>
       <r>   -38.8503     0.0000    32.0000 </r>
       <r>   -38.6273     0.0000    32.0000 </r>
       <r>   -38.4042     0.0000    32.0000 </r>
       <r>   -38.1812     0.0000    32.0000 </r>
       <r>   -37.9582     0.0000    32.0000 </r>
       <r>   -37.7352     0.0000    32.0000 </r>
       <r>   -37.5122     0.0000    32.0000 </r>
       <r>   -37.2892     0.0000    32.0000 </r>
       <r>   -37.0662     0.0000    32.0000 </r>
       <r>   -36.8431     0.0000    32.0000 </r>
       <r>   -36.6201     0.0000    32.0000 </r>
       <r>   -36.3971     0.0000    32.0000 </r>
       <r>   -36.1741     0.0000    32.0000 </r>
       <r>   -35.9511     0.0000    32.0000 </r>
       <r>   -35.7281     0.0000    32.0000 </r>
       <r>   -35.5051     0.0000    32.0000 </r>
       <r>   -35.2820     0.0000    32.0000 </r>
       <r>   -35.0590     0.0000    32.0000 </r>
       <r>   -34.8360     0.0000    32.0000 </r>
       <r>   -34.6130     0.0000    32.0000 </r>
       <r>   -34.3900     0.0000    32.0000 </r>
       <r>   -34.1670     0.0000    32.0000 </r>
       <r>   -33.9440    -0.0000    32.0000 </r>
       <r>   -33.7210    -0.0000    32.0000 </r>
       <r>   -33.4979    -0.0000    32.0000 </r>
       <r>   -33.2749    -0.6513    31.8547 </r>
       <r>   -33.0519    28.6397    38.2418 </r>
       <r>   -32.8289    36.7046    46.4274 </r>
       <r>   -32.6059    46.9205    56.8914 </r>
       <r>   -32.3829   190.4490    99.3641 </r>
       <r>   -32.1599    85.9626   118.5350 </r>
       <r>   -31.9368    43.4258   128.2196 </r>
       <r>   -31.7138    -0.9843   128.0000 </r>
       <r>   -31.4908    -0.0002   128.0000 </r>
       <r>   -31.2678    -0.0000   128.0000 </r>
       <r>   -31.0448     0.0000   128.0000 </r>
       <r>   -30.8218     0.0000   128.0000 </r>
       <r>   -30.5988     0.0000   128.0000 </r>
       <r>   -30.3757     0.0000   128.0000 </r>
       <r>   -30.1527     0.0000   128.0000 </r>
       <r>   -29.9297     0.0000   128.0000 </r>
       <r>   -29.7067     0.0000   128.0000 </r>
       <r>   -29.4837     0.0000   128.0000 </r>
       <r>   -29.2607     0.0000   128.0000 </r>
       <r>   -29.0377     0.0000   128.0000 </r>
       <r>   -28.8146     0.0000   128.0000 </r>
       <r>   -28.5916     0.0000   128.0000 </r>
       <r>   -28.3686     0.0000   128.0000 </r>
       <r>   -28.1456     0.0000   128.0000 </r>
       <r>   -27.9226     0.0000   128.0000 </r>
       <r>   -27.6996     0.0000   128.0000 </r>
       <r>   -27.4766     0.0000   128.0000 </r>
       <r>   -27.2535     0.0000   128.0000 </r>
       <r>   -27.0305     0.0000   128.0000 </r>
       <r>   -26.8075     0.0000   128.0000 </r>
       <r>   -26.5845     0.0000   128.0000 </r>
       <r>   -26.3615     0.0000   128.0000 </r>
       <r>   -26.1385     0.0000   128.0000 </r>
       <r>   -25.9155     0.0000   128.0000 </r>
       <r>   -25.6924     0.0000   128.0000 </r>
       <r>   -25.4694     0.0000   128.0000 </r>
       <r>   -25.2464     0.0000   128.0000 </r>
       <r>   -25.0234     0.0000   128.0000 </r>
       <r>   -24.8004     0.0000   128.0000 </r>
       <r>   -24.5774     0.0000   128.0000 </r>
       <r>   -24.3544     0.0000   128.0000 </r>
       <r>   -24.1314     0.0000   128.0000 </r>
       <r>   -23.9083     0.0000   128.0000 </r>
       <r>   -23.6853     0.0000   128.0000 </r>
       <r>   -23.4623     0.0000   128.0000 </r>
       <r>   -23.2393     0.0000   128.0000 </r>
       <r>   -23.0163     0.0000   128.0000 </r>
       <r>   -22.7933     0.0000   128.0000 </r>
       <r>   -22.5703     0.0000   128.0000 </r>
       <r>   -22.3472     0.0000   128.0000 </r>
       <r>   -22.1242     0.0000   128.0000 </r>
       <r>   -21.9012     0.0000   128.0000 </r>
       <r>   -21.6782     0.0000   128.0000 </r>
       <r>   -21.4552     0.0000   128.0000 </r>
       <r>   -21.2322     0.0000   128.0000 </r>
       <r>   -21.0092     0.0000   128.0000 </r>
       <r>   -20.7861     0.0000   128.0000 </r>
       <r>   -20.5631     0.0000   128.0000 </r>
       <r>   -20.3401     0.0000   128.0000 </r>
       <r>   -20.1171     0.0000   128.0000 </r>
       <r>   -19.8941     0.0000   128.0000 </r>
       <r>   -19.6711     0.0000   128.0000 </r>
       <r>   -19.4481     0.0000   128.0000 </r>
       <r>   -19.2250     0.0000   128.0000 </r>
       <r>   -19.0020     0.0000   128.0000 </r>
       <r>   -18.7790     0.0000   128.0000 </r>
       <r>   -18.5560     0.0000   128.0000 </r>
       <r>   -18.3330     0.0000   128.0000 </r>
       <r>   -18.1100     0.0000   128.0000 </r>
       <r>   -17.8870     0.0000   128.0000 </r>
       <r>   -17.6639     0.0000   128.0000 </r>
       <r>   -17.4409     0.0000   128.0000 </r>
       <r>   -17.2179     0.0000   128.0000 </r>
       <r>   -16.9949     0.0000   128.0000 </r>
       <r>   -16.7719     0.0000   128.0000 </r>
       <r>   -16.5489     0.0000   128.0000 </r>
       <r>   -16.3259     0.0000   128.0000 </r>
       <r>   -16.1029     0.0000   128.0000 </r>
       <r>   -15.8798     0.0000   128.0000 </r>
       <r>   -15.6568     0.0000   128.0000 </r>
       <r>   -15.4338     0.0000   128.0000 </r>
       <r>   -15.2108     0.0000   128.0000 </r>
       <r>   -14.9878     0.0000   128.0000 </r>
       <r>   -14.7648    -0.0000   128.0000 </r>
       <r>   -14.5418    -0.0000   128.0000 </r>
       <r>   -14.3187    -0.0000   128.0000 </r>
       <r>   -14.0957    -0.0352   127.9922 </r>
       <r>   -13.8727     8.1253   129.8042 </r>
       <r>   -13.6497    66.1805   144.5634 </r>
       <r>   -13.4267    15.5126   148.0229 </r>
       <r>   -13.2037    -0.1028   148.0000 </r>
       <r>   -12.9807    -0.0000   148.0000 </r>
       <r>   -12.7576     0.0000   148.0000 </r>
       <r>   -12.5346     0.0000   148.0000 </r>
       <r>   -12.3116     0.0000   148.0000 </r>
       <r>   -12.0886     0.0000   148.0000 </r>
       <r>   -11.8656     0.0000   148.0000 </r>
       <r>   -11.6426     0.0000   148.0000 </r>
       <r>   -11.4196     0.0000   148.0000 </r>
       <r>   -11.1965     0.0000   148.0000 </r>
       <r>   -10.9735     0.0000   148.0000 </r>
       <r>   -10.7505     0.0000   148.0000 </r>
       <r>   -10.5275     0.0000   148.0000 </r>
       <r>   -10.3045     0.0000   148.0000 </r>
       <r>   -10.0815     0.0000   148.0000 </r>
       <r>    -9.8585     0.0000   148.0000 </r>
       <r>    -9.6354     0.0000   148.0000 </r>
       <r>    -9.4124     0.0000   148.0000 </r>
       <r>    -9.1894     0.0000   148.0000 </r>
       <r>    -8.9664    -0.0000   148.0000 </r>
       <r>    -8.7434    -0.0000   148.0000 </r>
       <r>    -8.5204    -0.0000   148.0000 </r>
       <r>    -8.2974    -0.0051   147.9989 </r>
       <r>    -8.0743     0.3406   148.0748 </r>
       <r>    -7.8513     3.4337   148.8406 </r>
       <r>    -7.6283     2.7208   149.4473 </r>
       <r>    -7.4053     2.5101   150.0071 </r>
       <r>    -7.1823     3.2378   150.7292 </r>
       <r>    -6.9593     2.9886   151.3957 </r>
       <r>    -6.7363     7.2748   153.0181 </r>
       <r>    -6.5133     4.6009   154.0441 </r>
       <r>    -6.2902     3.0729   154.7294 </r>
       <r>    -6.0672     3.5113   155.5125 </r>
       <r>    -5.8442     9.0545   157.5318 </r>
       <r>    -5.6212     3.5983   158.3343 </r>
       <r>    -5.3982     7.6945   160.0502 </r>
       <r>    -5.1752     8.4419   161.9329 </r>
       <r>    -4.9522     4.3227   162.8969 </r>
       <r>    -4.7291     5.9444   164.2226 </r>
       <r>    -4.5061     2.3565   164.7481 </r>
       <r>    -4.2831     8.9897   166.7530 </r>
       <r>    -4.0601    12.1180   169.4555 </r>
       <r>    -3.8371     8.4772   171.3460 </r>
       <r>    -3.6141    12.7975   174.2000 </r>
       <r>    -3.3911     9.8498   176.3967 </r>
       <r>    -3.1680     3.3139   177.1357 </r>
       <r>    -2.9450     7.3661   178.7784 </r>
       <r>    -2.7220     8.4892   180.6717 </r>
       <r>    -2.4990    10.5726   183.0295 </r>
       <r>    -2.2760     9.6295   185.1770 </r>
       <r>    -2.0530    10.0873   187.4266 </r>
       <r>    -1.8300    16.0390   191.0035 </r>
       <r>    -1.6069    16.5630   194.6973 </r>
       <r>    -1.3839    16.6902   198.4195 </r>
       <r>    -1.1609    27.3516   204.5192 </r>
       <r>    -0.9379    21.5522   209.3257 </r>
       <r>    -0.7149    26.9480   215.3355 </r>
       <r>    -0.4919    26.1989   221.1782 </r>
       <r>    -0.2689    27.0735   227.2160 </r>
       <r>    -0.0458    27.6872   233.3906 </r>
       <r>     0.1772    40.8334   242.4970 </r>
       <r>     0.4002    44.8317   252.4951 </r>
       <r>     0.6232    37.8749   260.9418 </r>
       <r>     0.8462    40.4868   269.9709 </r>
       <r>     1.0692    36.1094   278.0238 </r>
       <r>     1.2922    36.2479   286.1076 </r>
       <r>     1.5153    32.8442   293.4323 </r>
       <r>     1.7383    34.1514   301.0485 </r>
       <r>     1.9613    44.0634   310.8753 </r>
       <r>     2.1843    57.3169   323.6578 </r>
       <r>     2.4073    51.3652   335.1129 </r>
       <r>     2.6303    58.9779   348.2658 </r>
       <r>     2.8533    34.4523   355.9492 </r>
       <r>     3.0763    28.5569   362.3178 </r>
       <r>     3.2994    30.5256   369.1254 </r>
       <r>     3.5224    30.8742   376.0108 </r>
       <r>     3.7454    15.5618   379.4813 </r>
       <r>     3.9684    17.8937   383.4718 </r>
       <r>     4.1914     2.4107   384.0094 </r>
       <r>     4.4144    -0.0424   384.0000 </r>
       <r>     4.6374    -0.0000   384.0000 </r>
       <r>     4.8605     0.0000   384.0000 </r>
       <r>     5.0835     0.0000   384.0000 </r>
       <r>     5.3065     0.0000   384.0000 </r>
       <r>     5.5295     0.0000   384.0000 </r>
       <r>     5.7525     0.0000   384.0000 </r>
       <r>     5.9755     0.0000   384.0000 </r>
       <r>     6.1985     0.0000   384.0000 </r>
       <r>     6.4216     0.0000   384.0000 </r>
       <r>     6.6446     0.0000   384.0000 </r>
       <r>     6.8676     0.0000   384.0000 </r>
       <r>     7.0906     0.0000   384.0000 </r>
      </set>
     </set>
    </array>
   </total>
  </dos>
 </calculation>
 <structure name="finalpos" >
  <crystal>
   <varray name="basis" >
    <v>       7.98364011       0.00000000       0.00000000 </v>
    <v>       0.00000000       8.10998246       0.00000000 </v>
    <v>       0.00000000       0.00000000      22.98206609 </v>
   </varray>
   <i name="volume">   1488.02399934 </i>
   <varray name="rec_basis" >
    <v>       0.12525615      -0.00000000      -0.00000000 </v>
    <v>       0.00000000       0.12330483      -0.00000000 </v>
    <v>       0.00000000       0.00000000       0.04351219 </v>
   </varray>
  </crystal>
  <varray name="positions" >
   <v>       0.00000000       0.99938281       0.32640991 </v>
   <v>       0.50000000       0.99938281       0.50010273 </v>
   <v>       0.00000000       0.50061719       0.32640991 </v>
   <v>       0.50000000       0.50061719       0.50010273 </v>
   <v>       0.75019716       0.99938281       0.41318783 </v>
   <v>       0.25019716       0.99938281       0.58688066 </v>
   <v>       0.75019716       0.50061719       0.41318783 </v>
   <v>       0.25019716       0.50061719       0.58688066 </v>
   <v>       0.24980284       0.99938281       0.41318783 </v>
   <v>       0.74980284       0.99938281       0.58688066 </v>
   <v>       0.24980284       0.50061719       0.41318783 </v>
   <v>       0.74980284       0.50061719       0.58688066 </v>
   <v>       0.00000000       0.99938281       0.49996576 </v>
   <v>       0.50000000       0.99938281       0.67365858 </v>
   <v>       0.00000000       0.50061719       0.49996576 </v>
   <v>       0.50000000       0.50061719       0.67365858 </v>
   <v>       0.00000000       0.75000000       0.41318783 </v>
   <v>       0.50000000       0.75000000       0.58688066 </v>
   <v>       0.00000000       0.25000000       0.41318783 </v>
   <v>       0.50000000       0.25000000       0.58688066 </v>
   <v>       0.75000000       0.75000000       0.50003424 </v>
   <v>       0.25000000       0.75000000       0.32634142 </v>
   <v>       0.75000000       0.25000000       0.50003424 </v>
   <v>       0.25000000       0.25000000       0.32634142 </v>
   <v>       0.25000000       0.75000000       0.50003424 </v>
   <v>       0.75000000       0.75000000       0.32634142 </v>
   <v>       0.25000000       0.25000000       0.50003424 </v>
   <v>       0.75000000       0.25000000       0.32634142 </v>
   <v>       0.00000000       0.75000000       0.58688066 </v>
   <v>       0.50000000       0.75000000       0.41318783 </v>
   <v>       0.00000000       0.25000000       0.58688066 </v>
   <v>       0.50000000       0.25000000       0.41318783 </v>
  </varray>
 </structure>
</modeling>
