unknown system                          
           1
     7.983640    0.000000    0.000000
     0.000000    8.109982    0.000000
     0.000000    0.000000   22.982066
   Ti   Ga   Al
    16     2    14
Direct configuration=     1
   0.00000000  0.99938281  0.32640991
   0.50000000  0.99938281  0.50010273
   0.00000000  0.50061719  0.32640991
   0.50000000  0.50061719  0.50010273
   0.75019716  0.99938281  0.41318783
   0.25019716  0.99938281  0.58688066
   0.75019716  0.50061719  0.41318783
   0.25019716  0.50061719  0.58688066
   0.24980284  0.99938281  0.41318783
   0.74980284  0.99938281  0.58688066
   0.24980284  0.50061719  0.41318783
   0.74980284  0.50061719  0.58688066
   0.00000000  0.99938281  0.49996576
   0.50000000  0.99938281  0.67365858
   0.00000000  0.50061719  0.49996576
   0.50000000  0.50061719  0.67365858
   0.00000000  0.75000000  0.41318783
   0.50000000  0.75000000  0.58688066
   0.00000000  0.25000000  0.41318783
   0.50000000  0.25000000  0.58688066
   0.75000000  0.75000000  0.50003424
   0.25000000  0.75000000  0.32634142
   0.75000000  0.25000000  0.50003424
   0.25000000  0.25000000  0.32634142
   0.25000000  0.75000000  0.50003424
   0.75000000  0.75000000  0.32634142
   0.25000000  0.25000000  0.50003424
   0.75000000  0.25000000  0.32634142
   0.00000000  0.75000000  0.58688066
   0.50000000  0.75000000  0.41318783
   0.00000000  0.25000000  0.58688066
   0.50000000  0.25000000  0.41318783
