       N       E                     dE             d eps       ncg     rms          rms(c)
DAV:   1     0.588300777248E+02    0.58830E+02   -0.16971E+04  1920   0.392E+02
DAV:   2    -0.244239226845E+02   -0.83254E+02   -0.83192E+02  2880   0.559E+01
DAV:   3    -0.259704861445E+02   -0.15466E+01   -0.15463E+01  1920   0.111E+01
DAV:   4    -0.260312605278E+02   -0.60774E-01   -0.60773E-01  3712   0.159E+00
DAV:   5    -0.260312772202E+02   -0.16692E-04   -0.16692E-04  1920   0.331E-02    0.124E+01
DAV:   6    -0.229860358735E+02    0.30452E+01   -0.49863E+01  3072   0.141E+01    0.738E+00
DAV:   7    -0.219103610820E+02    0.10757E+01   -0.12800E+01  3264   0.577E+00    0.304E+00
DAV:   8    -0.217203493282E+02    0.19001E+00   -0.15771E+00  3392   0.257E+00    0.143E+00
DAV:   9    -0.216948214011E+02    0.25528E-01   -0.14382E-01  3520   0.814E-01    0.449E-01
DAV:  10    -0.216901590283E+02    0.46624E-02   -0.15741E-02  3200   0.253E-01    0.210E-01
DAV:  11    -0.216892187720E+02    0.94026E-03   -0.16286E-02  3328   0.189E-01    0.141E-01
DAV:  12    -0.216883362782E+02    0.88249E-03   -0.33849E-03  2880   0.954E-02    0.616E-02
DAV:  13    -0.216887008208E+02   -0.36454E-03   -0.18239E-03  3072   0.855E-02    0.419E-02
DAV:  14    -0.216890425985E+02   -0.34178E-03   -0.45333E-04  2560   0.446E-02    0.190E-02
DAV:  15    -0.216891997649E+02   -0.15717E-03   -0.97291E-05  2816   0.149E-02    0.108E-02
DAV:  16    -0.216894693753E+02   -0.26961E-03   -0.72050E-05  3072   0.138E-02    0.687E-03
DAV:  17    -0.216897334026E+02   -0.26403E-03   -0.34300E-05  2880   0.596E-03    0.361E-03
DAV:  18    -0.216898712590E+02   -0.13786E-03   -0.26455E-05  2816   0.379E-03    0.952E-04
DAV:  19    -0.216898998772E+02   -0.28618E-04   -0.31254E-06  2752   0.119E-03    0.459E-04
DAV:  20    -0.216899068738E+02   -0.69966E-05   -0.67477E-07  2688   0.549E-04
   1 F= -.21689907E+02 E0= -.21689116E+02  d E =-.237379E-02
