 vasp.6.5.0 16Dec24 (build Apr 17 2025 17:55:45) complex                        
  
 executed on             LinuxIFC date 2025.07.14  12:51:23
 running   64 mpi-ranks, on    1 nodes
 distrk:  each k-point on   64 cores,    1 groups
 distr:  one band on NCORE=   1 cores,   64 groups


--------------------------------------------------------------------------------------------------------


 INCAR:
   ISTART = 0
   ICHARG = 2
   PREC = N
   LREAL = .FALSE.
   ENCUT = 520
   ALGO = N
   NELM = 500
   EDIFF = 1E-05
   IBRION = -1
   ISIF = 3
   NSW = 0
   EDIFFG = -0.01
   ISMEAR = 1
   SIGMA = 0.1
   LVHAR = .TRUE.
   LVTOT = .TRUE.

 POTCAR:    PAW_PBE Ti_sv 26Sep2005               
 POTCAR:    PAW_PBE Al 04Jan2001                  
 -----------------------------------------------------------------------------
|                                                                             |
|           W    W    AA    RRRRR   N    N  II  N    N   GGGG   !!!           |
|           W    W   A  A   R    R  NN   N  II  NN   N  G    G  !!!           |
|           W    W  A    A  R    R  N N  N  II  N N  N  G       !!!           |
|           W WW W  AAAAAA  RRRRR   N  N N  II  N  N N  G  GGG   !            |
|           WW  WW  A    A  R   R   N   NN  II  N   NN  G    G                |
|           W    W  A    A  R    R  N    N  II  N    N   GGGG   !!!           |
|                                                                             |
|     For optimal performance we recommend to set                             |
|       NCORE = 2 up to number-of-cores-per-socket                            |
|     NCORE specifies how many cores store one orbital (NPAR=cpu/NCORE).      |
|     This setting can greatly improve the performance of VASP for DFT.       |
|     The default, NCORE=1 might be grossly inefficient on modern             |
|     multi-core architectures or massively parallel machines. Do your        |
|     own testing! More info at https://www.vasp.at/wiki/index.php/NCORE      |
|     Unfortunately you need to use the default for GW and RPA                |
|     calculations (for HF NCORE is supported but not extensively tested      |
|     yet).                                                                   |
|                                                                             |
 -----------------------------------------------------------------------------

 POTCAR:    PAW_PBE Ti_sv 26Sep2005               
   SHA256 =  4d747badb5a5ea28d858fbac70885b3f8929d6fd9e5b0dbe1ecb9878dc164da1 Ti_sv/POTCAR          
   COPYR  = (c) Copyright 26Sep2005 Georg Kresse                                                    
   COPYR  = This file is part of the software VASP. Any use, copying, and all other rights are regul
   COPYR  = If you do not have a valid VASP license, you may not use, copy or distribute this file. 
   VRHFIN =Ti: 3p4s3d                                                                               
   LEXCH  = PE                                                                                      
   EATOM  =  1588.0892 eV,  116.7213 Ry                                                             
                                                                                                    
   TITEL  = PAW_PBE Ti_sv 26Sep2005                                                                 
   LULTRA =        F    use ultrasoft PP ?                                                          
   IUNSCR =        1    unscreen: 0-lin 1-nonlin 2-no                                               
   RPACOR =    2.000    partial core radius                                                         
   POMASS =   47.880; ZVAL   =   12.000    mass and valenz                                          
   RCORE  =    2.300    outmost cutoff radius                                                       
   RWIGS  =    2.300; RWIGS  =    1.217    wigner-seitz radius (au A)                               
   ENMAX  =  274.610; ENMIN  =  205.957 eV                                                          
   ICORE  =        3    local potential                                                             
   LCOR   =        T    correct aug charges                                                         
   LPAW   =        T    paw PP                                                                      
   EAUG   =  482.848                                                                                
   RMAX   =    2.348    core radius for proj-oper                                                   
   RAUG   =    1.300    factor for augmentation sphere                                              
   RDEP   =    2.381    radius for radial grids                                                     
   RDEPT  =    1.930    core radius for aug-charge                                                  
                                                                                                    
   Atomic configuration                                                                             
    8 entries                                                                                       
     n  l   j            E        occ.                                                              
     1  0  0.50     -4865.3608   2.0000                                                             
     2  0  0.50      -533.1368   2.0000                                                             
     2  1  1.50      -440.5031   6.0000                                                             
     3  0  0.50       -59.3186   2.0000                                                             
     4  0  0.50        -3.7291   1.0000                                                             
     3  1  1.50       -35.7012   6.0000                                                             
     3  2  2.50        -1.9157   3.0000                                                             
     4  3  2.50        -1.3606   0.0000                                                             
   Description                                                                                      
     l       E           TYP  RCUT    TYP  RCUT                                                     
     0    -59.3185931     23  1.800                                                                 
     0     -3.7290822     23  2.300                                                                 
     1    -35.7012045     23  2.300                                                                 
     1     -1.3605826     23  2.300                                                                 
     2     -1.9156920     23  2.300                                                                 
     2     -0.0236318     23  2.300                                                                 
     3     -1.3605826     23  2.300                                                                 
  local pseudopotential read in
  partial core-charges read in
  partial kinetic energy density read in
  atomic valenz-charges read in
  non local Contribution for L=           0  read in
    real space projection operators read in
  non local Contribution for L=           0  read in
    real space projection operators read in
  non local Contribution for L=           1  read in
    real space projection operators read in
  non local Contribution for L=           1  read in
    real space projection operators read in
  non local Contribution for L=           2  read in
    real space projection operators read in
  non local Contribution for L=           2  read in
    real space projection operators read in
    PAW grid and wavefunctions read in
 
   number of l-projection  operators is LMAX  =           6
   number of lm-projection operators is LMMAX =          18
 
 POTCAR:    PAW_PBE Al 04Jan2001                  
   SHA256 =  17880443556af62b473fe41b62a467bd001ad55d2cabe504a3f22e34d4e9db96 Al/POTCAR             
   COPYR  = (c) Copyright 04Jan2001 Georg Kresse                                                    
   COPYR  = This file is part of the software VASP. Any use, copying, and all other rights are regul
   COPYR  = If you do not have a valid VASP license, you may not use, copy or distribute this file. 
   VRHFIN =Al: s2p1                                                                                 
   LEXCH  = PE                                                                                      
   EATOM  =    53.5387 eV,    3.9350 Ry                                                             
                                                                                                    
   TITEL  = PAW_PBE Al 04Jan2001                                                                    
   LULTRA =        F    use ultrasoft PP ?                                                          
   IUNSCR =        1    unscreen: 0-lin 1-nonlin 2-no                                               
   RPACOR =    1.500    partial core radius                                                         
   POMASS =   26.981; ZVAL   =    3.000    mass and valenz                                          
   RCORE  =    1.900    outmost cutoff radius                                                       
   RWIGS  =    2.650; RWIGS  =    1.402    wigner-seitz radius (au A)                               
   ENMAX  =  240.300; ENMIN  =  180.225 eV                                                          
   ICORE  =        2    local potential                                                             
   LCOR   =        T    correct aug charges                                                         
   LPAW   =        T    paw PP                                                                      
   EAUG   =  291.052                                                                                
   DEXC   =    0.000                                                                                
   RMAX   =    1.939    core radius for proj-oper                                                   
   RAUG   =    1.300    factor for augmentation sphere                                              
   RDEP   =    1.966    radius for radial grids                                                     
   RDEPT  =    1.856    core radius for aug-charge                                                  
                                                                                                    
   Atomic configuration                                                                             
    6 entries                                                                                       
     n  l   j            E        occ.                                                              
     1  0  0.50     -1511.1048   2.0000                                                             
     2  0  0.50      -108.1629   2.0000                                                             
     2  1  1.50       -69.6402   6.0000                                                             
     3  0  0.50        -7.7528   2.0000                                                             
     3  1  1.50        -2.7121   1.0000                                                             
     3  2  2.50        -2.7212   0.0000                                                             
   Description                                                                                      
     l       E           TYP  RCUT    TYP  RCUT                                                     
     0     -7.7528455     23  1.900                                                                 
     0     -3.3096929     23  1.900                                                                 
     1     -2.7120682     23  1.900                                                                 
     1     13.6058260     23  1.900                                                                 
     2     -2.7211652      7  1.900                                                                 
  local pseudopotential read in
  partial core-charges read in
  partial kinetic energy density read in
  atomic valenz-charges read in
  non local Contribution for L=           0  read in
    real space projection operators read in
  non local Contribution for L=           0  read in
    real space projection operators read in
  non local Contribution for L=           1  read in
    real space projection operators read in
  non local Contribution for L=           1  read in
    real space projection operators read in
    PAW grid and wavefunctions read in
 
   number of l-projection  operators is LMAX  =           4
   number of lm-projection operators is LMMAX =           8
 
  PAW_PBE Ti_sv 26Sep2005               :
 energy of atom  1       EATOM=-1588.0892
 kinetic energy error for atom=    0.0042 (will be added to EATOM!!)
  PAW_PBE Al 04Jan2001                  :
 energy of atom  2       EATOM=  -53.5387
 kinetic energy error for atom=    0.0002 (will be added to EATOM!!)
 
 
 POSCAR: 0000065828-primitive-cell\(2\0\2)
  positions in direct lattice
  No initial velocities read in


 exchange-correlation table for PE
   RHO(1)=    0.500       N(1)  =     2000
   RHO(2)=  100.500       N(2)  =     4000
 


--------------------------------------------------------------------------------------------------------


 ion  position               nearest neighbor table
   1  0.675  0.000  0.404-   2 2.82   3 2.85   3 2.85   3 2.85   3 2.85   4 2.85   4 2.85
   2  0.000  0.000  0.538-   1 2.82   4 2.85   4 2.85   4 2.85   4 2.85   3 2.85   3 2.85
   3  0.175  0.500  0.404-   4 2.82   1 2.85   1 2.85   1 2.85   1 2.85   2 2.85   2 2.85
   4  0.500  0.500  0.538-   3 2.82   2 2.85   2 2.85   2 2.85   2 2.85   1 2.85   1 2.85
 
  LATTYP: Found a simple orthorhombic cell.
 ALAT       =     2.8238000870
 B/A-ratio  =     1.7543380224
 C/A-ratio  =     6.1336143674
  
  Lattice vectors:
  
 A1 = (   0.0000000000,  -2.8238000870,   0.0000000000)
 A2 = (   4.9538998604,   0.0000000000,   0.0000000000)
 A3 = (   0.0000000000,   0.0000000000,  17.3201007843)


Analysis of symmetry for initial positions (statically):
=====================================================================
 Subroutine PRICEL returns:
 Original cell was already a primitive cell.
 

 Routine SETGRP: Setting up the symmetry group for a 
 simple orthorhombic supercell.


 Subroutine GETGRP returns: Found  4 space group operations
 (whereof  2 operations were pure point group operations)
 out of a pool of  8 trial point group operations.


The static configuration has the point symmetry C_1h.
 The point group associated with its full space group is C_2h.


Analysis of symmetry for dynamics (positions and initial velocities):
=====================================================================
 Subroutine PRICEL returns:
 Original cell was already a primitive cell.
 

 Routine SETGRP: Setting up the symmetry group for a 
 simple orthorhombic supercell.


 Subroutine GETGRP returns: Found  4 space group operations
 (whereof  2 operations were pure point group operations)
 out of a pool of  8 trial point group operations.


The dynamic configuration has the point symmetry C_1h.
 The point group associated with its full space group is C_2h.


 Subroutine INISYM returns: Found  4 space group operations
 (whereof  2 operations are pure point group operations),
 and found     1 'primitive' translations


----------------------------------------------------------------------------------------

                                     Primitive cell                                     

  volume of cell :     242.2878

  direct lattice vectors                    reciprocal lattice vectors
     4.953899860  0.000000000  0.000000000     0.201861166  0.000000000  0.000000000
     0.000000000  2.823800087  0.000000000     0.000000000  0.354132718  0.000000000
     0.000000000  0.000000000 17.320100784     0.000000000  0.000000000  0.057736385

  length of vectors
     4.953899860  2.823800087 17.320100784     0.201861166  0.354132718  0.057736385

  position of ions in fractional coordinates (direct lattice)
     0.675080001  0.000000000  0.404150009
     0.000000000  0.000000000  0.538110018
     0.175080001  0.500000000  0.404150009
     0.500000000  0.500000000  0.538110018

  ion indices of the primitive-cell ions
   primitive index   ion index
                 1           1
                 2           2
                 3           3
                 4           4

----------------------------------------------------------------------------------------

 
 
 KPOINTS: K-Spacing Value to Generate K-Mesh: 0.04

Automatic generation of k-mesh.
 Grid dimensions read from file:
 generate k-points for:    5    9    1

 Generating k-lattice:

  Cartesian coordinates                     Fractional coordinates (reciprocal lattice)
     0.040372233  0.000000000  0.000000000     0.200000000  0.000000000  0.000000000
     0.000000000  0.039348080  0.000000000     0.000000000  0.111111111  0.000000000
     0.000000000  0.000000000  0.057736385     0.000000000  0.000000000  1.000000000

  Length of vectors
     0.040372233  0.039348080  0.057736385

  Shift w.r.t. Gamma in fractional coordinates (k-lattice)
     0.000000000  0.000000000  0.000000000

 
 Subroutine IBZKPT returns following result:
 ===========================================
 
 Found     15 irreducible k-points:
 
 Following reciprocal coordinates:
            Coordinates               Weight
  0.000000  0.000000  0.000000      1.000000
  0.200000  0.000000  0.000000      2.000000
  0.400000  0.000000  0.000000      2.000000
  0.000000  0.111111  0.000000      2.000000
  0.200000  0.111111  0.000000      4.000000
  0.400000  0.111111  0.000000      4.000000
  0.000000  0.222222  0.000000      2.000000
  0.200000  0.222222  0.000000      4.000000
  0.400000  0.222222  0.000000      4.000000
  0.000000  0.333333  0.000000      2.000000
  0.200000  0.333333  0.000000      4.000000
  0.400000  0.333333  0.000000      4.000000
  0.000000  0.444444  0.000000      2.000000
  0.200000  0.444444  0.000000      4.000000
  0.400000  0.444444  0.000000      4.000000
 
 Following cartesian coordinates:
            Coordinates               Weight
  0.000000  0.000000  0.000000      1.000000
  0.040372  0.000000  0.000000      2.000000
  0.080744  0.000000  0.000000      2.000000
  0.000000  0.039348  0.000000      2.000000
  0.040372  0.039348  0.000000      4.000000
  0.080744  0.039348  0.000000      4.000000
  0.000000  0.078696  0.000000      2.000000
  0.040372  0.078696  0.000000      4.000000
  0.080744  0.078696  0.000000      4.000000
  0.000000  0.118044  0.000000      2.000000
  0.040372  0.118044  0.000000      4.000000
  0.080744  0.118044  0.000000      4.000000
  0.000000  0.157392  0.000000      2.000000
  0.040372  0.157392  0.000000      4.000000
  0.080744  0.157392  0.000000      4.000000
 


--------------------------------------------------------------------------------------------------------




 Dimension of arrays:
   k-points           NKPTS =     15   k-points in BZ     NKDIM =     15   number of bands    NBANDS=     64
   number of dos      NEDOS =    301   number of ions     NIONS =      4
   non local maximal  LDIM  =      6   non local SUM 2l+1 LMDIM =     18
   total plane-waves  NPLWV =  43904
   max r-space proj   IRMAX =      1   max aug-charges    IRDMAX=   7251
   dimension x,y,z NGX =    28 NGY =   16 NGZ =   98
   dimension x,y,z NGXF=    56 NGYF=   32 NGZF=  196
   support grid    NGXF=    56 NGYF=   32 NGZF=  196
   ions per type =               2   2
   NGX,Y,Z   is equivalent  to a cutoff of   9.40,  9.42,  9.41 a.u.
   NGXF,Y,Z  is equivalent  to a cutoff of  18.79, 18.84, 18.81 a.u.

 SYSTEM =  unknown system                          
 POSCAR =  0000065828-primitive-cell\(2\0\2)       

 Startparameter for this run:
   NWRITE =      2    write-flag & timer
   PREC   = n         normal or accurate (medium, high low for compatibility)
   ISTART =      0    job   : 0-new  1-cont  2-samecut
   ICHARG =      2    charge: 1-file 2-atom 10-const
   ISPIN  =      1    spin polarized calculation?
   LNONCOLLINEAR =      F non collinear calculations
   LSORBIT =      F    spin-orbit coupling
   INIWAV =      1    electr: 0-lowe 1-rand  2-diag
   LASPH  =      F    aspherical Exc in radial PAW
 Electronic Relaxation 1
   ENCUT  =  520.0 eV  38.22 Ry    6.18 a.u.   9.21  5.25 32.20*2*pi/ulx,y,z
   ENINI  =  520.0     initial cutoff
   ENAUG  =  482.8 eV  augmentation charge cutoff
   NELM   =    500;   NELMIN=  2; NELMDL= -5     # of ELM steps 
   EDIFF  = 0.1E-04   stopping-criterion for ELM
   LREAL  =      F    real-space projection
   NLSPLINE    = F    spline interpolate recip. space projectors
   LCOMPAT=      F    compatible to vasp.4.4
   GGA_COMPAT  = T    GGA compatible to vasp.4.4-vasp.4.6
   LMAXPAW     = -100 max onsite density
   LMAXMIX     =    2 max onsite mixed and CHGCAR
   VOSKOWN=      0    Vosko Wilk Nusair interpolation
   ROPT   =    0.00000   0.00000
 Ionic relaxation
   EDIFFG = -.1E-01   stopping-criterion for IOM
   NSW    =      0    number of steps for IOM
   NBLOCK =      1;   KBLOCK =      1    inner block; outer block 
   IBRION =     -1    ionic relax: 0-MD 1-quasi-New 2-CG
   NFREE  =      0    steps in history (QN), initial steepest desc. (CG)
   ISIF   =      3    stress and relaxation
   IWAVPR =     10    prediction:  0-non 1-charg 2-wave 3-comb
   ISYM   =      2    0-nonsym 1-usesym 2-fastsym
   LCORR  =      T    Harris-Foulkes like correction to forces

   POTIM  = 0.5000    time-step for ionic-motion
   TEIN   =    0.0    initial temperature
   TEBEG  =    0.0;   TEEND  =   0.0 temperature during run
   SMASS  =  -3.00    Nose mass-parameter (am)
   estimated Nose-frequenzy (Omega)   =  0.10E-29 period in steps = 0.13E+47 mass=  -0.561E-27a.u.
   SCALEE = 1.0000    scale energy and forces
   NPACO  =    256;   APACO  = 10.0  distance and # of slots for P.C.
   PSTRESS=    0.0 pullay stress

  Mass of Ions in am
   POMASS =  47.88 26.98
  Ionic Valenz
   ZVAL   =  12.00  3.00
  Atomic Wigner-Seitz radii
   RWIGS  =  -1.00 -1.00
  virtual crystal weights 
   VCA    =   1.00  1.00
   NELECT =      30.0000    total number of electrons
   NUPDOWN=      -1.0000    fix difference up-down

 DOS related values:
   EMIN   =  10.00;   EMAX   =-10.00  energy-range for DOS
   EFERMI =   0.00;   METHOD = LEGACY      
   ISMEAR =     1;   SIGMA  =   0.10  broadening in eV -4-tet -1-fermi 0-gaus
   EFERMI_NEDOS =   21; number of points for ismear=-14 and -15

 Electronic relaxation 2 (details)
   IALGO  =     38    algorithm
   LDIAG  =      T    sub-space diagonalisation (order eigenvalues)
   LSUBROT=      F    optimize rotation matrix (better conditioning)
   TURBO    =      0    0=normal 1=particle mesh
   IRESTART =      0    0=no restart 2=restart with 2 vectors
   NREBOOT  =      0    no. of reboots
   NMIN     =      0    reboot dimension
   EREF     =   0.00    reference energy to select bands
   IMIX   =      4    mixing-type and parameters
     AMIX     =   0.40;   BMIX     =  1.00
     AMIX_MAG =   1.60;   BMIX_MAG =  1.00
     AMIN     =   0.10
     WC   =   100.;   INIMIX=   1;  MIXPRE=   1;  MAXMIX= -45

 Intra band minimization:
   WEIMIN = 0.0000     energy-eigenvalue tresh-hold
   EBREAK =  0.39E-07  absolut break condition
   DEPER  =   0.30     relativ break condition  

   TIME   =   0.40     timestep for ELM

  volume/ion in A,a.u.               =      60.57       408.76
  Fermi-wavevector in a.u.,A,eV,Ry     =   0.815965  1.541950  9.058738  0.665798
  Thomas-Fermi vector in A             =   1.926148
 
 Write flags
   LWAVE        =      T    write WAVECAR
   LDOWNSAMPLE  =      F    k-point downsampling of WAVECAR
   LCHARG       =      T    write CHGCAR
   LVTOT        =      F    write LOCPOT, total local potential
   LVHAR        =      T    write LOCPOT, Hartree potential only
   WRT_POTENTIAL=  hartree ionic  ! write potential to hdf5 file
   LELF         =      F    write electronic localiz. function (ELF)
   LORBIT       =      0    0 simple, 1 ext, 2 COOP (PROOUT), +10 PAW based schemes


 Python interface
   PLUGINS active      =      F    recompile with -DPLUGINS to activate
 
 Dipole corrections
   LMONO      =      F    monopole corrections only (constant potential shift)
   LDIPOL     =      F    correct potential (dipole corrections)
   IDIPOL     =      0    1-x, 2-y, 3-z, 4-all directions 
   EPSILON    =  1.0000000 bulk dielectric constant
   LVACPOTAV  =      F  vacuum potentials using an averaging scheme for the charge density
   VACPOTFLAT =  0.1000000 required flatness to determine vacuum potential
 
Coulomb truncation method
  LTRUNCATE          =      F  Coulomb kernel truncation to be used
  IDIMENSIONALITY    =      3  Dimensionality of cutoff (0 molecules / 2 surfaces)
  ISURFACE           =     -1  Direction of surface normal
  LCOARSEN           =      F  Coarsen the charge grid before padding, preferred

 
 Exchange correlation treatment:
   GGA     = PE    functional components
   XC_C    = 1    coefficients multiplying the functional components
   LIBXC   =     F    Libxc                    
   VOSKOWN =     0    Vosko Wilk Nusair interpolation
   LHFCALC =     F    Hartree Fock is set to
   LHFONE  =     F    Hartree Fock one center treatment
   AEXX    =    0.0000 exact exchange contribution

 Parameters of functionals:
   PE:
     No parameter
 
 Van der Waals corrections
   IVDW    =     0    specifies the selected vdW correction

 Linear response parameters
   LEPSILON=     F    determine dielectric tensor
   LRPA    =     F    only Hartree local field effects (RPA)
   LNABLA  =     F    use nabla operator in PAW spheres
   LVEL    =     F    velocity operator in full k-point grid
   CSHIFT  =0.1000    complex shift for real part using Kramers Kronig
   OMEGAMAX=  -1.0    maximum frequency
   DEG_THRESHOLD= 0.2000000E-02 threshold for treating states as degnerate
   RTIME   =   -0.100 relaxation time in fs
  (WPLASMAI=    0.000 imaginary part of plasma frequency in eV, 0.658/RTIME)
   DFIELD  = 0.0000000 0.0000000 0.0000000 field for delta impulse in time
 
  Optional k-point grid parameters
   LKPOINTS_OPT  =     F    use optional k-point grid
   KPOINTS_OPT_MODE=     1    mode for optional k-point grid
 
 Orbital magnetization related:
   ORBITALMAG=     F  switch on orbital magnetization
   LCHIMAG   =     F  perturbation theory with respect to B field
   DQ        =  0.001000  dq finite difference perturbation B field
   LLRAUG    =     F  two centre corrections for induced B field
   LBONE     =     F  B-component reconstruction in AE one-centre
   LVGVCALC  =     T  calculate vGv susceptibility
   LVGVAPPL  =     F  apply vGv susceptibility instead of pGv for G=0

 Random number generation:
   RANDOM_GENERATOR = DEFAULT
   PCG_SEED         = not used


--------------------------------------------------------------------------------------------------------


 Static calculation
 charge density and potential will be updated during run
 non-spin polarized calculation
 Variant of blocked Davidson
 Davidson routine will perform the subspace rotation
 perform sub-space diagonalisation
    after iterative eigenvector-optimisation
 modified Broyden-mixing scheme, WC =      100.0
 initial mixing is a Kerker type mixing with AMIX =  0.4000 and BMIX =      1.0000
 Hartree-type preconditioning will be used
 using additional bands           49
 reciprocal scheme for non local part
 use partial core corrections
 calculate Harris-corrections to forces 
   (improved forces if not selfconsistent)
 use gradient corrections 
 use of overlap-Matrix (Vanderbilt PP)
 Methfessel and Paxton  Order N= 1 SIGMA  =   0.10


--------------------------------------------------------------------------------------------------------


  energy-cutoff  :      520.00
  volume of cell :      242.29
      direct lattice vectors                 reciprocal lattice vectors
     4.953899860  0.000000000  0.000000000     0.201861166  0.000000000  0.000000000
     0.000000000  2.823800087  0.000000000     0.000000000  0.354132718  0.000000000
     0.000000000  0.000000000 17.320100784     0.000000000  0.000000000  0.057736385

  length of vectors
     4.953899860  2.823800087 17.320100784     0.201861166  0.354132718  0.057736385


 
 k-points in units of 2pi/SCALE and weight: K-Spacing Value to Generate K-Mesh: 0.04
   0.00000000  0.00000000  0.00000000       0.022
   0.04037223  0.00000000  0.00000000       0.044
   0.08074447  0.00000000  0.00000000       0.044
   0.00000000  0.03934808  0.00000000       0.044
   0.04037223  0.03934808  0.00000000       0.089
   0.08074447  0.03934808  0.00000000       0.089
   0.00000000  0.07869616  0.00000000       0.044
   0.04037223  0.07869616  0.00000000       0.089
   0.08074447  0.07869616  0.00000000       0.089
   0.00000000  0.11804424  0.00000000       0.044
   0.04037223  0.11804424  0.00000000       0.089
   0.08074447  0.11804424  0.00000000       0.089
   0.00000000  0.15739232  0.00000000       0.044
   0.04037223  0.15739232  0.00000000       0.089
   0.08074447  0.15739232  0.00000000       0.089
 
 k-points in reciprocal lattice and weights: K-Spacing Value to Generate K-Mesh: 0.04
   0.00000000  0.00000000  0.00000000       0.022
   0.20000000  0.00000000  0.00000000       0.044
   0.40000000  0.00000000  0.00000000       0.044
   0.00000000  0.11111111  0.00000000       0.044
   0.20000000  0.11111111  0.00000000       0.089
   0.40000000  0.11111111  0.00000000       0.089
   0.00000000  0.22222222  0.00000000       0.044
   0.20000000  0.22222222  0.00000000       0.089
   0.40000000  0.22222222  0.00000000       0.089
   0.00000000  0.33333333  0.00000000       0.044
   0.20000000  0.33333333  0.00000000       0.089
   0.40000000  0.33333333  0.00000000       0.089
   0.00000000  0.44444444  0.00000000       0.044
   0.20000000  0.44444444  0.00000000       0.089
   0.40000000  0.44444444  0.00000000       0.089
 
 position of ions in fractional coordinates (direct lattice) 
   0.67508000  0.00000000  0.40415001
   0.00000000  0.00000000  0.53811002
   0.17508000  0.50000000  0.40415001
   0.50000000  0.50000000  0.53811002
 
 position of ions in cartesian coordinates  (Angst):
   3.34427872  0.00000000  6.99991889
   0.00000000  0.00000000  9.32011974
   0.86732879  1.41190004  6.99991889
   2.47694993  1.41190004  9.32011974
 


--------------------------------------------------------------------------------------------------------


 k-point     1 :   0.0000 0.0000 0.0000  plane waves:    6525
 k-point     2 :   0.2000 0.0000 0.0000  plane waves:    6521
 k-point     3 :   0.4000 0.0000 0.0000  plane waves:    6544
 k-point     4 :   0.0000 0.1111 0.0000  plane waves:    6531
 k-point     5 :   0.2000 0.1111 0.0000  plane waves:    6521
 k-point     6 :   0.4000 0.1111 0.0000  plane waves:    6529
 k-point     7 :   0.0000 0.2222 0.0000  plane waves:    6523
 k-point     8 :   0.2000 0.2222 0.0000  plane waves:    6522
 k-point     9 :   0.4000 0.2222 0.0000  plane waves:    6511
 k-point    10 :   0.0000 0.3333 0.0000  plane waves:    6512
 k-point    11 :   0.2000 0.3333 0.0000  plane waves:    6521
 k-point    12 :   0.4000 0.3333 0.0000  plane waves:    6533
 k-point    13 :   0.0000 0.4444 0.0000  plane waves:    6502
 k-point    14 :   0.2000 0.4444 0.0000  plane waves:    6509
 k-point    15 :   0.4000 0.4444 0.0000  plane waves:    6543

 maximum and minimum number of plane-waves per node :      6544     6502

 maximum number of plane-waves:      6544
 maximum index in each direction: 
   IXMAX=    9   IYMAX=    5   IZMAX=   32
   IXMIN=   -9   IYMIN=   -5   IZMIN=  -32


 serial   3D FFT for wavefunctions
 parallel 3D FFT for charge:
    minimum data exchange during FFTs selected (reduces bandwidth)


 total amount of memory used by VASP MPI-rank0    63077. kBytes
=======================================================================

   base                                    :      30000. kBytes
   nonl-proj                               :      28899. kBytes
   fftplans                                :        402. kBytes
   grid                                    :       2117. kBytes
   one-center                              :         62. kBytes
   wavefun                                 :       1597. kBytes
 
     INWAV:  cpu time      0.0000: real time      0.0000
 Broyden mixing: mesh for mixing (old mesh)
   NGX = 19   NGY = 11   NGZ = 65
  (NGX  = 56   NGY  = 32   NGZ  =196)
  gives a total of  13585 points

 initial charge density was supplied:
 charge density of overlapping atoms calculated
 number of electron      30.0000000 magnetization 
 keeping initial charge density in first step


--------------------------------------------------------------------------------------------------------


 Maximum index for augmentation-charges          436 (set IRDMAX)


--------------------------------------------------------------------------------------------------------


 First call to EWALD:  gamma=   0.284
 Maximum number of real-space cells   3x   5x   1
 Maximum number of reciprocal cells   2x   2x   7

    FEWALD:  cpu time      0.0009: real time      0.0009


--------------------------------------- Ionic step        1  -------------------------------------------




--------------------------------------- Iteration      1(   1)  ---------------------------------------


    POTLOK:  cpu time      0.0082: real time      0.0082
    SETDIJ:  cpu time      0.0016: real time      0.0016
     EDDAV:  cpu time      0.7151: real time      0.7153
       DOS:  cpu time      0.0004: real time      0.0004
    --------------------------------------------
      LOOP:  cpu time      0.7253: real time      0.7255

 eigenvalue-minimisations  :  1920
 total energy-change (2. order) : 0.5883008E+02  (-0.1697064E+04)
 number of electron      30.0000000 magnetization 
 augmentation part       30.0000000 magnetization 

 Free energy of the ion-electron system (eV)
  ---------------------------------------------------
  alpha Z        PSCENC =        20.23987127
  Ewald energy   TEWEN  =      2769.02848834
  -Hartree energ DENC   =     -5583.44601112
  -exchange      EXHF   =         0.00000000
  -V(xc)+E(xc)   XCENC  =        69.64212264
  PAW double counting   =      2661.53069573    -2558.45184598
  entropy T*S    EENTRO =        -0.00497280
  eigenvalues    EBANDS =      -602.95515914
  atomic energy  EATOM  =      3283.24688878
  Solvation  Ediel_sol  =         0.00000000
  ---------------------------------------------------
  free energy    TOTEN  =        58.83007772 eV

  energy without entropy =       58.83505052  energy(sigma->0) =       58.83173532


--------------------------------------------------------------------------------------------------------




--------------------------------------- Iteration      1(   2)  ---------------------------------------


     EDDAV:  cpu time      1.4058: real time      1.4058
       DOS:  cpu time      0.0003: real time      0.0003
    --------------------------------------------
      LOOP:  cpu time      1.4061: real time      1.4061

 eigenvalue-minimisations  :  2880
 total energy-change (2. order) :-0.8325400E+02  (-0.8319189E+02)
 number of electron      30.0000000 magnetization 
 augmentation part       30.0000000 magnetization 

 Free energy of the ion-electron system (eV)
  ---------------------------------------------------
  alpha Z        PSCENC =        20.23987127
  Ewald energy   TEWEN  =      2769.02848834
  -Hartree energ DENC   =     -5583.44601112
  -exchange      EXHF   =         0.00000000
  -V(xc)+E(xc)   XCENC  =        69.64212264
  PAW double counting   =      2661.53069573    -2558.45184598
  entropy T*S    EENTRO =        -0.00373232
  eigenvalues    EBANDS =      -686.21040003
  atomic energy  EATOM  =      3283.24688878
  Solvation  Ediel_sol  =         0.00000000
  ---------------------------------------------------
  free energy    TOTEN  =       -24.42392268 eV

  energy without entropy =      -24.42019036  energy(sigma->0) =      -24.42267858


--------------------------------------------------------------------------------------------------------




--------------------------------------- Iteration      1(   3)  ---------------------------------------


     EDDAV:  cpu time      0.7195: real time      0.7195
       DOS:  cpu time      0.0003: real time      0.0003
    --------------------------------------------
      LOOP:  cpu time      0.7199: real time      0.7199

 eigenvalue-minimisations  :  1920
 total energy-change (2. order) :-0.1546563E+01  (-0.1546314E+01)
 number of electron      30.0000000 magnetization 
 augmentation part       30.0000000 magnetization 

 Free energy of the ion-electron system (eV)
  ---------------------------------------------------
  alpha Z        PSCENC =        20.23987127
  Ewald energy   TEWEN  =      2769.02848834
  -Hartree energ DENC   =     -5583.44601112
  -exchange      EXHF   =         0.00000000
  -V(xc)+E(xc)   XCENC  =        69.64212264
  PAW double counting   =      2661.53069573    -2558.45184598
  entropy T*S    EENTRO =        -0.00416272
  eigenvalues    EBANDS =      -687.75653310
  atomic energy  EATOM  =      3283.24688878
  Solvation  Ediel_sol  =         0.00000000
  ---------------------------------------------------
  free energy    TOTEN  =       -25.97048614 eV

  energy without entropy =      -25.96632343  energy(sigma->0) =      -25.96909857


--------------------------------------------------------------------------------------------------------




--------------------------------------- Iteration      1(   4)  ---------------------------------------


     EDDAV:  cpu time      2.3656: real time      2.3657
       DOS:  cpu time      0.0003: real time      0.0003
    --------------------------------------------
      LOOP:  cpu time      2.3659: real time      2.3660

 eigenvalue-minimisations  :  3712
 total energy-change (2. order) :-0.6077438E-01  (-0.6077306E-01)
 number of electron      30.0000000 magnetization 
 augmentation part       30.0000000 magnetization 

 Free energy of the ion-electron system (eV)
  ---------------------------------------------------
  alpha Z        PSCENC =        20.23987127
  Ewald energy   TEWEN  =      2769.02848834
  -Hartree energ DENC   =     -5583.44601112
  -exchange      EXHF   =         0.00000000
  -V(xc)+E(xc)   XCENC  =        69.64212264
  PAW double counting   =      2661.53069573    -2558.45184598
  entropy T*S    EENTRO =        -0.00420018
  eigenvalues    EBANDS =      -687.81727002
  atomic energy  EATOM  =      3283.24688878
  Solvation  Ediel_sol  =         0.00000000
  ---------------------------------------------------
  free energy    TOTEN  =       -26.03126053 eV

  energy without entropy =      -26.02706035  energy(sigma->0) =      -26.02986047


--------------------------------------------------------------------------------------------------------




--------------------------------------- Iteration      1(   5)  ---------------------------------------


     EDDAV:  cpu time      0.7144: real time      0.7144
       DOS:  cpu time      0.0003: real time      0.0003
    CHARGE:  cpu time      0.0133: real time      0.0133
    MIXING:  cpu time      0.0003: real time      0.0003
    --------------------------------------------
      LOOP:  cpu time      0.7282: real time      0.7282

 eigenvalue-minimisations  :  1920
 total energy-change (2. order) :-0.1669239E-04  (-0.1669221E-04)
 number of electron      29.9999963 magnetization 
 augmentation part        6.6677302 magnetization 

 Broyden mixing:
  rms(total) = 0.12437E+01    rms(broyden)= 0.12437E+01
  rms(prec ) = 0.14360E+01
  weight for this iteration     100.00

 Free energy of the ion-electron system (eV)
  ---------------------------------------------------
  alpha Z        PSCENC =        20.23987127
  Ewald energy   TEWEN  =      2769.02848834
  -Hartree energ DENC   =     -5583.44601112
  -exchange      EXHF   =         0.00000000
  -V(xc)+E(xc)   XCENC  =        69.64212264
  PAW double counting   =      2661.53069573    -2558.45184598
  entropy T*S    EENTRO =        -0.00420017
  eigenvalues    EBANDS =      -687.81728672
  atomic energy  EATOM  =      3283.24688878
  Solvation  Ediel_sol  =         0.00000000
  ---------------------------------------------------
  free energy    TOTEN  =       -26.03127722 eV

  energy without entropy =      -26.02707705  energy(sigma->0) =      -26.02987716


--------------------------------------------------------------------------------------------------------




--------------------------------------- Iteration      1(   6)  ---------------------------------------


    POTLOK:  cpu time      0.0093: real time      0.0093
    SETDIJ:  cpu time      0.0013: real time      0.0013
     EDDAV:  cpu time      1.6465: real time      1.6465
       DOS:  cpu time      0.0006: real time      0.0006
    CHARGE:  cpu time      0.0152: real time      0.0152
    MIXING:  cpu time      0.0007: real time      0.0007
    --------------------------------------------
      LOOP:  cpu time      1.6735: real time      1.6735

 eigenvalue-minimisations  :  3072
 total energy-change (2. order) : 0.3045241E+01  (-0.4986346E+01)
 number of electron      29.9999956 magnetization 
 augmentation part        7.9872061 magnetization 

 Broyden mixing:
  rms(total) = 0.73793E+00    rms(broyden)= 0.73791E+00
  rms(prec ) = 0.89747E+00
  weight for this iteration     100.00

 eigenvalues of (default mixing * dielectric matrix)
  average eigenvalue GAMMA=   0.6702
  0.6702

 Free energy of the ion-electron system (eV)
  ---------------------------------------------------
  alpha Z        PSCENC =        20.23987127
  Ewald energy   TEWEN  =      2769.02848834
  -Hartree energ DENC   =     -5522.14004683
  -exchange      EXHF   =         0.00000000
  -V(xc)+E(xc)   XCENC  =        66.79557987
  PAW double counting   =      2796.66867397    -2694.02217948
  entropy T*S    EENTRO =         0.00049909
  eigenvalues    EBANDS =      -742.80381088
  atomic energy  EATOM  =      3283.24688878
  Solvation  Ediel_sol  =         0.00000000
  ---------------------------------------------------
  free energy    TOTEN  =       -22.98603587 eV

  energy without entropy =      -22.98653496  energy(sigma->0) =      -22.98620224


--------------------------------------------------------------------------------------------------------




--------------------------------------- Iteration      1(   7)  ---------------------------------------


    POTLOK:  cpu time      0.0091: real time      0.0091
    SETDIJ:  cpu time      0.0012: real time      0.0011
     EDDAV:  cpu time      1.8529: real time      1.8530
       DOS:  cpu time      0.0006: real time      0.0006
    CHARGE:  cpu time      0.0153: real time      0.0153
    MIXING:  cpu time      0.0005: real time      0.0005
    --------------------------------------------
      LOOP:  cpu time      1.8796: real time      1.8797

 eigenvalue-minimisations  :  3264
 total energy-change (2. order) : 0.1075675E+01  (-0.1280006E+01)
 number of electron      29.9999960 magnetization 
 augmentation part        7.2186342 magnetization 

 Broyden mixing:
  rms(total) = 0.30405E+00    rms(broyden)= 0.30404E+00
  rms(prec ) = 0.34715E+00
  weight for this iteration     100.00

 eigenvalues of (default mixing * dielectric matrix)
  average eigenvalue GAMMA=   1.1651
  1.7711  0.5590

 Free energy of the ion-electron system (eV)
  ---------------------------------------------------
  alpha Z        PSCENC =        20.23987127
  Ewald energy   TEWEN  =      2769.02848834
  -Hartree energ DENC   =     -5565.40399254
  -exchange      EXHF   =         0.00000000
  -V(xc)+E(xc)   XCENC  =        68.05223436
  PAW double counting   =      2922.87671192    -2817.64760924
  entropy T*S    EENTRO =         0.00453922
  eigenvalues    EBANDS =      -702.30749319
  atomic energy  EATOM  =      3283.24688878
  Solvation  Ediel_sol  =         0.00000000
  ---------------------------------------------------
  free energy    TOTEN  =       -21.91036108 eV

  energy without entropy =      -21.91490030  energy(sigma->0) =      -21.91187415


--------------------------------------------------------------------------------------------------------




--------------------------------------- Iteration      1(   8)  ---------------------------------------


    POTLOK:  cpu time      0.0093: real time      0.0093
    SETDIJ:  cpu time      0.0012: real time      0.0012
     EDDAV:  cpu time      2.0134: real time      2.0134
       DOS:  cpu time      0.0006: real time      0.0006
    CHARGE:  cpu time      0.0153: real time      0.0153
    MIXING:  cpu time      0.0006: real time      0.0006
    --------------------------------------------
      LOOP:  cpu time      2.0404: real time      2.0404

 eigenvalue-minimisations  :  3392
 total energy-change (2. order) : 0.1900118E+00  (-0.1577103E+00)
 number of electron      29.9999960 magnetization 
 augmentation part        7.4176174 magnetization 

 Broyden mixing:
  rms(total) = 0.14295E+00    rms(broyden)= 0.14294E+00
  rms(prec ) = 0.16595E+00
  weight for this iteration     100.00

 eigenvalues of (default mixing * dielectric matrix)
  average eigenvalue GAMMA=   1.2201
  0.5211  1.2284  1.9108

 Free energy of the ion-electron system (eV)
  ---------------------------------------------------
  alpha Z        PSCENC =        20.23987127
  Ewald energy   TEWEN  =      2769.02848834
  -Hartree energ DENC   =     -5566.77526572
  -exchange      EXHF   =         0.00000000
  -V(xc)+E(xc)   XCENC  =        67.76535645
  PAW double counting   =      3068.27691974    -2960.53646189
  entropy T*S    EENTRO =        -0.00127267
  eigenvalues    EBANDS =      -702.96487364
  atomic energy  EATOM  =      3283.24688878
  Solvation  Ediel_sol  =         0.00000000
  ---------------------------------------------------
  free energy    TOTEN  =       -21.72034933 eV

  energy without entropy =      -21.71907666  energy(sigma->0) =      -21.71992511


--------------------------------------------------------------------------------------------------------




--------------------------------------- Iteration      1(   9)  ---------------------------------------


    POTLOK:  cpu time      0.0088: real time      0.0088
    SETDIJ:  cpu time      0.0012: real time      0.0012
     EDDAV:  cpu time      2.1421: real time      2.1422
       DOS:  cpu time      0.0005: real time      0.0005
    CHARGE:  cpu time      0.0153: real time      0.0153
    MIXING:  cpu time      0.0005: real time      0.0005
    --------------------------------------------
      LOOP:  cpu time      2.1685: real time      2.1685

 eigenvalue-minimisations  :  3520
 total energy-change (2. order) : 0.2552793E-01  (-0.1438220E-01)
 number of electron      29.9999961 magnetization 
 augmentation part        7.3284230 magnetization 

 Broyden mixing:
  rms(total) = 0.44863E-01    rms(broyden)= 0.44856E-01
  rms(prec ) = 0.57966E-01
  weight for this iteration     100.00

 eigenvalues of (default mixing * dielectric matrix)
  average eigenvalue GAMMA=   1.4561
  2.4720  0.5237  1.7357  1.0932

 Free energy of the ion-electron system (eV)
  ---------------------------------------------------
  alpha Z        PSCENC =        20.23987127
  Ewald energy   TEWEN  =      2769.02848834
  -Hartree energ DENC   =     -5576.60772448
  -exchange      EXHF   =         0.00000000
  -V(xc)+E(xc)   XCENC  =        68.01287205
  PAW double counting   =      3111.46248851    -3002.02739878
  entropy T*S    EENTRO =        -0.00257005
  eigenvalues    EBANDS =      -695.04773703
  atomic energy  EATOM  =      3283.24688878
  Solvation  Ediel_sol  =         0.00000000
  ---------------------------------------------------
  free energy    TOTEN  =       -21.69482140 eV

  energy without entropy =      -21.69225135  energy(sigma->0) =      -21.69396472


--------------------------------------------------------------------------------------------------------




--------------------------------------- Iteration      1(  10)  ---------------------------------------


    POTLOK:  cpu time      0.0092: real time      0.0092
    SETDIJ:  cpu time      0.0012: real time      0.0012
     EDDAV:  cpu time      1.7759: real time      1.7762
       DOS:  cpu time      0.0003: real time      0.0003
    CHARGE:  cpu time      0.0133: real time      0.0133
    MIXING:  cpu time      0.0004: real time      0.0004
    --------------------------------------------
      LOOP:  cpu time      1.8003: real time      1.8006

 eigenvalue-minimisations  :  3200
 total energy-change (2. order) : 0.4662373E-02  (-0.1574101E-02)
 number of electron      29.9999961 magnetization 
 augmentation part        7.3305197 magnetization 

 Broyden mixing:
  rms(total) = 0.21010E-01    rms(broyden)= 0.21008E-01
  rms(prec ) = 0.32435E-01
  weight for this iteration     100.00

 eigenvalues of (default mixing * dielectric matrix)
  average eigenvalue GAMMA=   1.4246
  2.4524  0.5233  1.8811  1.1331  1.1331

 Free energy of the ion-electron system (eV)
  ---------------------------------------------------
  alpha Z        PSCENC =        20.23987127
  Ewald energy   TEWEN  =      2769.02848834
  -Hartree energ DENC   =     -5582.74559572
  -exchange      EXHF   =         0.00000000
  -V(xc)+E(xc)   XCENC  =        68.10972818
  PAW double counting   =      3126.38416397    -3015.65895296
  entropy T*S    EENTRO =        -0.00189031
  eigenvalues    EBANDS =      -690.29286059
  atomic energy  EATOM  =      3283.24688878
  Solvation  Ediel_sol  =         0.00000000
  ---------------------------------------------------
  free energy    TOTEN  =       -21.69015903 eV

  energy without entropy =      -21.68826872  energy(sigma->0) =      -21.68952892


--------------------------------------------------------------------------------------------------------




--------------------------------------- Iteration      1(  11)  ---------------------------------------


    POTLOK:  cpu time      0.0106: real time      0.0106
    SETDIJ:  cpu time      0.0013: real time      0.0013
     EDDAV:  cpu time      1.9317: real time      1.9318
       DOS:  cpu time      0.0003: real time      0.0003
    CHARGE:  cpu time      0.0134: real time      0.0134
    MIXING:  cpu time      0.0004: real time      0.0004
    --------------------------------------------
      LOOP:  cpu time      1.9577: real time      1.9578

 eigenvalue-minimisations  :  3328
 total energy-change (2. order) : 0.9402563E-03  (-0.1628614E-02)
 number of electron      29.9999961 magnetization 
 augmentation part        7.3036233 magnetization 

 Broyden mixing:
  rms(total) = 0.14091E-01    rms(broyden)= 0.14089E-01
  rms(prec ) = 0.21677E-01
  weight for this iteration     100.00

 eigenvalues of (default mixing * dielectric matrix)
  average eigenvalue GAMMA=   1.5051
  2.6221  2.6221  1.2325  1.2325  0.5225  0.7991

 Free energy of the ion-electron system (eV)
  ---------------------------------------------------
  alpha Z        PSCENC =        20.23987127
  Ewald energy   TEWEN  =      2769.02848834
  -Hartree energ DENC   =     -5586.39714170
  -exchange      EXHF   =         0.00000000
  -V(xc)+E(xc)   XCENC  =        68.16582177
  PAW double counting   =      3122.49485698    -3011.57913494
  entropy T*S    EENTRO =        -0.00257913
  eigenvalues    EBANDS =      -686.88629014
  atomic energy  EATOM  =      3283.24688878
  Solvation  Ediel_sol  =         0.00000000
  ---------------------------------------------------
  free energy    TOTEN  =       -21.68921877 eV

  energy without entropy =      -21.68663964  energy(sigma->0) =      -21.68835906


--------------------------------------------------------------------------------------------------------




--------------------------------------- Iteration      1(  12)  ---------------------------------------


    POTLOK:  cpu time      0.0066: real time      0.0066
    SETDIJ:  cpu time      0.0012: real time      0.0012
     EDDAV:  cpu time      1.5045: real time      1.5047
       DOS:  cpu time      0.0003: real time      0.0003
    CHARGE:  cpu time      0.0133: real time      0.0133
    MIXING:  cpu time      0.0004: real time      0.0004
    --------------------------------------------
      LOOP:  cpu time      1.5263: real time      1.5265

 eigenvalue-minimisations  :  2880
 total energy-change (2. order) : 0.8824938E-03  (-0.3384914E-03)
 number of electron      29.9999961 magnetization 
 augmentation part        7.3101813 magnetization 

 Broyden mixing:
  rms(total) = 0.61565E-02    rms(broyden)= 0.61565E-02
  rms(prec ) = 0.10201E-01
  weight for this iteration     100.00

 eigenvalues of (default mixing * dielectric matrix)
  average eigenvalue GAMMA=   1.6832
  3.6255  2.5910  1.8405  0.5227  1.1685  1.1685  0.8657

 Free energy of the ion-electron system (eV)
  ---------------------------------------------------
  alpha Z        PSCENC =        20.23987127
  Ewald energy   TEWEN  =      2769.02848834
  -Hartree energ DENC   =     -5589.56829369
  -exchange      EXHF   =         0.00000000
  -V(xc)+E(xc)   XCENC  =        68.18208420
  PAW double counting   =      3112.85489334    -3001.77055065
  entropy T*S    EENTRO =        -0.00233498
  eigenvalues    EBANDS =      -683.89938289
  atomic energy  EATOM  =      3283.24688878
  Solvation  Ediel_sol  =         0.00000000
  ---------------------------------------------------
  free energy    TOTEN  =       -21.68833628 eV

  energy without entropy =      -21.68600130  energy(sigma->0) =      -21.68755795


--------------------------------------------------------------------------------------------------------




--------------------------------------- Iteration      1(  13)  ---------------------------------------


    POTLOK:  cpu time      0.0064: real time      0.0064
    SETDIJ:  cpu time      0.0011: real time      0.0011
     EDDAV:  cpu time      1.7567: real time      1.7569
       DOS:  cpu time      0.0003: real time      0.0003
    CHARGE:  cpu time      0.0139: real time      0.0139
    MIXING:  cpu time      0.0008: real time      0.0008
    --------------------------------------------
      LOOP:  cpu time      1.7793: real time      1.7795

 eigenvalue-minimisations  :  3072
 total energy-change (2. order) :-0.3645426E-03  (-0.1823870E-03)
 number of electron      29.9999961 magnetization 
 augmentation part        7.3160933 magnetization 

 Broyden mixing:
  rms(total) = 0.41885E-02    rms(broyden)= 0.41884E-02
  rms(prec ) = 0.61977E-02
  weight for this iteration     100.00

 eigenvalues of (default mixing * dielectric matrix)
  average eigenvalue GAMMA=   1.8108
  4.2166  2.9881  2.0941  1.6269  0.5227  1.1490  0.9670  0.9217

 Free energy of the ion-electron system (eV)
  ---------------------------------------------------
  alpha Z        PSCENC =        20.23987127
  Ewald energy   TEWEN  =      2769.02848834
  -Hartree energ DENC   =     -5591.35407179
  -exchange      EXHF   =         0.00000000
  -V(xc)+E(xc)   XCENC  =        68.17529902
  PAW double counting   =      3111.94879708    -3000.95038411
  entropy T*S    EENTRO =        -0.00244006
  eigenvalues    EBANDS =      -682.02114935
  atomic energy  EATOM  =      3283.24688878
  Solvation  Ediel_sol  =         0.00000000
  ---------------------------------------------------
  free energy    TOTEN  =       -21.68870082 eV

  energy without entropy =      -21.68626076  energy(sigma->0) =      -21.68788747


--------------------------------------------------------------------------------------------------------




--------------------------------------- Iteration      1(  14)  ---------------------------------------


    POTLOK:  cpu time      0.0092: real time      0.0092
    SETDIJ:  cpu time      0.0012: real time      0.0012
     EDDAV:  cpu time      1.2557: real time      1.2558
       DOS:  cpu time      0.0003: real time      0.0003
    CHARGE:  cpu time      0.0135: real time      0.0135
    MIXING:  cpu time      0.0004: real time      0.0004
    --------------------------------------------
      LOOP:  cpu time      1.2802: real time      1.2803

 eigenvalue-minimisations  :  2560
 total energy-change (2. order) :-0.3417778E-03  (-0.4533256E-04)
 number of electron      29.9999961 magnetization 
 augmentation part        7.3136632 magnetization 

 Broyden mixing:
  rms(total) = 0.18967E-02    rms(broyden)= 0.18964E-02
  rms(prec ) = 0.31115E-02
  weight for this iteration     100.00

 eigenvalues of (default mixing * dielectric matrix)
  average eigenvalue GAMMA=   1.9279
  5.2186  3.2887  2.3420  1.7527  0.5227  1.2537  1.1965  0.8880  0.8880

 Free energy of the ion-electron system (eV)
  ---------------------------------------------------
  alpha Z        PSCENC =        20.23987127
  Ewald energy   TEWEN  =      2769.02848834
  -Hartree energ DENC   =     -5592.17286183
  -exchange      EXHF   =         0.00000000
  -V(xc)+E(xc)   XCENC  =        68.17794554
  PAW double counting   =      3111.96082548    -3001.05820018
  entropy T*S    EENTRO =        -0.00232363
  eigenvalues    EBANDS =      -681.10967638
  atomic energy  EATOM  =      3283.24688878
  Solvation  Ediel_sol  =         0.00000000
  ---------------------------------------------------
  free energy    TOTEN  =       -21.68904260 eV

  energy without entropy =      -21.68671897  energy(sigma->0) =      -21.68826806


--------------------------------------------------------------------------------------------------------




--------------------------------------- Iteration      1(  15)  ---------------------------------------


    POTLOK:  cpu time      0.0063: real time      0.0063
    SETDIJ:  cpu time      0.0012: real time      0.0012
     EDDAV:  cpu time      1.4752: real time      1.4752
       DOS:  cpu time      0.0003: real time      0.0003
    CHARGE:  cpu time      0.0141: real time      0.0141
    MIXING:  cpu time      0.0007: real time      0.0007
    --------------------------------------------
      LOOP:  cpu time      1.4978: real time      1.4978

 eigenvalue-minimisations  :  2816
 total energy-change (2. order) :-0.1571663E-03  (-0.9729072E-05)
 number of electron      29.9999961 magnetization 
 augmentation part        7.3130989 magnetization 

 Broyden mixing:
  rms(total) = 0.10777E-02    rms(broyden)= 0.10777E-02
  rms(prec ) = 0.18740E-02
  weight for this iteration     100.00

 eigenvalues of (default mixing * dielectric matrix)
  average eigenvalue GAMMA=   2.0236
  5.3746  3.7937  2.6383  2.0615  0.5227  1.4315  1.4315  1.1393  0.9676  0.8755

 Free energy of the ion-electron system (eV)
  ---------------------------------------------------
  alpha Z        PSCENC =        20.23987127
  Ewald energy   TEWEN  =      2769.02848834
  -Hartree energ DENC   =     -5592.58236623
  -exchange      EXHF   =         0.00000000
  -V(xc)+E(xc)   XCENC  =        68.17776687
  PAW double counting   =      3112.71780951    -3001.83330483
  entropy T*S    EENTRO =        -0.00237273
  eigenvalues    EBANDS =      -680.68198076
  atomic energy  EATOM  =      3283.24688878
  Solvation  Ediel_sol  =         0.00000000
  ---------------------------------------------------
  free energy    TOTEN  =       -21.68919976 eV

  energy without entropy =      -21.68682704  energy(sigma->0) =      -21.68840886


--------------------------------------------------------------------------------------------------------




--------------------------------------- Iteration      1(  16)  ---------------------------------------


    POTLOK:  cpu time      0.0092: real time      0.0092
    SETDIJ:  cpu time      0.0012: real time      0.0012
     EDDAV:  cpu time      1.7180: real time      1.7182
       DOS:  cpu time      0.0004: real time      0.0003
    CHARGE:  cpu time      0.0140: real time      0.0140
    MIXING:  cpu time      0.0007: real time      0.0007
    --------------------------------------------
      LOOP:  cpu time      1.7433: real time      1.7435

 eigenvalue-minimisations  :  3072
 total energy-change (2. order) :-0.2696104E-03  (-0.7205031E-05)
 number of electron      29.9999961 magnetization 
 augmentation part        7.3138972 magnetization 

 Broyden mixing:
  rms(total) = 0.68704E-03    rms(broyden)= 0.68702E-03
  rms(prec ) = 0.98114E-03
  weight for this iteration     100.00

 eigenvalues of (default mixing * dielectric matrix)
  average eigenvalue GAMMA=   2.1437
  6.1560  4.5749  2.9883  2.3661  0.5227  1.6249  1.2923  1.1925  0.8829  0.9663
  1.0138

 Free energy of the ion-electron system (eV)
  ---------------------------------------------------
  alpha Z        PSCENC =        20.23987127
  Ewald energy   TEWEN  =      2769.02848834
  -Hartree energ DENC   =     -5592.87395235
  -exchange      EXHF   =         0.00000000
  -V(xc)+E(xc)   XCENC  =        68.17772410
  PAW double counting   =      3112.88616452    -3001.96895122
  entropy T*S    EENTRO =        -0.00237782
  eigenvalues    EBANDS =      -680.42332500
  atomic energy  EATOM  =      3283.24688878
  Solvation  Ediel_sol  =         0.00000000
  ---------------------------------------------------
  free energy    TOTEN  =       -21.68946938 eV

  energy without entropy =      -21.68709156  energy(sigma->0) =      -21.68867677


--------------------------------------------------------------------------------------------------------




--------------------------------------- Iteration      1(  17)  ---------------------------------------


    POTLOK:  cpu time      0.0090: real time      0.0090
    SETDIJ:  cpu time      0.0012: real time      0.0012
     EDDAV:  cpu time      1.5494: real time      1.5495
       DOS:  cpu time      0.0003: real time      0.0003
    CHARGE:  cpu time      0.0135: real time      0.0135
    MIXING:  cpu time      0.0005: real time      0.0005
    --------------------------------------------
      LOOP:  cpu time      1.5738: real time      1.5739

 eigenvalue-minimisations  :  2880
 total energy-change (2. order) :-0.2640273E-03  (-0.3430019E-05)
 number of electron      29.9999961 magnetization 
 augmentation part        7.3133940 magnetization 

 Broyden mixing:
  rms(total) = 0.36064E-03    rms(broyden)= 0.36063E-03
  rms(prec ) = 0.45620E-03
  weight for this iteration     100.00

 eigenvalues of (default mixing * dielectric matrix)
  average eigenvalue GAMMA=   2.2939
  7.2919  5.0726  2.7968  2.7968  2.0823  0.5227  1.5623  1.3829  1.1859  0.9947
  0.9646  0.8727

 Free energy of the ion-electron system (eV)
  ---------------------------------------------------
  alpha Z        PSCENC =        20.23987127
  Ewald energy   TEWEN  =      2769.02848834
  -Hartree energ DENC   =     -5592.98998663
  -exchange      EXHF   =         0.00000000
  -V(xc)+E(xc)   XCENC  =        68.17886007
  PAW double counting   =      3112.58538204    -3001.65349833
  entropy T*S    EENTRO =        -0.00238325
  eigenvalues    EBANDS =      -680.32335570
  atomic energy  EATOM  =      3283.24688878
  Solvation  Ediel_sol  =         0.00000000
  ---------------------------------------------------
  free energy    TOTEN  =       -21.68973340 eV

  energy without entropy =      -21.68735015  energy(sigma->0) =      -21.68893898


--------------------------------------------------------------------------------------------------------




--------------------------------------- Iteration      1(  18)  ---------------------------------------


    POTLOK:  cpu time      0.0064: real time      0.0064
    SETDIJ:  cpu time      0.0011: real time      0.0011
     EDDAV:  cpu time      1.5322: real time      1.5323
       DOS:  cpu time      0.0006: real time      0.0006
    CHARGE:  cpu time      0.0152: real time      0.0152
    MIXING:  cpu time      0.0008: real time      0.0008
    --------------------------------------------
      LOOP:  cpu time      1.5563: real time      1.5564

 eigenvalue-minimisations  :  2816
 total energy-change (2. order) :-0.1378564E-03  (-0.2645509E-05)
 number of electron      29.9999961 magnetization 
 augmentation part        7.3136246 magnetization 

 Broyden mixing:
  rms(total) = 0.95174E-04    rms(broyden)= 0.95146E-04
  rms(prec ) = 0.12840E-03
  weight for this iteration     100.00

 eigenvalues of (default mixing * dielectric matrix)
  average eigenvalue GAMMA=   2.3828
  8.0505  5.5623  3.1151  2.8767  2.3098  0.5227  1.6567  1.4243  1.4243  1.1838
  0.8724  0.9731  1.0044

 Free energy of the ion-electron system (eV)
  ---------------------------------------------------
  alpha Z        PSCENC =        20.23987127
  Ewald energy   TEWEN  =      2769.02848834
  -Hartree energ DENC   =     -5592.97037293
  -exchange      EXHF   =         0.00000000
  -V(xc)+E(xc)   XCENC  =        68.17815632
  PAW double counting   =      3112.45892571    -3001.53422342
  entropy T*S    EENTRO =        -0.00237153
  eigenvalues    EBANDS =      -680.33523379
  atomic energy  EATOM  =      3283.24688878
  Solvation  Ediel_sol  =         0.00000000
  ---------------------------------------------------
  free energy    TOTEN  =       -21.68987126 eV

  energy without entropy =      -21.68749972  energy(sigma->0) =      -21.68908075


--------------------------------------------------------------------------------------------------------




--------------------------------------- Iteration      1(  19)  ---------------------------------------


    POTLOK:  cpu time      0.0090: real time      0.0090
    SETDIJ:  cpu time      0.0012: real time      0.0012
     EDDAV:  cpu time      1.4659: real time      1.4660
       DOS:  cpu time      0.0003: real time      0.0003
    CHARGE:  cpu time      0.0134: real time      0.0134
    MIXING:  cpu time      0.0005: real time      0.0005
    --------------------------------------------
      LOOP:  cpu time      1.4903: real time      1.4905

 eigenvalue-minimisations  :  2752
 total energy-change (2. order) :-0.2861819E-04  (-0.3125366E-06)
 number of electron      29.9999961 magnetization 
 augmentation part        7.3136173 magnetization 

 Broyden mixing:
  rms(total) = 0.45933E-04    rms(broyden)= 0.45932E-04
  rms(prec ) = 0.55291E-04
  weight for this iteration     100.00

 eigenvalues of (default mixing * dielectric matrix)
  average eigenvalue GAMMA=   2.4266
  8.6392  5.7216  3.4441  3.0510  2.4841  2.0622  0.5227  1.5478  1.4013  0.8718
  0.9829  0.9829  1.1570  1.1042

 Free energy of the ion-electron system (eV)
  ---------------------------------------------------
  alpha Z        PSCENC =        20.23987127
  Ewald energy   TEWEN  =      2769.02848834
  -Hartree energ DENC   =     -5592.98883969
  -exchange      EXHF   =         0.00000000
  -V(xc)+E(xc)   XCENC  =        68.17818204
  PAW double counting   =      3112.47114721    -3001.54782995
  entropy T*S    EENTRO =        -0.00237355
  eigenvalues    EBANDS =      -680.31543433
  atomic energy  EATOM  =      3283.24688878
  Solvation  Ediel_sol  =         0.00000000
  ---------------------------------------------------
  free energy    TOTEN  =       -21.68989988 eV

  energy without entropy =      -21.68752632  energy(sigma->0) =      -21.68910869


--------------------------------------------------------------------------------------------------------




--------------------------------------- Iteration      1(  20)  ---------------------------------------


    POTLOK:  cpu time      0.0067: real time      0.0067
    SETDIJ:  cpu time      0.0011: real time      0.0011
     EDDAV:  cpu time      1.4036: real time      1.4036
       DOS:  cpu time      0.0003: real time      0.0003
    --------------------------------------------
      LOOP:  cpu time      1.4117: real time      1.4118

 eigenvalue-minimisations  :  2688
 total energy-change (2. order) :-0.6996623E-05  (-0.6747715E-07)
 number of electron      29.9999961 magnetization 
 augmentation part        7.3136173 magnetization 

 Free energy of the ion-electron system (eV)
  ---------------------------------------------------
  alpha Z        PSCENC =        20.23987127
  Ewald energy   TEWEN  =      2769.02848834
  -Hartree energ DENC   =     -5592.97938737
  -exchange      EXHF   =         0.00000000
  -V(xc)+E(xc)   XCENC  =        68.17806568
  PAW double counting   =      3112.50319917    -3001.58189090
  entropy T*S    EENTRO =        -0.00237379
  eigenvalues    EBANDS =      -680.32276805
  atomic energy  EATOM  =      3283.24688878
  Solvation  Ediel_sol  =         0.00000000
  ---------------------------------------------------
  free energy    TOTEN  =       -21.68990687 eV

  energy without entropy =      -21.68753308  energy(sigma->0) =      -21.68911561


--------------------------------------------------------------------------------------------------------




 average (electrostatic) potential at core
  the test charge radii are     1.0397  1.0406
  (the norm of the test charge is              1.0000)
       1 -81.6769       2 -81.6769       3 -80.4812       4 -80.4813
 
 
 
 E-fermi :  -0.7291     XC(G=0):  -4.0808     alpha+bet : -4.3450

 val. band max:       -0.7443906877   @ k =   0.0000   0.1111   0.0000
 cond. band min:      -0.7288205680   @ k =   0.4000   0.4444   0.0000
 fundamental gap:      0.0155701197
 Fermi energy:        -0.7291251768

 k-point     1 :       0.0000    0.0000    0.0000
  band No.  band energies     occupation 
      1     -57.6629      2.00000
      2     -57.6340      2.00000
      3     -34.1055      2.00000
      4     -34.0501      2.00000
      5     -33.9834      2.00000
      6     -33.8306      2.00000
      7     -33.5052      2.00000
      8     -33.4843      2.00000
      9      -8.6567      2.00000
     10      -6.3211      2.00000
     11      -2.8252      2.00000
     12      -2.7251      2.00000
     13      -2.0418      2.00000
     14      -1.4180      2.00000
     15      -0.9463      2.00882
     16      -0.7026      0.56883
     17      -0.5509     -0.03025
     18       0.3511     -0.00000
     19       0.5657     -0.00000
     20       1.1900     -0.00000
     21       1.3601      0.00000
     22       1.4226      0.00000
     23       1.9347      0.00000
     24       2.8673      0.00000
     25       3.0257      0.00000
     26       3.5506      0.00000
     27       3.5684      0.00000
     28       4.4860      0.00000
     29       4.7374      0.00000
     30       5.5488      0.00000
     31       6.5172      0.00000
     32       7.4527      0.00000
     33       7.5771      0.00000
     34       8.3926      0.00000
     35       8.4106      0.00000
     36       8.7960      0.00000
     37       9.2195      0.00000
     38       9.2689      0.00000
     39       9.9646      0.00000
     40      10.3746      0.00000
     41      10.5435      0.00000
     42      10.6316      0.00000
     43      10.8819      0.00000
     44      11.6187      0.00000
     45      11.7240      0.00000
     46      12.2674      0.00000
     47      12.3684      0.00000
     48      13.4103      0.00000
     49      13.4160      0.00000
     50      14.2263      0.00000
     51      14.5283      0.00000
     52      15.4289      0.00000
     53      15.4316      0.00000
     54      16.0129      0.00000
     55      16.3321      0.00000
     56      16.4167      0.00000
     57      16.4758      0.00000
     58      16.5916      0.00000
     59      16.8674      0.00000
     60      17.1947      0.00000
     61      17.4636      0.00000
     62      18.0423      0.00000
     63      18.1502      0.00000
     64      18.1743      0.00000

 k-point     2 :       0.2000    0.0000    0.0000
  band No.  band energies     occupation 
      1     -57.6628      2.00000
      2     -57.6341      2.00000
      3     -34.1051      2.00000
      4     -34.0527      2.00000
      5     -33.9821      2.00000
      6     -33.8308      2.00000
      7     -33.5051      2.00000
      8     -33.4844      2.00000
      9      -8.4310      2.00000
     10      -6.2104      2.00000
     11      -3.9950      2.00000
     12      -2.3973      2.00000
     13      -1.7626      2.00000
     14      -1.6940      2.00000
     15      -1.2686      2.00000
     16      -0.5599     -0.03781
     17      -0.4450     -0.00044
     18       0.3066     -0.00000
     19       0.8259     -0.00000
     20       1.1801     -0.00000
     21       1.2748      0.00000
     22       1.4863      0.00000
     23       1.9370      0.00000
     24       3.1501      0.00000
     25       3.2955      0.00000
     26       3.5187      0.00000
     27       3.7692      0.00000
     28       4.7001      0.00000
     29       4.9093      0.00000
     30       5.8243      0.00000
     31       6.2414      0.00000
     32       7.0193      0.00000
     33       7.3627      0.00000
     34       7.8801      0.00000
     35       8.2752      0.00000
     36       8.6259      0.00000
     37       8.7365      0.00000
     38       9.1042      0.00000
     39       9.7388      0.00000
     40      10.7575      0.00000
     41      10.9052      0.00000
     42      11.0567      0.00000
     43      11.6065      0.00000
     44      11.9985      0.00000
     45      12.2472      0.00000
     46      12.2923      0.00000
     47      12.3800      0.00000
     48      13.4960      0.00000
     49      13.6116      0.00000
     50      14.3081      0.00000
     51      14.4238      0.00000
     52      15.1234      0.00000
     53      15.4352      0.00000
     54      15.5486      0.00000
     55      15.9905      0.00000
     56      16.2948      0.00000
     57      16.5731      0.00000
     58      16.8022      0.00000
     59      16.8138      0.00000
     60      16.8646      0.00000
     61      17.3238      0.00000
     62      17.6403      0.00000
     63      17.8926      0.00000
     64      17.9246      0.00000

 k-point     3 :       0.4000    0.0000    0.0000
  band No.  band energies     occupation 
      1     -57.6626      2.00000
      2     -57.6342      2.00000
      3     -34.1045      2.00000
      4     -34.0566      2.00000
      5     -33.9802      2.00000
      6     -33.8312      2.00000
      7     -33.5050      2.00000
      8     -33.4845      2.00000
      9      -7.8874      2.00000
     10      -6.3478      2.00000
     11      -4.4254      2.00000
     12      -3.4213      2.00000
     13      -2.0329      2.00000
     14      -1.3346      2.00000
     15      -1.2655      2.00000
     16      -0.6129     -0.06962
     17      -0.0484     -0.00000
     18       0.3872     -0.00000
     19       1.0399     -0.00000
     20       1.1636     -0.00000
     21       1.1976     -0.00000
     22       1.5297      0.00000
     23       1.9411      0.00000
     24       2.6153      0.00000
     25       3.4920      0.00000
     26       4.0434      0.00000
     27       4.5554      0.00000
     28       5.2150      0.00000
     29       5.2866      0.00000
     30       5.5647      0.00000
     31       5.8783      0.00000
     32       6.6201      0.00000
     33       6.9191      0.00000
     34       7.5359      0.00000
     35       8.1850      0.00000
     36       8.8019      0.00000
     37       8.9951      0.00000
     38       9.2381      0.00000
     39       9.8467      0.00000
     40      10.3159      0.00000
     41      10.5559      0.00000
     42      10.9022      0.00000
     43      11.1591      0.00000
     44      12.0055      0.00000
     45      12.4540      0.00000
     46      12.9558      0.00000
     47      13.4560      0.00000
     48      13.5387      0.00000
     49      13.7632      0.00000
     50      14.2733      0.00000
     51      14.4154      0.00000
     52      14.6840      0.00000
     53      15.1202      0.00000
     54      15.5173      0.00000
     55      16.4444      0.00000
     56      16.5173      0.00000
     57      16.5965      0.00000
     58      17.3337      0.00000
     59      17.3895      0.00000
     60      17.5854      0.00000
     61      17.8622      0.00000
     62      18.0908      0.00000
     63      18.2659      0.00000
     64      18.5659      0.00000

 k-point     4 :       0.0000    0.1111    0.0000
  band No.  band energies     occupation 
      1     -57.6564      2.00000
      2     -57.6277      2.00000
      3     -34.0991      2.00000
      4     -34.0440      2.00000
      5     -33.9770      2.00000
      6     -33.8252      2.00000
      7     -33.5600      2.00000
      8     -33.5375      2.00000
      9      -8.4229      2.00000
     10      -6.1056      2.00000
     11      -2.7160      2.00000
     12      -2.4976      2.00000
     13      -1.9417      2.00000
     14      -1.2922      2.00000
     15      -0.7444      1.25507
     16      -0.7081      0.65255
     17      -0.6131     -0.06952
     18       0.3319     -0.00000
     19       0.3880     -0.00000
     20       1.1613     -0.00000
     21       1.4921      0.00000
     22       1.6189      0.00000
     23       1.7816      0.00000
     24       3.0029      0.00000
     25       3.2085      0.00000
     26       3.7533      0.00000
     27       3.7606      0.00000
     28       4.6769      0.00000
     29       4.9887      0.00000
     30       5.7592      0.00000
     31       6.2156      0.00000
     32       6.7274      0.00000
     33       7.6538      0.00000
     34       7.9681      0.00000
     35       8.3800      0.00000
     36       8.6580      0.00000
     37       8.7758      0.00000
     38       9.4921      0.00000
     39       9.5321      0.00000
     40      10.6090      0.00000
     41      10.7036      0.00000
     42      10.8237      0.00000
     43      11.1109      0.00000
     44      12.0532      0.00000
     45      12.2147      0.00000
     46      12.4832      0.00000
     47      13.1182      0.00000
     48      13.3259      0.00000
     49      13.5544      0.00000
     50      13.6285      0.00000
     51      13.6965      0.00000
     52      13.9457      0.00000
     53      14.9050      0.00000
     54      15.0481      0.00000
     55      15.5987      0.00000
     56      16.0661      0.00000
     57      16.6830      0.00000
     58      17.0021      0.00000
     59      17.1244      0.00000
     60      17.4131      0.00000
     61      17.8519      0.00000
     62      17.9706      0.00000
     63      18.1692      0.00000
     64      18.1772      0.00000

 k-point     5 :       0.2000    0.1111    0.0000
  band No.  band energies     occupation 
      1     -57.6563      2.00000
      2     -57.6277      2.00000
      3     -34.0987      2.00000
      4     -34.0464      2.00000
      5     -33.9757      2.00000
      6     -33.8254      2.00000
      7     -33.5599      2.00000
      8     -33.5376      2.00000
      9      -8.2037      2.00000
     10      -6.0081      2.00000
     11      -3.7715      2.00000
     12      -2.2296      2.00000
     13      -1.6995      2.00000
     14      -1.4865      2.00000
     15      -1.1232      2.00000
     16      -0.6415     -0.01431
     17      -0.3159     -0.00000
     18       0.2569     -0.00000
     19       0.6020     -0.00000
     20       1.0825     -0.00000
     21       1.2798      0.00000
     22       1.5634      0.00000
     23       1.7583      0.00000
     24       3.3275      0.00000
     25       3.5228      0.00000
     26       3.7870      0.00000
     27       4.0198      0.00000
     28       4.9123      0.00000
     29       5.1829      0.00000
     30       6.0152      0.00000
[...]
     36       8.5402      0.00000
     37       8.7787      0.00000
     38       9.2551      0.00000
     39       9.5652      0.00000
     40      10.0016      0.00000
     41      10.4672      0.00000
     42      10.6102      0.00000
     43      10.8030      0.00000
     44      11.1961      0.00000
     45      11.6404      0.00000
     46      12.1444      0.00000
     47      12.5559      0.00000
     48      12.7253      0.00000
     49      13.2923      0.00000
     50      13.3632      0.00000
     51      13.5893      0.00000
     52      13.8150      0.00000
     53      14.0065      0.00000
     54      14.0348      0.00000
     55      14.3536      0.00000
     56      14.4715      0.00000
     57      14.9156      0.00000
     58      15.2500      0.00000
     59      15.3933      0.00000
     60      15.6690      0.00000
     61      15.7138      0.00000
     62      16.3463      0.00000
     63      16.6081      0.00000
     64      16.7381      0.00000

 k-point    12 :       0.4000    0.3333    0.0000
  band No.  band energies     occupation 
      1     -57.6209      2.00000
      2     -57.5932      2.00000
      3     -34.0632      2.00000
      4     -34.0157      2.00000
      5     -33.9394      2.00000
      6     -33.8494      2.00000
      7     -33.8205      2.00000
      8     -33.7957      2.00000
      9      -6.1446      2.00000
     10      -4.7265      2.00000
     11      -2.4541      2.00000
     12      -1.9066      2.00000
     13      -1.7440      2.00000
     14      -1.3616      2.00000
     15      -0.7729      1.66847
     16      -0.5634     -0.04088
     17      -0.4283     -0.00018
     18      -0.2000     -0.00000
     19       0.5045     -0.00000
     20       0.8277     -0.00000
     21       1.2000     -0.00000
     22       1.7861      0.00000
     23       2.7566      0.00000
     24       3.3390      0.00000
     25       3.5331      0.00000
     26       4.5036      0.00000
     27       5.2613      0.00000
     28       6.1751      0.00000
     29       6.2879      0.00000
     30       6.5612      0.00000
     31       6.8383      0.00000
     32       7.1203      0.00000
     33       7.4389      0.00000
     34       7.6281      0.00000
     35       8.1085      0.00000
     36       8.2863      0.00000
     37       8.6899      0.00000
     38       9.0164      0.00000
     39       9.4560      0.00000
     40       9.7689      0.00000
     41      10.3364      0.00000
     42      10.5689      0.00000
     43      11.0305      0.00000
     44      11.3752      0.00000
     45      12.0580      0.00000
     46      12.0935      0.00000
     47      12.2401      0.00000
     48      12.4066      0.00000
     49      12.6364      0.00000
     50      13.0927      0.00000
     51      13.3879      0.00000
     52      13.8285      0.00000
     53      13.9489      0.00000
     54      14.5809      0.00000
     55      14.6307      0.00000
     56      14.9037      0.00000
     57      14.9877      0.00000
     58      15.0512      0.00000
     59      15.8159      0.00000
     60      16.0738      0.00000
     61      16.1211      0.00000
     62      16.4325      0.00000
     63      16.6162      0.00000
     64      16.9462      0.00000

 k-point    13 :       0.0000    0.4444    0.0000
  band No.  band energies     occupation 
      1     -57.6088      2.00000
      2     -57.5809      2.00000
      3     -34.0520      2.00000
      4     -33.9988      2.00000
      5     -33.9490      2.00000
      6     -33.9303      2.00000
      7     -33.9156      2.00000
      8     -33.7854      2.00000
      9      -5.2254      2.00000
     10      -3.5698      2.00000
     11      -3.2732      2.00000
     12      -2.6016      2.00000
     13      -2.2131      2.00000
     14      -1.3936      2.00000
     15      -1.2354      2.00000
     16      -0.4882     -0.00345
     17       0.4007     -0.00000
     18       0.7836     -0.00000
     19       0.9106     -0.00000
     20       1.3072      0.00000
     21       2.6918      0.00000
     22       2.9742      0.00000
     23       3.0619      0.00000
     24       3.5816      0.00000
     25       3.7305      0.00000
     26       4.4183      0.00000
     27       4.8877      0.00000
     28       5.1185      0.00000
     29       5.7856      0.00000
     30       6.5156      0.00000
     31       6.5991      0.00000
     32       7.1282      0.00000
     33       7.2814      0.00000
     34       7.7415      0.00000
     35       7.8211      0.00000
     36       8.3749      0.00000
     37       8.8131      0.00000
     38       9.1044      0.00000
     39       9.5668      0.00000
     40       9.5716      0.00000
     41      10.2659      0.00000
     42      10.7410      0.00000
     43      11.0263      0.00000
     44      11.4120      0.00000
     45      11.4957      0.00000
     46      11.8552      0.00000
     47      12.0373      0.00000
     48      12.3291      0.00000
     49      12.9250      0.00000
     50      13.0989      0.00000
     51      13.2891      0.00000
     52      13.4821      0.00000
     53      14.0392      0.00000
     54      14.1066      0.00000
     55      14.1457      0.00000
     56      14.3320      0.00000
     57      14.3618      0.00000
     58      14.6022      0.00000
     59      15.0793      0.00000
     60      15.0811      0.00000
     61      15.4118      0.00000
     62      15.7885      0.00000
     63      16.1109      0.00000
     64      16.3155      0.00000

 k-point    14 :       0.2000    0.4444    0.0000
  band No.  band energies     occupation 
      1     -57.6087      2.00000
      2     -57.5810      2.00000
      3     -34.0516      2.00000
      4     -34.0006      2.00000
      5     -33.9486      2.00000
      6     -33.9291      2.00000
      7     -33.9159      2.00000
      8     -33.7855      2.00000
      9      -5.1470      2.00000
     10      -3.5555      2.00000
     11      -3.4005      2.00000
     12      -2.5347      2.00000
     13      -1.8763      2.00000
     14      -1.2854      2.00000
     15      -0.9359      2.01276
     16      -0.5475     -0.02762
     17       0.2200     -0.00000
     18       0.6121     -0.00000
     19       0.7967     -0.00000
     20       1.2264     -0.00000
     21       1.5290      0.00000
     22       2.6943      0.00000
     23       2.8253      0.00000
     24       3.1478      0.00000
     25       4.0994      0.00000
     26       4.5792      0.00000
     27       5.0839      0.00000
     28       5.3814      0.00000
     29       5.7295      0.00000
     30       6.7662      0.00000
     31       7.0453      0.00000
     32       7.2169      0.00000
     33       7.5009      0.00000
     34       8.0196      0.00000
     35       8.4371      0.00000
     36       8.6179      0.00000
     37       8.9466      0.00000
     38       9.4122      0.00000
     39       9.6293      0.00000
     40       9.8775      0.00000
     41      10.0828      0.00000
     42      10.4649      0.00000
     43      10.6913      0.00000
     44      11.1090      0.00000
     45      11.3749      0.00000
     46      11.6500      0.00000
     47      11.9971      0.00000
     48      12.1508      0.00000
     49      12.3138      0.00000
     50      12.4555      0.00000
     51      12.9064      0.00000
     52      13.2191      0.00000
     53      13.7865      0.00000
     54      14.0088      0.00000
     55      14.2608      0.00000
     56      14.3089      0.00000
     57      14.4847      0.00000
     58      15.0014      0.00000
     59      15.0829      0.00000
     60      15.3384      0.00000
     61      15.5377      0.00000
     62      15.9686      0.00000
     63      16.1786      0.00000
     64      16.4847      0.00000

 k-point    15 :       0.4000    0.4444    0.0000
  band No.  band energies     occupation 
      1     -57.6086      2.00000
      2     -57.5811      2.00000
      3     -34.0510      2.00000
      4     -34.0036      2.00000
      5     -33.9479      2.00000
      6     -33.9273      2.00000
      7     -33.9162      2.00000
      8     -33.7857      2.00000
      9      -5.0321      2.00000
     10      -3.8242      2.00000
     11      -3.0727      2.00000
     12      -2.1334      2.00000
     13      -1.6772      2.00000
     14      -1.0395      2.00010
     15      -0.7288      0.99484
     16      -0.3492     -0.00000
     17      -0.2711     -0.00000
     18      -0.0426     -0.00000
     19       0.5794     -0.00000
     20       0.6618     -0.00000
     21       1.4498      0.00000
     22       2.0716      0.00000
     23       2.3808      0.00000
     24       2.7400      0.00000
     25       4.2192      0.00000
     26       5.0057      0.00000
     27       5.0399      0.00000
     28       5.3704      0.00000
     29       6.3930      0.00000
     30       6.6220      0.00000
     31       7.4345      0.00000
     32       7.5376      0.00000
     33       7.8297      0.00000
     34       8.4050      0.00000
     35       8.7837      0.00000
     36       8.9992      0.00000
     37       9.1100      0.00000
     38       9.5377      0.00000
     39       9.8400      0.00000
     40      10.1469      0.00000
     41      10.2754      0.00000
     42      10.5317      0.00000
     43      10.7940      0.00000
     44      10.8106      0.00000
     45      11.0710      0.00000
     46      11.3509      0.00000
     47      11.8079      0.00000
     48      12.1015      0.00000
     49      12.2477      0.00000
     50      12.3885      0.00000
     51      12.5572      0.00000
     52      13.0771      0.00000
     53      13.2718      0.00000
     54      13.4555      0.00000
     55      13.6804      0.00000
     56      14.0925      0.00000
     57      14.3929      0.00000
     58      14.7486      0.00000
     59      14.9056      0.00000
     60      15.2505      0.00000
     61      15.5130      0.00000
     62      16.1332      0.00000
     63      16.3747      0.00000
     64      16.6706      0.00000


--------------------------------------------------------------------------------------------------------


 soft charge-density along one line, spin component           1
         0         1         2         3         4         5         6         7         8         9
 total charge-density along one line
 
 pseudopotential strength for first ion, spin component:           1
 -2.833 -24.490  -0.000  -0.016  -0.002   0.000   0.007   0.002
-24.490  11.649  -0.000   0.012  -0.000  -0.000  -0.002  -0.000
 -0.000  -0.000 -28.019  -0.000   0.000  10.941   0.000  -0.000
 -0.016   0.012  -0.000 -28.200   0.031   0.000  11.063  -0.021
 -0.002  -0.000   0.000   0.031 -28.149  -0.000  -0.021  11.029
  0.000  -0.000  10.941   0.000  -0.000   4.846  -0.000   0.000
  0.007  -0.002   0.000  11.063  -0.021  -0.000   4.797   0.009
  0.002  -0.000  -0.000  -0.021  11.029   0.000   0.009   4.809
  0.000   0.000   0.002   0.000  -0.000  -0.000  -0.000   0.000
 -0.000  -0.000   0.002  -0.000   0.000   0.001   0.000  -0.000
 -0.048  -0.014   0.000  -0.012  -0.001  -0.000   0.006   0.000
  0.023   0.005   0.000  -0.004  -0.005  -0.000   0.002   0.004
 -0.046  -0.012   0.000  -0.003  -0.003  -0.000   0.001   0.002
  0.000   0.000   0.002   0.000  -0.000  -0.000  -0.000   0.000
 -0.000  -0.000   0.002  -0.000   0.000   0.002   0.000  -0.000
 -0.059  -0.016   0.000  -0.015  -0.001  -0.000   0.009   0.000
  0.029   0.005   0.000  -0.004  -0.006  -0.000   0.002   0.005
 -0.057  -0.014   0.000  -0.004  -0.004  -0.000   0.002   0.002
 total augmentation occupancy for first ion, spin component:           1
  1.995  -0.056   0.000  -0.002  -0.000   0.000  -0.004   0.000   0.000   0.000  -0.018   0.009  -0.022   0.000   0.000   0.019
 -0.056   1.398   0.000  -0.014   0.000   0.000   0.059   0.004   0.000   0.000  -0.358   0.030  -0.139   0.000   0.000   0.192
  0.000   0.000   1.983   0.000   0.000  -0.035   0.000   0.000  -0.000  -0.022   0.000   0.000   0.000   0.001   0.016   0.000
 -0.002  -0.014   0.000   1.984  -0.000   0.000  -0.036   0.000   0.000   0.000  -0.019   0.005   0.002   0.000   0.000   0.012
 -0.000   0.000   0.000  -0.000   1.983   0.000   0.000  -0.037   0.000   0.000   0.002  -0.018   0.001   0.000   0.000  -0.002
  0.000   0.000  -0.035   0.000   0.000   0.105   0.000   0.000  -0.039   0.054   0.000   0.000   0.000   0.013  -0.055   0.000
 -0.004   0.059   0.000  -0.036   0.000   0.000   0.065   0.005   0.000   0.000   0.198  -0.001   0.032   0.000   0.000  -0.080
  0.000   0.004   0.000   0.000  -0.037   0.000   0.005   0.095   0.000   0.000   0.001   0.078   0.045   0.000   0.000   0.005
  0.000   0.000  -0.000   0.000   0.000  -0.039   0.000   0.000   2.247  -0.139   0.000   0.000   0.000  -1.030   0.044   0.000
  0.000   0.000  -0.022   0.000   0.000   0.054   0.000   0.000  -0.139   1.595   0.000   0.000   0.000   0.045  -0.638   0.000
 -0.018  -0.358   0.000  -0.019   0.002   0.000   0.198   0.001   0.000   0.000   1.572  -0.054   0.019   0.000   0.000  -0.650
  0.009   0.030   0.000   0.005  -0.018   0.000  -0.001   0.078   0.000   0.000  -0.054   1.198   0.215   0.000   0.000   0.055
 -0.022  -0.139   0.000   0.002   0.001   0.000   0.032   0.045   0.000   0.000   0.019   0.215   1.934   0.000   0.000   0.070
  0.000   0.000   0.001   0.000   0.000   0.013   0.000   0.000  -1.030   0.045   0.000   0.000   0.000   0.496  -0.017   0.000
  0.000   0.000   0.016   0.000   0.000  -0.055   0.000   0.000   0.044  -0.638   0.000   0.000   0.000  -0.017   0.283   0.000
  0.019   0.192   0.000   0.012  -0.002   0.000  -0.080   0.005   0.000   0.000  -0.650   0.055   0.070   0.000   0.000   0.303
 -0.009   0.004   0.000  -0.003   0.012   0.000   0.010  -0.041   0.000   0.000   0.057  -0.426  -0.056   0.000   0.000  -0.036
  0.021   0.004   0.000  -0.001  -0.001   0.000   0.001  -0.018   0.000   0.000   0.069  -0.062  -0.749   0.000   0.000  -0.062


------------------------ aborting loop because EDIFF is reached ----------------------------------------


    CHARGE:  cpu time      0.0130: real time      0.0130
    FORLOC:  cpu time      0.0002: real time      0.0002
    FORNL :  cpu time      0.0394: real time      0.0394
    STRESS:  cpu time      0.4407: real time      0.4407
    FORCOR:  cpu time      0.0078: real time      0.0078
    FORHAR:  cpu time      0.0013: real time      0.0013
    MIXING:  cpu time      0.0006: real time      0.0006
    OFIELD:  cpu time      0.0000: real time      0.0000

  FORCE on cell =-STRESS in cart. coord.  units (eV):
  Direction    XX          YY          ZZ          XY          YZ          ZX
  --------------------------------------------------------------------------------------
  Alpha Z    20.23987    20.23987    20.23987
  Ewald    3954.26896  4363.82555 -5549.06686     0.00000     0.00000   113.44970
  Hartree  4721.79273  5079.04884 -4207.86394     0.00000    -0.00000   100.08331
  E(xc)    -142.89090  -142.41355  -143.39421     0.00000    -0.00000     0.10459
  Local   -9023.47785 -9801.60239  9416.69697     0.00000    -0.00000  -215.34835
  n-local   -25.31789   -40.24842   -26.21083    -5.90316     0.38553    -2.18537
  augment   119.11918   125.52612   117.18456     0.00000    -0.00000     1.25240
  Kinetic   372.37633   394.57215   371.65708     7.30641     0.37238     2.30522
  Fock        0.00000     0.00000     0.00000     0.00000     0.00000     0.00000
  -------------------------------------------------------------------------------------
  Total      -3.88957    -1.05183    -0.75736     0.00000     0.00000    -0.33851
  in kB     -25.72056    -6.95547    -5.00822     0.00000     0.00000    -2.23843
  external pressure =      -12.56 kB  Pullay stress =        0.00 kB


 VOLUME and BASIS-vectors are now :
 -----------------------------------------------------------------------------
  energy-cutoff  :      520.00
  volume of cell :      242.29
      direct lattice vectors                 reciprocal lattice vectors
     4.953899860  0.000000000  0.000000000     0.201861166  0.000000000  0.000000000
     0.000000000  2.823800087  0.000000000     0.000000000  0.354132718  0.000000000
     0.000000000  0.000000000 17.320100784     0.000000000  0.000000000  0.057736385

  length of vectors
     4.953899860  2.823800087 17.320100784     0.201861166  0.354132718  0.057736385


 FORCES acting on ions
    electron-ion (+dipol)            ewald-force                    non-local-force                 convergence-correction
 -----------------------------------------------------------------------------------------------
   0.651E+02 -.377E-14 0.820E+03   -.651E+02 -.721E-14 -.817E+03   0.441E-01 0.000E+00 -.263E+01   0.259E-03 -.103E-13 0.782E-04
   -.651E+02 0.881E-14 -.820E+03   0.651E+02 -.306E-14 0.817E+03   -.441E-01 0.000E+00 0.263E+01   -.259E-03 0.386E-13 -.784E-04
   -.163E+02 0.311E-13 0.219E+03   0.162E+02 -.250E-14 -.217E+03   0.161E+00 0.000E+00 -.170E+01   -.303E-04 -.175E-15 0.268E-04
   0.163E+02 -.215E-13 -.219E+03   -.162E+02 -.234E-14 0.217E+03   -.161E+00 0.000E+00 0.170E+01   0.303E-04 0.179E-16 -.269E-04
 -----------------------------------------------------------------------------------------------
   0.235E-03 0.146E-13 -.135E-03   0.178E-13 -.151E-13 -.568E-13   0.000E+00 0.000E+00 0.222E-15   -.688E-08 0.281E-13 -.256E-06
 
 
 POSITION                                       TOTAL-FORCE (eV/Angst)
 -----------------------------------------------------------------------------------
      3.34428      0.00000      6.99992         0.072221      0.000000      0.344110
      0.00000      0.00000      9.32012        -0.072221      0.000000     -0.344110
      0.86733      1.41190      6.99992         0.073057      0.000000     -0.023507
      2.47695      1.41190      9.32012        -0.073057      0.000000      0.023507
 -----------------------------------------------------------------------------------
    total drift:                                0.000235      0.000000     -0.000135


--------------------------------------------------------------------------------------------------------



  FREE ENERGIE OF THE ION-ELECTRON SYSTEM (eV)
  ---------------------------------------------------
  free  energy   TOTEN  =       -21.68990687 eV

  energy  without entropy=      -21.68753308  energy(sigma->0) =      -21.68911561
 


--------------------------------------------------------------------------------------------------------


    POTLOK:  cpu time      0.0070: real time      0.0070


--------------------------------------------------------------------------------------------------------


 writing wavefunctions
     LOOP+:  cpu time     32.4074: real time     32.4095
    4ORBIT:  cpu time      0.0000: real time      0.0000

 total amount of memory used by VASP MPI-rank0    63077. kBytes
=======================================================================

   base                                    :      30000. kBytes
   nonl-proj                               :      28899. kBytes
   fftplans                                :        402. kBytes
   grid                                    :       2117. kBytes
   one-center                              :         62. kBytes
   wavefun                                 :       1597. kBytes
 
  
  
 General timing and accounting informations for this job:
 ========================================================
  
                  Total CPU time used (sec):       33.946
                            User time (sec):       32.395
                          System time (sec):        1.552
                         Elapsed time (sec):       34.200
  
                   Maximum memory used (kb):      239616.
                   Average memory used (kb):          N/A
  
                          Minor page faults:        30336
                          Major page faults:           18
                 Voluntary context switches:          146
