<?xml version="1.0" encoding="ISO-8859-1"?>
<modeling>
 <generator>
  <i name="program" type="string">vasp </i>
  <i name="version" type="string">6.5.0  </i>
  <i name="subversion" type="string">16Dec24 (build Apr 17 2025 17:55:45) complex                          parallel </i>
  <i name="platform" type="string">LinuxIFC </i>
  <i name="date" type="string">2025 07 14 </i>
  <i name="time" type="string">12:51:23 </i>
 </generator>
 <incar>
  <i type="int" name="ISTART">     0</i>
  <i type="string" name="PREC">N</i>
  <i type="string" name="ALGO">N</i>
  <i type="int" name="ICHARG">     2</i>
  <i type="int" name="NELM">   500</i>
  <i type="int" name="IBRION">    -1</i>
  <i name="EDIFF">      0.00001000</i>
  <i name="EDIFFG">     -0.01000000</i>
  <i type="int" name="NSW">     0</i>
  <i type="int" name="ISIF">     3</i>
  <i name="ENCUT">    520.00000000</i>
  <i type="logical" name="LREAL"> F  </i>
  <i type="int" name="ISMEAR">     1</i>
  <i name="SIGMA">      0.10000000</i>
  <i type="logical" name="LVTOT"> T  </i>
  <i type="logical" name="LVHAR"> T  </i>
 </incar>
 <primitive_cell>
  <structure name="primitive_cell" >
   <crystal>
    <varray name="basis" >
     <v>       4.95389986       0.00000000       0.00000000 </v>
     <v>       0.00000000       2.82380009       0.00000000 </v>
     <v>       0.00000000       0.00000000      17.32010078 </v>
    </varray>
    <i name="volume">    242.28782173 </i>
    <varray name="rec_basis" >
     <v>       0.20186117       0.00000000       0.00000000 </v>
     <v>       0.00000000       0.35413272       0.00000000 </v>
     <v>       0.00000000       0.00000000       0.05773638 </v>
    </varray>
   </crystal>
   <varray name="positions" >
    <v>       0.67508000       0.00000000       0.40415001 </v>
    <v>       0.00000000       0.00000000       0.53811002 </v>
    <v>       0.17508000       0.50000000       0.40415001 </v>
    <v>       0.50000000       0.50000000       0.53811002 </v>
   </varray>
  </structure>
  <varray name="primitive_index" >
   <v type="int" >        1 </v>
   <v type="int" >        2 </v>
   <v type="int" >        3 </v>
   <v type="int" >        4 </v>
  </varray>
 </primitive_cell>
 <kpoints>
  <generation param="Gamma">
   <v type="int" name="divisions">       5        9        1 </v>
   <v name="usershift">      0.00000000       0.00000000       0.00000000 </v>
   <v name="genvec1">      0.20000000       0.00000000       0.00000000 </v>
   <v name="genvec2">      0.00000000       0.11111111       0.00000000 </v>
   <v name="genvec3">      0.00000000       0.00000000       1.00000000 </v>
   <v name="shift">      0.00000000       0.00000000       0.00000000 </v>
  </generation>
  <varray name="kpointlist" >
   <v>       0.00000000       0.00000000       0.00000000 </v>
   <v>       0.20000000       0.00000000       0.00000000 </v>
   <v>       0.40000000       0.00000000       0.00000000 </v>
   <v>       0.00000000       0.11111111       0.00000000 </v>
   <v>       0.20000000       0.11111111       0.00000000 </v>
   <v>       0.40000000       0.11111111       0.00000000 </v>
   <v>       0.00000000       0.22222222       0.00000000 </v>
   <v>       0.20000000       0.22222222       0.00000000 </v>
   <v>       0.40000000       0.22222222       0.00000000 </v>
   <v>       0.00000000       0.33333333       0.00000000 </v>
   <v>       0.20000000       0.33333333       0.00000000 </v>
   <v>       0.40000000       0.33333333       0.00000000 </v>
   <v>       0.00000000       0.44444444       0.00000000 </v>
   <v>       0.20000000       0.44444444       0.00000000 </v>
   <v>       0.40000000       0.44444444       0.00000000 </v>
  </varray>
  <varray name="weights" >
   <v>       0.02222222 </v>
   <v>       0.04444444 </v>
   <v>       0.04444444 </v>
   <v>       0.04444444 </v>
   <v>       0.08888889 </v>
   <v>       0.08888889 </v>
   <v>       0.04444444 </v>
   <v>       0.08888889 </v>
   <v>       0.08888889 </v>
   <v>       0.04444444 </v>
   <v>       0.08888889 </v>
   <v>       0.08888889 </v>
   <v>       0.04444444 </v>
   <v>       0.08888889 </v>
   <v>       0.08888889 </v>
  </varray>
 </kpoints>
 <parameters>
  <separator name="general" >
   <i type="string" name="SYSTEM">unknown system</i>
   <i type="logical" name="LCOMPAT"> F  </i>
  </separator>
  <separator name="electronic" >
   <i type="string" name="PREC">n</i>
   <i name="ENMAX">    520.00000000</i>
   <i name="ENAUG">    482.84800000</i>
   <i name="EDIFF">      0.00001000</i>
   <i type="int" name="IALGO">    38</i>
   <i type="int" name="IWAVPR">    10</i>
   <i type="int" name="NBANDS">    64</i>
   <i type="int" name="NBANDSLOW">    -1</i>
   <i type="int" name="NBANDSHIGH">    -1</i>
   <i name="NELECT">     30.00000000</i>
   <i type="int" name="TURBO">     0</i>
   <i type="int" name="IRESTART">     0</i>
   <i type="int" name="NREBOOT">     0</i>
   <i type="int" name="NMIN">     0</i>
   <i name="EREF">      0.00000000</i>
   <separator name="electronic smearing" >
    <i type="int" name="ISMEAR">     1</i>
    <i name="SIGMA">      0.10000000</i>
    <i name="KSPACING">      0.50000000</i>
    <i type="logical" name="KGAMMA"> T  </i>
    <i type="logical" name="KBLOWUP"> T  </i>
   </separator>
   <separator name="electronic projectors" >
    <i type="logical" name="LREAL"> F  </i>
    <v name="ROPT">      0.00000000      0.00000000</v>
    <i type="int" name="LMAXPAW">  -100</i>
    <i type="int" name="LMAXMIX">     2</i>
    <i type="logical" name="NLSPLINE"> F  </i>
   </separator>
   <separator name="electronic startup" >
    <i type="int" name="ISTART">     0</i>
    <i type="int" name="ICHARG">     2</i>
    <i type="int" name="INIWAV">     1</i>
   </separator>
   <separator name="electronic spin" >
    <i type="int" name="ISPIN">     1</i>
    <i type="logical" name="LNONCOLLINEAR"> F  </i>
    <v name="MAGMOM">      1.00000000      1.00000000      1.00000000      1.00000000</v>
    <i name="NUPDOWN">     -1.00000000</i>
    <i type="logical" name="LSORBIT"> F  </i>
    <v name="SAXIS">      0.00000000      0.00000000      1.00000000</v>
    <i type="logical" name="LSPIRAL"> F  </i>
    <v name="QSPIRAL">      0.00000000      0.00000000      0.00000000</v>
    <i type="logical" name="LZEROZ"> F  </i>
   </separator>
   <separator name="electronic exchange-correlation" >
    <i type="logical" name="LASPH"> F  </i>
   </separator>
   <separator name="electronic convergence" >
    <i type="int" name="NELM">   500</i>
    <i type="int" name="NELMDL">    -5</i>
    <i type="int" name="NELMIN">     2</i>
    <i name="ENINI">    520.00000000</i>
    <separator name="electronic convergence detail" >
     <i type="logical" name="LDIAG"> T  </i>
     <i type="logical" name="LSUBROT"> F  </i>
     <i name="WEIMIN">      0.00000000</i>
     <i name="EBREAK">      0.00000004</i>
     <i name="DEPER">      0.30000000</i>
     <i type="int" name="NRMM">     4</i>
     <i name="TIME">      0.40000000</i>
    </separator>
   </separator>
   <separator name="electronic mixer" >
    <i name="AMIX">      0.40000000</i>
    <i name="BMIX">      1.00000000</i>
    <i name="AMIN">      0.10000000</i>
    <i name="AMIX_MAG">      1.60000000</i>
    <i name="BMIX_MAG">      1.00000000</i>
    <separator name="electronic mixer details" >
     <i type="int" name="IMIX">     4</i>
     <i type="logical" name="MIXFIRST"> F  </i>
     <i type="int" name="MAXMIX">   -45</i>
     <i name="WC">    100.00000000</i>
     <i type="int" name="INIMIX">     1</i>
     <i type="int" name="MIXPRE">     1</i>
     <i type="int" name="MREMOVE">     5</i>
    </separator>
   </separator>
   <separator name="electronic dipolcorrection" >
    <i type="logical" name="LDIPOL"> F  </i>
    <i type="logical" name="LMONO"> F  </i>
    <i type="int" name="IDIPOL">     0</i>
    <i name="EPSILON">      1.00000000</i>
    <v name="DIPOL">   -100.00000000   -100.00000000   -100.00000000</v>
    <i name="EFIELD">      0.00000000</i>
    <i type="logical" name="LVACPOTAV"> F  </i>
   </separator>
  </separator>
  <separator name="grids" >
   <i type="int" name="NGX">    28</i>
   <i type="int" name="NGY">    16</i>
   <i type="int" name="NGZ">    98</i>
   <i type="int" name="NGXF">    56</i>
   <i type="int" name="NGYF">    32</i>
   <i type="int" name="NGZF">   196</i>
   <i type="logical" name="ADDGRID"> F  </i>
  </separator>
  <separator name="ionic" >
   <i type="int" name="NSW">     0</i>
   <i type="int" name="IBRION">    -1</i>
   <i type="int" name="MDALGO">     0</i>
   <i type="int" name="ISIF">     3</i>
   <i name="PSTRESS">      0.00000000</i>
   <i name="EDIFFG">     -0.01000000</i>
   <i type="int" name="NFREE">     0</i>
   <i name="POTIM">      0.50000000</i>
   <i name="SMASS">     -3.00000000</i>
   <i name="SCALEE">      1.00000000</i>
  </separator>
  <separator name="ionic md" >
   <i name="TEBEG">      0.00010000</i>
   <i name="TEEND">      0.00010000</i>
   <i type="int" name="NBLOCK">     1</i>
   <i type="int" name="KBLOCK">     1</i>
   <i type="int" name="NPACO">   256</i>
   <i name="APACO">     10.00000000</i>
  </separator>
  <separator name="symmetry" >
   <i type="int" name="ISYM">     2</i>
   <i name="SYMPREC">      0.00001000</i>
  </separator>
  <separator name="dos" >
   <i type="int" name="LORBIT">     0</i>
   <v name="RWIGS">     -1.00000000     -1.00000000</v>
   <i type="int" name="NEDOS">   301</i>
   <i name="EMIN">     10.00000000</i>
   <i name="EMAX">    -10.00000000</i>
   <i name="EFERMI">      0.00000000</i>
  </separator>
  <separator name="writing" >
   <i type="int" name="NWRITE">     2</i>
   <i type="logical" name="LWAVE"> T  </i>
   <i type="logical" name="LDOWNSAMPLE"> F  </i>
   <i type="logical" name="LCHARG"> T  </i>
   <i type="logical" name="LPARD"> F  </i>
   <i type="logical" name="LVTOT"> F  </i>
   <i type="logical" name="LVHAR"> T  </i>
   <i type="logical" name="LELF"> F  </i>
   <i type="logical" name="LOPTICS"> F  </i>
   <v name="STM">      0.00000000      0.00000000      0.00000000      0.00000000      0.00000000      0.00000000      0.00000000</v>
  </separator>
  <separator name="performance" >
   <i type="int" name="NPAR">    64</i>
   <i type="int" name="NSIM">     4</i>
   <i type="int" name="NBLK">    -1</i>
   <i type="logical" name="LPLANE"> T  </i>
   <i type="logical" name="LSCALAPACK"> T  </i>
   <i type="logical" name="LSCAAWARE"> F  </i>
   <i type="logical" name="LSCALU"> F  </i>
   <i type="logical" name="LASYNC"> F  </i>
   <i type="logical" name="LORBITALREAL"> F  </i>
  </separator>
  <separator name="miscellaneous" >
   <i type="int" name="IDIOT">     3</i>
   <i type="int" name="PHON_NSTRUCT">    -1</i>
   <i type="logical" name="LMUSIC"> F  </i>
   <v name="POMASS">     47.88000000     26.98100000</v>
   <v name="DARWINR">      0.00000000      0.00000000</v>
   <v name="DARWINV">      1.00000000      1.00000000</v>
   <i type="logical" name="LCORR"> T  </i>
  </separator>
  <i type="logical" name="GGA_COMPAT"> T  </i>
  <i type="logical" name="LBERRY"> F  </i>
  <i type="int" name="ICORELEVEL">     0</i>
  <i type="logical" name="LDAU"> F  </i>
  <i type="int" name="I_CONSTRAINED_M">     0</i>
  <separator name="electronic exchange-correlation" >
   <i type="string" name="GGA    ">PE</i>
   <i type="string" name="XC_C">1</i>
   <i type="int" name="VOSKOWN">     0</i>
   <i type="logical" name="LHFCALC"> F  </i>
   <i type="string" name="PRECFOCK"></i>
   <i type="logical" name="LSYMGRAD"> F  </i>
   <i type="logical" name="LHFONE"> F  </i>
   <i type="logical" name="LRHFCALC"> F  </i>
   <i type="logical" name="LTHOMAS"> F  </i>
   <i type="logical" name="LMODELHF"> F  </i>
   <i type="logical" name="LFOCKACE"> F  </i>
   <i name="ENCUT4O">     -1.00000000</i>
   <i type="int" name="EXXOEP">     0</i>
   <i type="int" name="FOURORBIT">     0</i>
   <i name="AEXX">      0.00000000</i>
   <i name="HFALPHA">      0.00000000</i>
   <i name="MCALPHA">      0.00000000</i>
   <i name="ALDAX">      1.00000000</i>
   <i name="AGGAX">      1.00000000</i>
   <i name="AMGGAX">      1.00000000</i>
   <i name="ALDAC">      1.00000000</i>
   <i name="AGGAC">      1.00000000</i>
   <i name="AMGGAC">      1.00000000</i>
   <i type="int" name="NKREDX">     1</i>
   <i type="int" name="NKREDY">     1</i>
   <i type="int" name="NKREDZ">     1</i>
   <i type="logical" name="SHIFTRED"> F  </i>
   <i type="logical" name="ODDONLY"> F  </i>
   <i type="logical" name="EVENONLY"> F  </i>
   <i type="int" name="LMAXFOCK">     0</i>
   <i type="int" name="NMAXFOCKAE">     0</i>
   <i type="logical" name="LFOCKAEDFT"> F  </i>
   <i name="HFSCREEN">      0.00000000</i>
   <i name="HFSCREENC">      0.00000000</i>
   <i type="int" name="NBANDSGWLOW">     0</i>
  </separator>
  <separator name="vdW DFT" >
   <i type="logical" name="LUSE_VDW"> F  </i>
   <i type="int" name="IVDW_NL">    -1</i>
   <i type="logical" name="LSPIN_VDW"> F  </i>
   <i name="ZAB_VDW">     -0.84910000</i>
   <i name="GAMMA_VDW">      1.39626340</i>
   <i name="ALPHA_VDW">      0.00000000</i>
   <i name="PARAM1">      0.12340000</i>
   <i name="PARAM2">      1.00000000</i>
   <i name="BPARAM">      6.30000000</i>
   <i name="CPARAM">      0.00930000</i>
  </separator>
  <separator name="model GW" >
   <i type="int" name="MODEL_GW">     0</i>
   <i name="MODEL_EPS0">     36.34317326</i>
   <i name="MODEL_ALPHA">      1.00000000</i>
  </separator>
  <separator name="linear response parameters" >
   <i type="logical" name="LEPSILON"> F  </i>
   <i type="logical" name="LRPA"> F  </i>
   <i type="logical" name="LNABLA"> F  </i>
   <i type="logical" name="LVEL"> F  </i>
   <i name="CSHIFT">      0.10000000</i>
   <i name="OMEGAMAX">     -1.00000000</i>
   <i name="DEG_THRESHOLD">      0.00200000</i>
   <i name="RTIME">     -0.10000000</i>
   <i name="WPLASMAI">      0.00000000</i>
   <v name="DFIELD">      0.00000000      0.00000000      0.00000000</v>
   <v name="WPLASMA">      0.00000000      0.00000000      0.00000000      0.00000000      0.00000000      0.00000000      0.00000000      0.00000000      0.00000000</v>
  </separator>
  <separator name="orbital magnetization" >
   <i type="logical" name="NUCIND"> F  </i>
   <v name="MAGPOS">      0.00000000      0.00000000      0.00000000</v>
   <i type="logical" name="LNICSALL"> T  </i>
   <i type="logical" name="ORBITALMAG"> F  </i>
   <i type="logical" name="LMAGBLOCH"> F  </i>
   <i type="logical" name="LCHIMAG"> F  </i>
   <i type="logical" name="LGAUGE"> T  </i>
   <i type="int" name="MAGATOM">     0</i>
   <v name="MAGDIPOL">      0.00000000      0.00000000      0.00000000</v>
   <v name="AVECCONST">      0.00000000      0.00000000      0.00000000</v>
  </separator>
  <separator name="response functions" >
   <i type="logical" name="LALL_IN_ONE"> F  </i>
   <i type="int" name="IALL_IN_ONE">    -1</i>
   <i type="int" name="NBANDS_WAVE">    -1</i>
   <i type="logical" name="LFINITE_TEMPERATURE"> F  </i>
   <i type="logical" name="LADDER"> F  </i>
   <i type="logical" name="LRPAFORCE"> F  </i>
   <i type="logical" name="LFXC"> F  </i>
   <i type="logical" name="LHARTREE"> T  </i>
   <i type="int" name="IBSE">     2</i>
   <v type="int" name="KPOINT">    -1     0     0     0</v>
   <i type="logical" name="LTCTC"> F  </i>
   <i type="logical" name="LTCTE"> F  </i>
   <i type="logical" name="LTETE"> F  </i>
   <i type="logical" name="LTRIPLET"> F  </i>
   <i type="logical" name="LFXCEPS"> F  </i>
   <i type="logical" name="LFXHEG"> F  </i>
   <i type="int" name="NATURALO">     2</i>
   <i type="logical" name="LHOLEGF"> F  </i>
   <i type="logical" name="L2ORDER"> F  </i>
   <i type="logical" name="LDMP1"> F  </i>
   <i type="logical" name="LMP2LT"> F  </i>
   <i type="logical" name="LSMP2LT"> F  </i>
   <i type="logical" name="LGWLF"> F  </i>
   <i name="ENCUTGW">     -1.60000002</i>
   <i name="ENCUTGWSOFT">     -1.60000002</i>
   <i name="ENCUTLF">     -1.00000000</i>
   <i type="logical" name="ESF_SPLINES"> F  </i>
   <i name="ESF_CONV">      0.01000000</i>
   <i type="int" name="ESF_NINTER">    15</i>
   <i type="int" name="LMAXMP2">    -1</i>
   <i name="SCISSOR">      0.00000000</i>
   <i type="int" name="NOMEGA">     0</i>
   <i type="int" name="NOMEGAR">     0</i>
   <i type="int" name="NBANDSGW">    -1</i>
   <i type="int" name="NBANDSO">    -1</i>
   <i type="int" name="NBANDSV">    -1</i>
   <i type="int" name="NELMGW">     1</i>
   <i type="int" name="NELMHF">     1</i>
   <i type="int" name="DIM">     3</i>
   <i type="int" name="IESPILON">     4</i>
   <i type="int" name="ANTIRES">     0</i>
   <i name="OMEGAMAX">    -30.00000000</i>
   <i name="OMEGAMIN">    -30.00000000</i>
   <i name="OMEGATL">   -200.00000000</i>
   <i type="int" name="OMEGAGRID">     0</i>
   <i name="CSHIFT">     -0.10000000</i>
   <i type="logical" name="LSELFENERGY"> F  </i>
   <i type="logical" name="LSPECTRAL"> F  </i>
   <i type="logical" name="LSPECTRALGW"> F  </i>
   <i type="logical" name="LSINGLES"> F  </i>
   <i type="logical" name="LFERMIGW"> F  </i>
   <i type="logical" name="ODDONLYGW"> F  </i>
   <i type="logical" name="EVENONLYGW"> F  </i>
   <i type="int" name="NKREDLFX">     1</i>
   <i type="int" name="NKREDLFY">     1</i>
   <i type="int" name="NKREDLFZ">     1</i>
   <i type="int" name="MAXMEM">  2800</i>
   <i type="int" name="TELESCOPE">     0</i>
   <i type="int" name="NTAUPAR">    -1</i>
   <i type="int" name="NOMEGAPAR">    -1</i>
   <i name="DAMP_NEWTON">      0.80000001</i>
   <i name="LAMBDA">      1.00000000</i>
  </separator>
  <separator name="External order field" >
   <i name="OFIELD_KAPPA">      0.00000000</i>
   <v name="OFIELD_K">      0.00000000      0.00000000      0.00000000</v>
   <i name="OFIELD_Q6_NEAR">      0.00000000</i>
   <i name="OFIELD_Q6_FAR">      0.00000000</i>
   <i name="OFIELD_A">      0.00000000</i>
  </separator>
  <separator name="optional k-points parameters" >
   <i type="int" name="KPOINTS_OPT_MODE">     1</i>
   <i type="logical" name="LKPOINTS_OPT"> F  </i>
  </separator>
 </parameters>
 <atominfo>
  <atoms>       4 </atoms>
  <types>       2 </types>
  <array name="atoms" >
   <dimension dim="1">ion</dimension>
   <field type="string">element</field>
   <field type="int">atomtype</field>
   <set>
    <rc><c>Ti</c><c>   1</c></rc>
    <rc><c>Ti</c><c>   1</c></rc>
    <rc><c>Al</c><c>   2</c></rc>
    <rc><c>Al</c><c>   2</c></rc>
   </set>
  </array>
  <array name="atomtypes" >
   <dimension dim="1">type</dimension>
   <field type="int">atomspertype</field>
   <field type="string">element</field>
   <field>mass</field>
   <field>valence</field>
   <field type="string">pseudopotential</field>
   <set>
    <rc><c>   2</c><c>Ti</c><c>     47.88000000</c><c>     12.00000000</c><c>  PAW_PBE Ti_sv 26Sep2005               </c></rc>
    <rc><c>   2</c><c>Al</c><c>     26.98100000</c><c>      3.00000000</c><c>  PAW_PBE Al 04Jan2001                  </c></rc>
   </set>
  </array>
 </atominfo>
 <structure name="initialpos" >
  <crystal>
   <varray name="basis" >
    <v>       4.95389986       0.00000000       0.00000000 </v>
    <v>       0.00000000       2.82380009       0.00000000 </v>
    <v>       0.00000000       0.00000000      17.32010078 </v>
   </varray>
   <i name="volume">    242.28782173 </i>
   <varray name="rec_basis" >
    <v>       0.20186117       0.00000000       0.00000000 </v>
    <v>       0.00000000       0.35413272       0.00000000 </v>
    <v>       0.00000000       0.00000000       0.05773638 </v>
   </varray>
  </crystal>
  <varray name="positions" >
   <v>       0.67508000       0.00000000       0.40415001 </v>
   <v>       0.00000000       0.00000000       0.53811002 </v>
   <v>       0.17508000       0.50000000       0.40415001 </v>
   <v>       0.50000000       0.50000000       0.53811002 </v>
  </varray>
 </structure>
 <calculation>
  <scstep>
   <time name="dav">    0.72    0.72</time>
   <time name="total">    0.73    0.73</time>
   <energy>
    <i name="alphaZ">     20.23987127 </i>
    <i name="ewald">   2769.02848834 </i>
    <i name="hartreedc">  -5583.44601112 </i>
    <i name="XCdc">     69.64212264 </i>
    <i name="pawpsdc">   2661.53069573 </i>
    <i name="pawaedc">  -2558.45184598 </i>
    <i name="eentropy">     -0.00497280 </i>
    <i name="bandstr">   -602.95515914 </i>
    <i name="atom">   3283.24688878 </i>
    <i name="e_fr_energy">     58.83007772 </i>
    <i name="e_wo_entrp">     58.83505052 </i>
    <i name="e_0_energy">     58.83173532 </i>
   </energy>
  </scstep>
  <scstep>
   <time name="dav">    1.41    1.41</time>
   <time name="total">    1.41    1.41</time>
   <energy>
    <i name="e_fr_energy">    -24.42392268 </i>
    <i name="e_wo_entrp">    -24.42019036 </i>
    <i name="e_0_energy">    -24.42267858 </i>
   </energy>
  </scstep>
  <scstep>
   <time name="dav">    0.72    0.72</time>
   <time name="total">    0.72    0.72</time>
   <energy>
    <i name="e_fr_energy">    -25.97048614 </i>
    <i name="e_wo_entrp">    -25.96632343 </i>
    <i name="e_0_energy">    -25.96909857 </i>
   </energy>
  </scstep>
  <scstep>
   <time name="dav">    2.37    2.37</time>
   <time name="total">    2.37    2.37</time>
   <energy>
    <i name="e_fr_energy">    -26.03126053 </i>
    <i name="e_wo_entrp">    -26.02706035 </i>
    <i name="e_0_energy">    -26.02986047 </i>
   </energy>
  </scstep>
  <scstep>
   <time name="dav">    0.71    0.71</time>
   <time name="total">    0.73    0.73</time>
   <energy>
    <i name="e_fr_energy">    -26.03127722 </i>
    <i name="e_wo_entrp">    -26.02707705 </i>
    <i name="e_0_energy">    -26.02987716 </i>
   </energy>
  </scstep>
  <scstep>
   <time name="dav">    1.65    1.65</time>
   <time name="total">    1.67    1.67</time>
   <energy>
    <i name="e_fr_energy">    -22.98603587 </i>
    <i name="e_wo_entrp">    -22.98653496 </i>
    <i name="e_0_energy">    -22.98620224 </i>
   </energy>
  </scstep>
  <scstep>
   <time name="dav">    1.85    1.85</time>
   <time name="total">    1.88    1.88</time>
   <energy>
    <i name="e_fr_energy">    -21.91036108 </i>
    <i name="e_wo_entrp">    -21.91490030 </i>
    <i name="e_0_energy">    -21.91187415 </i>
   </energy>
  </scstep>
  <scstep>
   <time name="dav">    2.01    2.01</time>
   <time name="total">    2.04    2.04</time>
   <energy>
    <i name="e_fr_energy">    -21.72034933 </i>
    <i name="e_wo_entrp">    -21.71907666 </i>
    <i name="e_0_energy">    -21.71992511 </i>
   </energy>
  </scstep>
  <scstep>
   <time name="dav">    2.14    2.14</time>
   <time name="total">    2.17    2.17</time>
   <energy>
    <i name="e_fr_energy">    -21.69482140 </i>
    <i name="e_wo_entrp">    -21.69225135 </i>
    <i name="e_0_energy">    -21.69396472 </i>
   </energy>
  </scstep>
  <scstep>
   <time name="dav">    1.78    1.78</time>
   <time name="total">    1.80    1.80</time>
   <energy>
    <i name="e_fr_energy">    -21.69015903 </i>
    <i name="e_wo_entrp">    -21.68826872 </i>
    <i name="e_0_energy">    -21.68952892 </i>
   </energy>
  </scstep>
  <scstep>
   <time name="dav">    1.93    1.93</time>
   <time name="total">    1.96    1.96</time>
   <energy>
    <i name="e_fr_energy">    -21.68921877 </i>
    <i name="e_wo_entrp">    -21.68663964 </i>
    <i name="e_0_energy">    -21.68835906 </i>
   </energy>
  </scstep>
  <scstep>
   <time name="dav">    1.50    1.50</time>
   <time name="total">    1.53    1.53</time>
   <energy>
    <i name="e_fr_energy">    -21.68833628 </i>
    <i name="e_wo_entrp">    -21.68600130 </i>
    <i name="e_0_energy">    -21.68755795 </i>
   </energy>
  </scstep>
  <scstep>
   <time name="dav">    1.76    1.76</time>
   <time name="total">    1.78    1.78</time>
   <energy>
    <i name="e_fr_energy">    -21.68870082 </i>
    <i name="e_wo_entrp">    -21.68626076 </i>
    <i name="e_0_energy">    -21.68788747 </i>
   </energy>
  </scstep>
  <scstep>
   <time name="dav">    1.26    1.26</time>
   <time name="total">    1.28    1.28</time>
   <energy>
    <i name="e_fr_energy">    -21.68904260 </i>
    <i name="e_wo_entrp">    -21.68671897 </i>
    <i name="e_0_energy">    -21.68826806 </i>
   </energy>
  </scstep>
  <scstep>
   <time name="dav">    1.48    1.48</time>
   <time name="total">    1.50    1.50</time>
   <energy>
    <i name="e_fr_energy">    -21.68919976 </i>
    <i name="e_wo_entrp">    -21.68682704 </i>
    <i name="e_0_energy">    -21.68840886 </i>
   </energy>
  </scstep>
  <scstep>
   <time name="dav">    1.72    1.72</time>
   <time name="total">    1.74    1.74</time>
   <energy>
    <i name="e_fr_energy">    -21.68946938 </i>
    <i name="e_wo_entrp">    -21.68709156 </i>
    <i name="e_0_energy">    -21.68867677 </i>
   </energy>
  </scstep>
  <scstep>
   <time name="dav">    1.55    1.55</time>
   <time name="total">    1.57    1.57</time>
   <energy>
    <i name="e_fr_energy">    -21.68973340 </i>
    <i name="e_wo_entrp">    -21.68735015 </i>
    <i name="e_0_energy">    -21.68893898 </i>
   </energy>
  </scstep>
  <scstep>
   <time name="dav">    1.53    1.53</time>
   <time name="total">    1.56    1.56</time>
   <energy>
    <i name="e_fr_energy">    -21.68987126 </i>
    <i name="e_wo_entrp">    -21.68749972 </i>
    <i name="e_0_energy">    -21.68908075 </i>
   </energy>
  </scstep>
  <scstep>
   <time name="dav">    1.47    1.47</time>
   <time name="total">    1.49    1.49</time>
   <energy>
    <i name="e_fr_energy">    -21.68989988 </i>
    <i name="e_wo_entrp">    -21.68752632 </i>
    <i name="e_0_energy">    -21.68910869 </i>
   </energy>
  </scstep>
  <scstep>
   <time name="dav">    1.40    1.40</time>
   <time name="total">    1.41    1.41</time>
   <energy>
    <i name="alphaZ">     20.23987127 </i>
    <i name="ewald">   2769.02848834 </i>
    <i name="hartreedc">  -5592.97938737 </i>
    <i name="XCdc">     68.17806568 </i>
    <i name="pawpsdc">   3112.50319917 </i>
    <i name="pawaedc">  -3001.58189090 </i>
    <i name="eentropy">     -0.00237379 </i>
    <i name="bandstr">   -680.32276805 </i>
    <i name="atom">   3283.24688878 </i>
    <i name="e_fr_energy">    -21.68990687 </i>
    <i name="e_wo_entrp">    -21.68753308 </i>
    <i name="e_0_energy">    -21.68911561 </i>
   </energy>
  </scstep>
  <structure>
   <crystal>
    <varray name="basis" >
     <v>       4.95389986       0.00000000       0.00000000 </v>
     <v>       0.00000000       2.82380009       0.00000000 </v>
     <v>       0.00000000       0.00000000      17.32010078 </v>
    </varray>
    <i name="volume">    242.28782173 </i>
    <varray name="rec_basis" >
     <v>       0.20186117       0.00000000       0.00000000 </v>
     <v>       0.00000000       0.35413272       0.00000000 </v>
     <v>       0.00000000       0.00000000       0.05773638 </v>
    </varray>
   </crystal>
   <varray name="positions" >
    <v>       0.67508000       0.00000000       0.40415001 </v>
    <v>       0.00000000       0.00000000       0.53811002 </v>
    <v>       0.17508000       0.50000000       0.40415001 </v>
    <v>       0.50000000       0.50000000       0.53811002 </v>
   </varray>
  </structure>
  <varray name="forces" >
   <v>       0.07222063       0.00000000       0.34410993 </v>
   <v>      -0.07222063       0.00000000      -0.34410993 </v>
   <v>       0.07305681       0.00000000      -0.02350744 </v>
   <v>      -0.07305681       0.00000000       0.02350744 </v>
  </varray>
  <varray name="stress" >
   <v>     -25.72056047       0.00000000      -2.23843306 </v>
   <v>       0.00000000      -6.95546797       0.00000000 </v>
   <v>      -2.23843319       0.00000000      -5.00821846 </v>
  </varray>
  <energy>
   <i name="e_fr_energy">    -21.68990687 </i>
   <i name="e_wo_entrp">    -21.68753308 </i>
   <i name="e_0_energy">    -21.68911561 </i>
  </energy>
  <time name="totalsc">   32.41   32.41</time>
  <eigenvalues>
   <array>
    <dimension dim="1">band</dimension>
    <dimension dim="2">kpoint</dimension>
    <dimension dim="3">spin</dimension>
    <field>eigene</field>
    <field>occ</field>
    <set>
     <set comment="spin 1">
      <set comment="kpoint 1">
       <r>  -57.6629    1.0000 </r>
       <r>  -57.6340    1.0000 </r>
       <r>  -34.1055    1.0000 </r>
       <r>  -34.0501    1.0000 </r>
       <r>  -33.9834    1.0000 </r>
       <r>  -33.8306    1.0000 </r>
       <r>  -33.5052    1.0000 </r>
       <r>  -33.4843    1.0000 </r>
       <r>   -8.6567    1.0000 </r>
       <r>   -6.3211    1.0000 </r>
       <r>   -2.8252    1.0000 </r>
       <r>   -2.7251    1.0000 </r>
       <r>   -2.0418    1.0000 </r>
       <r>   -1.4180    1.0000 </r>
       <r>   -0.9463    1.0044 </r>
       <r>   -0.7026    0.2844 </r>
       <r>   -0.5509   -0.0151 </r>
       <r>    0.3511   -0.0000 </r>
       <r>    0.5657   -0.0000 </r>
       <r>    1.1900   -0.0000 </r>
       <r>    1.3601    0.0000 </r>
       <r>    1.4226    0.0000 </r>
       <r>    1.9347    0.0000 </r>
       <r>    2.8673    0.0000 </r>
       <r>    3.0257    0.0000 </r>
       <r>    3.5506    0.0000 </r>
       <r>    3.5684    0.0000 </r>
       <r>    4.4860    0.0000 </r>
       <r>    4.7374    0.0000 </r>
       <r>    5.5488    0.0000 </r>
       <r>    6.5172    0.0000 </r>
       <r>    7.4527    0.0000 </r>
       <r>    7.5771    0.0000 </r>
       <r>    8.3926    0.0000 </r>
       <r>    8.4106    0.0000 </r>
       <r>    8.7960    0.0000 </r>
       <r>    9.2195    0.0000 </r>
       <r>    9.2689    0.0000 </r>
       <r>    9.9646    0.0000 </r>
       <r>   10.3746    0.0000 </r>
       <r>   10.5435    0.0000 </r>
       <r>   10.6316    0.0000 </r>
       <r>   10.8819    0.0000 </r>
       <r>   11.6187    0.0000 </r>
       <r>   11.7240    0.0000 </r>
       <r>   12.2674    0.0000 </r>
       <r>   12.3684    0.0000 </r>
       <r>   13.4103    0.0000 </r>
       <r>   13.4160    0.0000 </r>
       <r>   14.2263    0.0000 </r>
       <r>   14.5283    0.0000 </r>
       <r>   15.4289    0.0000 </r>
       <r>   15.4316    0.0000 </r>
       <r>   16.0129    0.0000 </r>
       <r>   16.3321    0.0000 </r>
       <r>   16.4167    0.0000 </r>
       <r>   16.4758    0.0000 </r>
       <r>   16.5916    0.0000 </r>
       <r>   16.8674    0.0000 </r>
       <r>   17.1947    0.0000 </r>
       <r>   17.4636    0.0000 </r>
       <r>   18.0423    0.0000 </r>
       <r>   18.1502    0.0000 </r>
       <r>   18.1743    0.0000 </r>
      </set>
      <set comment="kpoint 2">
       <r>  -57.6628    1.0000 </r>
       <r>  -57.6341    1.0000 </r>
       <r>  -34.1051    1.0000 </r>
       <r>  -34.0527    1.0000 </r>
       <r>  -33.9821    1.0000 </r>
       <r>  -33.8308    1.0000 </r>
       <r>  -33.5051    1.0000 </r>
       <r>  -33.4844    1.0000 </r>
       <r>   -8.4310    1.0000 </r>
       <r>   -6.2104    1.0000 </r>
       <r>   -3.9950    1.0000 </r>
       <r>   -2.3973    1.0000 </r>
       <r>   -1.7626    1.0000 </r>
       <r>   -1.6940    1.0000 </r>
       <r>   -1.2686    1.0000 </r>
       <r>   -0.5599   -0.0189 </r>
       <r>   -0.4450   -0.0002 </r>
       <r>    0.3066   -0.0000 </r>
       <r>    0.8259   -0.0000 </r>
       <r>    1.1801   -0.0000 </r>
       <r>    1.2748    0.0000 </r>
       <r>    1.4863    0.0000 </r>
       <r>    1.9370    0.0000 </r>
       <r>    3.1501    0.0000 </r>
       <r>    3.2955    0.0000 </r>
       <r>    3.5187    0.0000 </r>
       <r>    3.7692    0.0000 </r>
       <r>    4.7001    0.0000 </r>
       <r>    4.9093    0.0000 </r>
       <r>    5.8243    0.0000 </r>
       <r>    6.2414    0.0000 </r>
       <r>    7.0193    0.0000 </r>
       <r>    7.3627    0.0000 </r>
       <r>    7.8801    0.0000 </r>
       <r>    8.2752    0.0000 </r>
       <r>    8.6259    0.0000 </r>
       <r>    8.7365    0.0000 </r>
       <r>    9.1042    0.0000 </r>
       <r>    9.7388    0.0000 </r>
       <r>   10.7575    0.0000 </r>
       <r>   10.9052    0.0000 </r>
       <r>   11.0567    0.0000 </r>
       <r>   11.6065    0.0000 </r>
       <r>   11.9985    0.0000 </r>
       <r>   12.2472    0.0000 </r>
       <r>   12.2923    0.0000 </r>
       <r>   12.3800    0.0000 </r>
       <r>   13.4960    0.0000 </r>
       <r>   13.6116    0.0000 </r>
       <r>   14.3081    0.0000 </r>
       <r>   14.4238    0.0000 </r>
       <r>   15.1234    0.0000 </r>
       <r>   15.4352    0.0000 </r>
       <r>   15.5486    0.0000 </r>
       <r>   15.9905    0.0000 </r>
       <r>   16.2948    0.0000 </r>
       <r>   16.5731    0.0000 </r>
       <r>   16.8022    0.0000 </r>
       <r>   16.8138    0.0000 </r>
       <r>   16.8646    0.0000 </r>
       <r>   17.3238    0.0000 </r>
       <r>   17.6403    0.0000 </r>
       <r>   17.8926    0.0000 </r>
       <r>   17.9246    0.0000 </r>
      </set>
      <set comment="kpoint 3">
       <r>  -57.6626    1.0000 </r>
       <r>  -57.6342    1.0000 </r>
       <r>  -34.1045    1.0000 </r>
       <r>  -34.0566    1.0000 </r>
       <r>  -33.9802    1.0000 </r>
       <r>  -33.8312    1.0000 </r>
       <r>  -33.5050    1.0000 </r>
       <r>  -33.4845    1.0000 </r>
       <r>   -7.8874    1.0000 </r>
       <r>   -6.3478    1.0000 </r>
       <r>   -4.4254    1.0000 </r>
       <r>   -3.4213    1.0000 </r>
       <r>   -2.0329    1.0000 </r>
       <r>   -1.3346    1.0000 </r>
       <r>   -1.2655    1.0000 </r>
       <r>   -0.6129   -0.0348 </r>
       <r>   -0.0484   -0.0000 </r>
       <r>    0.3872   -0.0000 </r>
       <r>    1.0399   -0.0000 </r>
       <r>    1.1636   -0.0000 </r>
       <r>    1.1976   -0.0000 </r>
       <r>    1.5297    0.0000 </r>
       <r>    1.9411    0.0000 </r>
       <r>    2.6153    0.0000 </r>
       <r>    3.4920    0.0000 </r>
       <r>    4.0434    0.0000 </r>
       <r>    4.5554    0.0000 </r>
       <r>    5.2150    0.0000 </r>
       <r>    5.2866    0.0000 </r>
       <r>    5.5647    0.0000 </r>
       <r>    5.8783    0.0000 </r>
       <r>    6.6201    0.0000 </r>
       <r>    6.9191    0.0000 </r>
       <r>    7.5359    0.0000 </r>
       <r>    8.1850    0.0000 </r>
       <r>    8.8019    0.0000 </r>
       <r>    8.9951    0.0000 </r>
       <r>    9.2381    0.0000 </r>
       <r>    9.8467    0.0000 </r>
       <r>   10.3159    0.0000 </r>
       <r>   10.5559    0.0000 </r>
       <r>   10.9022    0.0000 </r>
       <r>   11.1591    0.0000 </r>
       <r>   12.0055    0.0000 </r>
       <r>   12.4540    0.0000 </r>
       <r>   12.9558    0.0000 </r>
       <r>   13.4560    0.0000 </r>
       <r>   13.5387    0.0000 </r>
       <r>   13.7632    0.0000 </r>
       <r>   14.2733    0.0000 </r>
       <r>   14.4154    0.0000 </r>
       <r>   14.6840    0.0000 </r>
       <r>   15.1202    0.0000 </r>
       <r>   15.5173    0.0000 </r>
       <r>   16.4444    0.0000 </r>
       <r>   16.5173    0.0000 </r>
       <r>   16.5965    0.0000 </r>
       <r>   17.3337    0.0000 </r>
       <r>   17.3895    0.0000 </r>
       <r>   17.5854    0.0000 </r>
       <r>   17.8622    0.0000 </r>
       <r>   18.0908    0.0000 </r>
       <r>   18.2659    0.0000 </r>
       <r>   18.5659    0.0000 </r>
      </set>
      <set comment="kpoint 4">
       <r>  -57.6564    1.0000 </r>
       <r>  -57.6277    1.0000 </r>
       <r>  -34.0991    1.0000 </r>
       <r>  -34.0440    1.0000 </r>
       <r>  -33.9770    1.0000 </r>
       <r>  -33.8252    1.0000 </r>
       <r>  -33.5600    1.0000 </r>
       <r>  -33.5375    1.0000 </r>
       <r>   -8.4229    1.0000 </r>
       <r>   -6.1056    1.0000 </r>
       <r>   -2.7160    1.0000 </r>
       <r>   -2.4976    1.0000 </r>
       <r>   -1.9417    1.0000 </r>
       <r>   -1.2922    1.0000 </r>
       <r>   -0.7444    0.6275 </r>
       <r>   -0.7081    0.3263 </r>
       <r>   -0.6131   -0.0348 </r>
       <r>    0.3319   -0.0000 </r>
       <r>    0.3880   -0.0000 </r>
       <r>    1.1613   -0.0000 </r>
       <r>    1.4921    0.0000 </r>
       <r>    1.6189    0.0000 </r>
       <r>    1.7816    0.0000 </r>
       <r>    3.0029    0.0000 </r>
       <r>    3.2085    0.0000 </r>
       <r>    3.7533    0.0000 </r>
       <r>    3.7606    0.0000 </r>
       <r>    4.6769    0.0000 </r>
       <r>    4.9887    0.0000 </r>
       <r>    5.7592    0.0000 </r>
       <r>    6.2156    0.0000 </r>
       <r>    6.7274    0.0000 </r>
       <r>    7.6538    0.0000 </r>
       <r>    7.9681    0.0000 </r>
       <r>    8.3800    0.0000 </r>
       <r>    8.6580    0.0000 </r>
       <r>    8.7758    0.0000 </r>
       <r>    9.4921    0.0000 </r>
       <r>    9.5321    0.0000 </r>
       <r>   10.6090    0.0000 </r>
       <r>   10.7036    0.0000 </r>
       <r>   10.8237    0.0000 </r>
       <r>   11.1109    0.0000 </r>
       <r>   12.0532    0.0000 </r>
       <r>   12.2147    0.0000 </r>
       <r>   12.4832    0.0000 </r>
       <r>   13.1182    0.0000 </r>
       <r>   13.3259    0.0000 </r>
       <r>   13.5544    0.0000 </r>
       <r>   13.6285    0.0000 </r>
       <r>   13.6965    0.0000 </r>
       <r>   13.9457    0.0000 </r>
       <r>   14.9050    0.0000 </r>
       <r>   15.0481    0.0000 </r>
       <r>   15.5987    0.0000 </r>
       <r>   16.0661    0.0000 </r>
       <r>   16.6830    0.0000 </r>
       <r>   17.0021    0.0000 </r>
       <r>   17.1244    0.0000 </r>
       <r>   17.4131    0.0000 </r>
       <r>   17.8519    0.0000 </r>
       <r>   17.9706    0.0000 </r>
       <r>   18.1692    0.0000 </r>
       <r>   18.1772    0.0000 </r>
      </set>
      <set comment="kpoint 5">
       <r>  -57.6563    1.0000 </r>
       <r>  -57.6277    1.0000 </r>
       <r>  -34.0987    1.0000 </r>
       <r>  -34.0464    1.0000 </r>
       <r>  -33.9757    1.0000 </r>
       <r>  -33.8254    1.0000 </r>
       <r>  -33.5599    1.0000 </r>
       <r>  -33.5376    1.0000 </r>
       <r>   -8.2037    1.0000 </r>
       <r>   -6.0081    1.0000 </r>
       <r>   -3.7715    1.0000 </r>
       <r>   -2.2296    1.0000 </r>
       <r>   -1.6995    1.0000 </r>
       <r>   -1.4865    1.0000 </r>
       <r>   -1.1232    1.0000 </r>
       <r>   -0.6415   -0.0072 </r>
       <r>   -0.3159   -0.0000 </r>
       <r>    0.2569   -0.0000 </r>
       <r>    0.6020   -0.0000 </r>
       <r>    1.0825   -0.0000 </r>
       <r>    1.2798    0.0000 </r>
       <r>    1.5634    0.0000 </r>
       <r>    1.7583    0.0000 </r>
       <r>    3.3275    0.0000 </r>
       <r>    3.5228    0.0000 </r>
       <r>    3.7870    0.0000 </r>
       <r>    4.0198    0.0000 </r>
       <r>    4.9123    0.0000 </r>
       <r>    5.1829    0.0000 </r>
       <r>    6.0152    0.0000 </r>
       <r>    6.1919    0.0000 </r>
       <r>    6.8554    0.0000 </r>
       <r>    7.2441    0.0000 </r>
       <r>    7.6106    0.0000 </r>
       <r>    8.1167    0.0000 </r>
       <r>    8.2497    0.0000 </r>
       <r>    8.7391    0.0000 </r>
       <r>    8.9439    0.0000 </r>
       <r>    9.0148    0.0000 </r>
       <r>   10.8430    0.0000 </r>
       <r>   11.2547    0.0000 </r>
       <r>   11.5817    0.0000 </r>
       <r>   11.9671    0.0000 </r>
       <r>   12.0518    0.0000 </r>
       <r>   12.3380    0.0000 </r>
       <r>   12.4729    0.0000 </r>
       <r>   12.7391    0.0000 </r>
       <r>   13.1985    0.0000 </r>
       <r>   13.2835    0.0000 </r>
       <r>   13.7855    0.0000 </r>
       <r>   13.8788    0.0000 </r>
       <r>   14.2671    0.0000 </r>
       <r>   15.0975    0.0000 </r>
       <r>   15.3118    0.0000 </r>
       <r>   15.4859    0.0000 </r>
       <r>   16.0046    0.0000 </r>
       <r>   16.2612    0.0000 </r>
       <r>   16.5911    0.0000 </r>
       <r>   16.9164    0.0000 </r>
       <r>   17.3226    0.0000 </r>
       <r>   17.6193    0.0000 </r>
       <r>   17.7047    0.0000 </r>
       <r>   18.0893    0.0000 </r>
       <r>   18.3662    0.0000 </r>
      </set>
      <set comment="kpoint 6">
       <r>  -57.6561    1.0000 </r>
       <r>  -57.6278    1.0000 </r>
       <r>  -34.0981    1.0000 </r>
       <r>  -34.0503    1.0000 </r>
       <r>  -33.9739    1.0000 </r>
       <r>  -33.8257    1.0000 </r>
       <r>  -33.5596    1.0000 </r>
       <r>  -33.5378    1.0000 </r>
       <r>   -7.6820    1.0000 </r>
       <r>   -6.1496    1.0000 </r>
       <r>   -4.1677    1.0000 </r>
       <r>   -3.1934    1.0000 </r>
       <r>   -1.8909    1.0000 </r>
       <r>   -1.1918    1.0000 </r>
       <r>   -1.0612    1.0000 </r>
       <r>   -0.5723   -0.0246 </r>
       <r>   -0.0314   -0.0000 </r>
       <r>    0.2414   -0.0000 </r>
       <r>    0.6892   -0.0000 </r>
       <r>    0.8960   -0.0000 </r>
       <r>    1.0821   -0.0000 </r>
       <r>    1.7355    0.0000 </r>
       <r>    1.8330    0.0000 </r>
       <r>    2.7787    0.0000 </r>
       <r>    3.7137    0.0000 </r>
       <r>    4.2903    0.0000 </r>
       <r>    4.7497    0.0000 </r>
       <r>    5.4805    0.0000 </r>
       <r>    5.5674    0.0000 </r>
       <r>    5.8276    0.0000 </r>
       <r>    6.1583    0.0000 </r>
       <r>    6.6427    0.0000 </r>
       <r>    7.1000    0.0000 </r>
       <r>    7.1651    0.0000 </r>
       <r>    8.2372    0.0000 </r>
       <r>    8.4480    0.0000 </r>
       <r>    8.5383    0.0000 </r>
       <r>    9.0371    0.0000 </r>
       <r>    9.5591    0.0000 </r>
       <r>   10.0195    0.0000 </r>
       <r>   10.5651    0.0000 </r>
       <r>   10.9811    0.0000 </r>
       <r>   11.3820    0.0000 </r>
       <r>   11.6842    0.0000 </r>
       <r>   12.2110    0.0000 </r>
       <r>   12.7698    0.0000 </r>
       <r>   13.0526    0.0000 </r>
       <r>   13.6989    0.0000 </r>
       <r>   13.8338    0.0000 </r>
       <r>   14.0079    0.0000 </r>
       <r>   14.6916    0.0000 </r>
       <r>   14.8853    0.0000 </r>
       <r>   15.1999    0.0000 </r>
       <r>   15.3462    0.0000 </r>
       <r>   15.6055    0.0000 </r>
       <r>   15.8206    0.0000 </r>
       <r>   16.7158    0.0000 </r>
       <r>   16.7730    0.0000 </r>
       <r>   17.1272    0.0000 </r>
       <r>   17.7005    0.0000 </r>
       <r>   17.9800    0.0000 </r>
       <r>   18.2502    0.0000 </r>
       <r>   18.6414    0.0000 </r>
       <r>   18.8031    0.0000 </r>
      </set>
      <set comment="kpoint 7">
       <r>  -57.6399    1.0000 </r>
       <r>  -57.6115    1.0000 </r>
       <r>  -34.0828    1.0000 </r>
       <r>  -34.0283    1.0000 </r>
       <r>  -33.9609    1.0000 </r>
       <r>  -33.8114    1.0000 </r>
       <r>  -33.6971    1.0000 </r>
       <r>  -33.6707    1.0000 </r>
       <r>   -7.7376    1.0000 </r>
       <r>   -5.4757    1.0000 </r>
       <r>   -2.5386    1.0000 </r>
       <r>   -2.0053    1.0000 </r>
       <r>   -1.8512    1.0000 </r>
       <r>   -0.9909    1.0007 </r>
       <r>   -0.8871    1.0240 </r>
       <r>   -0.6942    0.2237 </r>
       <r>   -0.0674   -0.0000 </r>
       <r>    0.2622   -0.0000 </r>
       <r>    0.3816   -0.0000 </r>
       <r>    1.1099   -0.0000 </r>
       <r>    1.2921    0.0000 </r>
       <r>    1.9574    0.0000 </r>
       <r>    2.3372    0.0000 </r>
       <r>    3.3938    0.0000 </r>
       <r>    3.6908    0.0000 </r>
       <r>    3.9967    0.0000 </r>
       <r>    4.2404    0.0000 </r>
       <r>    4.4106    0.0000 </r>
       <r>    5.0838    0.0000 </r>
       <r>    5.6401    0.0000 </r>
       <r>    5.6641    0.0000 </r>
       <r>    6.4025    0.0000 </r>
       <r>    7.0052    0.0000 </r>
       <r>    8.5607    0.0000 </r>
       <r>    8.6403    0.0000 </r>
       <r>    9.2807    0.0000 </r>
       <r>    9.3036    0.0000 </r>
       <r>    9.6267    0.0000 </r>
       <r>   10.1125    0.0000 </r>
       <r>   10.2397    0.0000 </r>
       <r>   10.5552    0.0000 </r>
       <r>   10.6470    0.0000 </r>
       <r>   11.2940    0.0000 </r>
       <r>   11.4915    0.0000 </r>
       <r>   11.5687    0.0000 </r>
       <r>   11.6700    0.0000 </r>
       <r>   12.3770    0.0000 </r>
       <r>   12.7937    0.0000 </r>
       <r>   12.8245    0.0000 </r>
       <r>   13.4695    0.0000 </r>
       <r>   14.3035    0.0000 </r>
       <r>   14.3568    0.0000 </r>
       <r>   14.4379    0.0000 </r>
       <r>   14.5165    0.0000 </r>
       <r>   14.9460    0.0000 </r>
       <r>   14.9475    0.0000 </r>
       <r>   15.7409    0.0000 </r>
       <r>   15.9684    0.0000 </r>
       <r>   16.4561    0.0000 </r>
       <r>   16.6074    0.0000 </r>
       <r>   16.7531    0.0000 </r>
       <r>   17.6533    0.0000 </r>
       <r>   17.6596    0.0000 </r>
       <r>   17.7332    0.0000 </r>
      </set>
      <set comment="kpoint 8">
       <r>  -57.6398    1.0000 </r>
       <r>  -57.6116    1.0000 </r>
       <r>  -34.0824    1.0000 </r>
       <r>  -34.0306    1.0000 </r>
       <r>  -33.9596    1.0000 </r>
       <r>  -33.8116    1.0000 </r>
       <r>  -33.6969    1.0000 </r>
       <r>  -33.6708    1.0000 </r>
       <r>   -7.5391    1.0000 </r>
       <r>   -5.4198    1.0000 </r>
       <r>   -3.1991    1.0000 </r>
       <r>   -1.9060    1.0000 </r>
       <r>   -1.6746    1.0000 </r>
       <r>   -0.9693    1.0018 </r>
       <r>   -0.9206    1.0104 </r>
       <r>   -0.7797    0.8730 </r>
       <r>   -0.0472   -0.0000 </r>
       <r>    0.1204   -0.0000 </r>
       <r>    0.4101   -0.0000 </r>
       <r>    0.9672   -0.0000 </r>
       <r>    1.3166    0.0000 </r>
       <r>    1.5290    0.0000 </r>
       <r>    1.9728    0.0000 </r>
       <r>    3.7997    0.0000 </r>
       <r>    4.0346    0.0000 </r>
       <r>    4.2445    0.0000 </r>
       <r>    4.4844    0.0000 </r>
       <r>    4.6565    0.0000 </r>
       <r>    5.4787    0.0000 </r>
       <r>    5.7929    0.0000 </r>
       <r>    6.0061    0.0000 </r>
       <r>    6.5340    0.0000 </r>
       <r>    7.2272    0.0000 </r>
       <r>    7.9138    0.0000 </r>
       <r>    8.1186    0.0000 </r>
       <r>    8.8489    0.0000 </r>
       <r>    9.1759    0.0000 </r>
       <r>    9.3693    0.0000 </r>
       <r>    9.4810    0.0000 </r>
       <r>    9.5602    0.0000 </r>
       <r>    9.9091    0.0000 </r>
       <r>   11.0766    0.0000 </r>
       <r>   11.6359    0.0000 </r>
       <r>   11.7239    0.0000 </r>
       <r>   12.1909    0.0000 </r>
       <r>   12.4781    0.0000 </r>
       <r>   12.9268    0.0000 </r>
       <r>   12.9847    0.0000 </r>
       <r>   13.1563    0.0000 </r>
       <r>   13.8770    0.0000 </r>
       <r>   14.0322    0.0000 </r>
       <r>   14.2254    0.0000 </r>
       <r>   14.3802    0.0000 </r>
       <r>   14.5655    0.0000 </r>
       <r>   15.0458    0.0000 </r>
       <r>   15.4002    0.0000 </r>
       <r>   15.7935    0.0000 </r>
       <r>   15.9787    0.0000 </r>
       <r>   16.4776    0.0000 </r>
       <r>   16.6271    0.0000 </r>
       <r>   16.9172    0.0000 </r>
       <r>   17.0737    0.0000 </r>
       <r>   17.1026    0.0000 </r>
       <r>   17.3732    0.0000 </r>
      </set>
      <set comment="kpoint 9">
       <r>  -57.6397    1.0000 </r>
       <r>  -57.6117    1.0000 </r>
       <r>  -34.0818    1.0000 </r>
       <r>  -34.0341    1.0000 </r>
       <r>  -33.9578    1.0000 </r>
       <r>  -33.8119    1.0000 </r>
       <r>  -33.6965    1.0000 </r>
       <r>  -33.6711    1.0000 </r>
       <r>   -7.0832    1.0000 </r>
       <r>   -5.5811    1.0000 </r>
       <r>   -3.4475    1.0000 </r>
       <r>   -2.5809    1.0000 </r>
       <r>   -1.5319    1.0000 </r>
       <r>   -0.9170    1.0116 </r>
       <r>   -0.7747    0.8451 </r>
       <r>   -0.5793   -0.0277 </r>
       <r>   -0.3389   -0.0000 </r>
       <r>    0.0422   -0.0000 </r>
       <r>    0.1865   -0.0000 </r>
       <r>    0.6511   -0.0000 </r>
       <r>    1.0649   -0.0000 </r>
       <r>    1.5911    0.0000 </r>
       <r>    2.2932    0.0000 </r>
       <r>    3.1593    0.0000 </r>
       <r>    4.3021    0.0000 </r>
       <r>    4.6258    0.0000 </r>
       <r>    5.0563    0.0000 </r>
       <r>    5.3909    0.0000 </r>
       <r>    6.0774    0.0000 </r>
       <r>    6.2142    0.0000 </r>
       <r>    6.3962    0.0000 </r>
       <r>    6.5253    0.0000 </r>
       <r>    7.0425    0.0000 </r>
       <r>    7.6018    0.0000 </r>
       <r>    7.8708    0.0000 </r>
       <r>    8.5972    0.0000 </r>
       <r>    8.6576    0.0000 </r>
       <r>    9.0965    0.0000 </r>
       <r>    9.4337    0.0000 </r>
       <r>    9.5601    0.0000 </r>
       <r>   10.0269    0.0000 </r>
       <r>   10.6852    0.0000 </r>
       <r>   10.8447    0.0000 </r>
       <r>   11.4003    0.0000 </r>
       <r>   11.5988    0.0000 </r>
       <r>   12.2731    0.0000 </r>
       <r>   12.5485    0.0000 </r>
       <r>   13.5608    0.0000 </r>
       <r>   13.9142    0.0000 </r>
       <r>   14.0325    0.0000 </r>
       <r>   14.3245    0.0000 </r>
       <r>   14.6544    0.0000 </r>
       <r>   14.8772    0.0000 </r>
       <r>   15.4824    0.0000 </r>
       <r>   15.6323    0.0000 </r>
       <r>   15.6760    0.0000 </r>
       <r>   16.1128    0.0000 </r>
       <r>   16.2024    0.0000 </r>
       <r>   16.5371    0.0000 </r>
       <r>   16.7659    0.0000 </r>
       <r>   17.0583    0.0000 </r>
       <r>   17.3280    0.0000 </r>
       <r>   17.5745    0.0000 </r>
       <r>   17.6982    0.0000 </r>
      </set>
      <set comment="kpoint 10">
       <r>  -57.6211    1.0000 </r>
       <r>  -57.5930    1.0000 </r>
       <r>  -34.0642    1.0000 </r>
       <r>  -34.0105    1.0000 </r>
       <r>  -33.9424    1.0000 </r>
       <r>  -33.8504    1.0000 </r>
       <r>  -33.8200    1.0000 </r>
       <r>  -33.7954    1.0000 </r>
       <r>   -6.6448    1.0000 </r>
       <r>   -4.4847    1.0000 </r>
       <r>   -2.5346    1.0000 </r>
       <r>   -2.2515    1.0000 </r>
       <r>   -1.8573    1.0000 </r>
       <r>   -1.0226    1.0001 </r>
       <r>   -1.0189    1.0002 </r>
       <r>   -0.6096   -0.0353 </r>
       <r>    0.1743   -0.0000 </r>
       <r>    0.5928   -0.0000 </r>
       <r>    0.8681   -0.0000 </r>
       <r>    1.1484   -0.0000 </r>
       <r>    1.6219    0.0000 </r>
       <r>    2.6990    0.0000 </r>
       <r>    2.9397    0.0000 </r>
       <r>    2.9697    0.0000 </r>
       <r>    3.4062    0.0000 </r>
       <r>    4.1667    0.0000 </r>
       <r>    4.4939    0.0000 </r>
       <r>    4.9648    0.0000 </r>
       <r>    5.3781    0.0000 </r>
       <r>    6.1713    0.0000 </r>
       <r>    6.3120    0.0000 </r>
       <r>    6.7748    0.0000 </r>
       <r>    7.3327    0.0000 </r>
       <r>    8.0916    0.0000 </r>
       <r>    8.1593    0.0000 </r>
       <r>    8.4512    0.0000 </r>
       <r>    9.3615    0.0000 </r>
       <r>    9.8242    0.0000 </r>
       <r>    9.9372    0.0000 </r>
       <r>   10.3348    0.0000 </r>
       <r>   10.4395    0.0000 </r>
       <r>   10.7300    0.0000 </r>
       <r>   11.3017    0.0000 </r>
       <r>   11.3250    0.0000 </r>
       <r>   11.7478    0.0000 </r>
       <r>   11.8787    0.0000 </r>
       <r>   12.4275    0.0000 </r>
       <r>   12.4657    0.0000 </r>
       <r>   12.6063    0.0000 </r>
       <r>   12.7312    0.0000 </r>
       <r>   13.1725    0.0000 </r>
       <r>   13.1877    0.0000 </r>
       <r>   13.4953    0.0000 </r>
       <r>   13.8280    0.0000 </r>
       <r>   14.1048    0.0000 </r>
       <r>   14.2914    0.0000 </r>
       <r>   15.4089    0.0000 </r>
       <r>   15.5372    0.0000 </r>
       <r>   15.6692    0.0000 </r>
       <r>   15.7473    0.0000 </r>
       <r>   16.0034    0.0000 </r>
       <r>   16.1408    0.0000 </r>
       <r>   16.6826    0.0000 </r>
       <r>   16.8615    0.0000 </r>
      </set>
      <set comment="kpoint 11">
       <r>  -57.6210    1.0000 </r>
       <r>  -57.5931    1.0000 </r>
       <r>  -34.0638    1.0000 </r>
       <r>  -34.0125    1.0000 </r>
       <r>  -33.9412    1.0000 </r>
       <r>  -33.8500    1.0000 </r>
       <r>  -33.8202    1.0000 </r>
       <r>  -33.7955    1.0000 </r>
       <r>   -6.4851    1.0000 </r>
       <r>   -4.5138    1.0000 </r>
       <r>   -2.6180    1.0000 </r>
       <r>   -2.1641    1.0000 </r>
       <r>   -1.7982    1.0000 </r>
       <r>   -1.2116    1.0000 </r>
       <r>   -0.7874    0.9121 </r>
       <r>   -0.5157   -0.0051 </r>
       <r>   -0.0759   -0.0000 </r>
       <r>    0.4268   -0.0000 </r>
       <r>    0.8286   -0.0000 </r>
       <r>    0.9843   -0.0000 </r>
       <r>    1.3179    0.0000 </r>
       <r>    2.0895    0.0000 </r>
       <r>    2.3848    0.0000 </r>
       <r>    3.3609    0.0000 </r>
       <r>    3.4944    0.0000 </r>
       <r>    4.4800    0.0000 </r>
       <r>    5.0994    0.0000 </r>
       <r>    5.3989    0.0000 </r>
       <r>    5.6896    0.0000 </r>
       <r>    6.4011    0.0000 </r>
       <r>    6.5782    0.0000 </r>
       <r>    6.9349    0.0000 </r>
       <r>    7.4731    0.0000 </r>
       <r>    7.7698    0.0000 </r>
       <r>    8.1622    0.0000 </r>
       <r>    8.5402    0.0000 </r>
       <r>    8.7787    0.0000 </r>
       <r>    9.2551    0.0000 </r>
       <r>    9.5652    0.0000 </r>
       <r>   10.0016    0.0000 </r>
       <r>   10.4672    0.0000 </r>
       <r>   10.6102    0.0000 </r>
       <r>   10.8030    0.0000 </r>
       <r>   11.1961    0.0000 </r>
       <r>   11.6404    0.0000 </r>
       <r>   12.1444    0.0000 </r>
       <r>   12.5559    0.0000 </r>
       <r>   12.7253    0.0000 </r>
       <r>   13.2923    0.0000 </r>
       <r>   13.3632    0.0000 </r>
       <r>   13.5893    0.0000 </r>
       <r>   13.8150    0.0000 </r>
       <r>   14.0065    0.0000 </r>
       <r>   14.0348    0.0000 </r>
       <r>   14.3536    0.0000 </r>
       <r>   14.4715    0.0000 </r>
       <r>   14.9156    0.0000 </r>
       <r>   15.2500    0.0000 </r>
       <r>   15.3933    0.0000 </r>
       <r>   15.6690    0.0000 </r>
       <r>   15.7138    0.0000 </r>
       <r>   16.3463    0.0000 </r>
       <r>   16.6081    0.0000 </r>
       <r>   16.7381    0.0000 </r>
      </set>
      <set comment="kpoint 12">
       <r>  -57.6209    1.0000 </r>
       <r>  -57.5932    1.0000 </r>
       <r>  -34.0632    1.0000 </r>
       <r>  -34.0157    1.0000 </r>
       <r>  -33.9394    1.0000 </r>
       <r>  -33.8494    1.0000 </r>
       <r>  -33.8205    1.0000 </r>
       <r>  -33.7957    1.0000 </r>
       <r>   -6.1446    1.0000 </r>
       <r>   -4.7265    1.0000 </r>
       <r>   -2.4541    1.0000 </r>
       <r>   -1.9066    1.0000 </r>
       <r>   -1.7440    1.0000 </r>
       <r>   -1.3616    1.0000 </r>
       <r>   -0.7729    0.8342 </r>
       <r>   -0.5634   -0.0204 </r>
       <r>   -0.4283   -0.0001 </r>
       <r>   -0.2000   -0.0000 </r>
       <r>    0.5045   -0.0000 </r>
       <r>    0.8277   -0.0000 </r>
       <r>    1.2000   -0.0000 </r>
       <r>    1.7861    0.0000 </r>
       <r>    2.7566    0.0000 </r>
       <r>    3.3390    0.0000 </r>
       <r>    3.5331    0.0000 </r>
       <r>    4.5036    0.0000 </r>
       <r>    5.2613    0.0000 </r>
       <r>    6.1751    0.0000 </r>
       <r>    6.2879    0.0000 </r>
       <r>    6.5612    0.0000 </r>
       <r>    6.8383    0.0000 </r>
       <r>    7.1203    0.0000 </r>
       <r>    7.4389    0.0000 </r>
       <r>    7.6281    0.0000 </r>
       <r>    8.1085    0.0000 </r>
       <r>    8.2863    0.0000 </r>
       <r>    8.6899    0.0000 </r>
       <r>    9.0164    0.0000 </r>
       <r>    9.4560    0.0000 </r>
       <r>    9.7689    0.0000 </r>
       <r>   10.3364    0.0000 </r>
       <r>   10.5689    0.0000 </r>
       <r>   11.0305    0.0000 </r>
       <r>   11.3752    0.0000 </r>
       <r>   12.0580    0.0000 </r>
       <r>   12.0935    0.0000 </r>
       <r>   12.2401    0.0000 </r>
       <r>   12.4066    0.0000 </r>
       <r>   12.6364    0.0000 </r>
       <r>   13.0927    0.0000 </r>
       <r>   13.3879    0.0000 </r>
       <r>   13.8285    0.0000 </r>
       <r>   13.9489    0.0000 </r>
       <r>   14.5809    0.0000 </r>
       <r>   14.6307    0.0000 </r>
       <r>   14.9037    0.0000 </r>
       <r>   14.9877    0.0000 </r>
       <r>   15.0512    0.0000 </r>
       <r>   15.8159    0.0000 </r>
       <r>   16.0738    0.0000 </r>
       <r>   16.1211    0.0000 </r>
       <r>   16.4325    0.0000 </r>
       <r>   16.6162    0.0000 </r>
       <r>   16.9462    0.0000 </r>
      </set>
      <set comment="kpoint 13">
       <r>  -57.6088    1.0000 </r>
       <r>  -57.5809    1.0000 </r>
       <r>  -34.0520    1.0000 </r>
       <r>  -33.9988    1.0000 </r>
       <r>  -33.9490    1.0000 </r>
       <r>  -33.9303    1.0000 </r>
       <r>  -33.9156    1.0000 </r>
       <r>  -33.7854    1.0000 </r>
       <r>   -5.2254    1.0000 </r>
       <r>   -3.5698    1.0000 </r>
       <r>   -3.2732    1.0000 </r>
       <r>   -2.6016    1.0000 </r>
       <r>   -2.2131    1.0000 </r>
       <r>   -1.3936    1.0000 </r>
       <r>   -1.2354    1.0000 </r>
       <r>   -0.4882   -0.0017 </r>
       <r>    0.4007   -0.0000 </r>
       <r>    0.7836   -0.0000 </r>
       <r>    0.9106   -0.0000 </r>
       <r>    1.3072    0.0000 </r>
       <r>    2.6918    0.0000 </r>
       <r>    2.9742    0.0000 </r>
       <r>    3.0619    0.0000 </r>
       <r>    3.5816    0.0000 </r>
       <r>    3.7305    0.0000 </r>
       <r>    4.4183    0.0000 </r>
       <r>    4.8877    0.0000 </r>
       <r>    5.1185    0.0000 </r>
       <r>    5.7856    0.0000 </r>
       <r>    6.5156    0.0000 </r>
       <r>    6.5991    0.0000 </r>
       <r>    7.1282    0.0000 </r>
       <r>    7.2814    0.0000 </r>
       <r>    7.7415    0.0000 </r>
       <r>    7.8211    0.0000 </r>
       <r>    8.3749    0.0000 </r>
       <r>    8.8131    0.0000 </r>
       <r>    9.1044    0.0000 </r>
       <r>    9.5668    0.0000 </r>
       <r>    9.5716    0.0000 </r>
       <r>   10.2659    0.0000 </r>
       <r>   10.7410    0.0000 </r>
       <r>   11.0263    0.0000 </r>
       <r>   11.4120    0.0000 </r>
       <r>   11.4957    0.0000 </r>
       <r>   11.8552    0.0000 </r>
       <r>   12.0373    0.0000 </r>
       <r>   12.3291    0.0000 </r>
       <r>   12.9250    0.0000 </r>
       <r>   13.0989    0.0000 </r>
       <r>   13.2891    0.0000 </r>
       <r>   13.4821    0.0000 </r>
       <r>   14.0392    0.0000 </r>
       <r>   14.1066    0.0000 </r>
       <r>   14.1457    0.0000 </r>
       <r>   14.3320    0.0000 </r>
       <r>   14.3618    0.0000 </r>
       <r>   14.6022    0.0000 </r>
       <r>   15.0793    0.0000 </r>
       <r>   15.0811    0.0000 </r>
       <r>   15.4118    0.0000 </r>
       <r>   15.7885    0.0000 </r>
       <r>   16.1109    0.0000 </r>
       <r>   16.3155    0.0000 </r>
      </set>
      <set comment="kpoint 14">
       <r>  -57.6087    1.0000 </r>
       <r>  -57.5810    1.0000 </r>
       <r>  -34.0516    1.0000 </r>
       <r>  -34.0006    1.0000 </r>
       <r>  -33.9486    1.0000 </r>
       <r>  -33.9291    1.0000 </r>
       <r>  -33.9159    1.0000 </r>
       <r>  -33.7855    1.0000 </r>
       <r>   -5.1470    1.0000 </r>
       <r>   -3.5555    1.0000 </r>
       <r>   -3.4005    1.0000 </r>
       <r>   -2.5347    1.0000 </r>
       <r>   -1.8763    1.0000 </r>
       <r>   -1.2854    1.0000 </r>
       <r>   -0.9359    1.0064 </r>
       <r>   -0.5475   -0.0138 </r>
       <r>    0.2200   -0.0000 </r>
       <r>    0.6121   -0.0000 </r>
       <r>    0.7967   -0.0000 </r>
       <r>    1.2264   -0.0000 </r>
       <r>    1.5290    0.0000 </r>
       <r>    2.6943    0.0000 </r>
       <r>    2.8253    0.0000 </r>
       <r>    3.1478    0.0000 </r>
       <r>    4.0994    0.0000 </r>
       <r>    4.5792    0.0000 </r>
       <r>    5.0839    0.0000 </r>
       <r>    5.3814    0.0000 </r>
       <r>    5.7295    0.0000 </r>
       <r>    6.7662    0.0000 </r>
       <r>    7.0453    0.0000 </r>
       <r>    7.2169    0.0000 </r>
       <r>    7.5009    0.0000 </r>
       <r>    8.0196    0.0000 </r>
       <r>    8.4371    0.0000 </r>
       <r>    8.6179    0.0000 </r>
       <r>    8.9466    0.0000 </r>
       <r>    9.4122    0.0000 </r>
       <r>    9.6293    0.0000 </r>
       <r>    9.8775    0.0000 </r>
       <r>   10.0828    0.0000 </r>
       <r>   10.4649    0.0000 </r>
       <r>   10.6913    0.0000 </r>
       <r>   11.1090    0.0000 </r>
       <r>   11.3749    0.0000 </r>
       <r>   11.6500    0.0000 </r>
       <r>   11.9971    0.0000 </r>
       <r>   12.1508    0.0000 </r>
       <r>   12.3138    0.0000 </r>
       <r>   12.4555    0.0000 </r>
       <r>   12.9064    0.0000 </r>
       <r>   13.2191    0.0000 </r>
       <r>   13.7865    0.0000 </r>
       <r>   14.0088    0.0000 </r>
       <r>   14.2608    0.0000 </r>
       <r>   14.3089    0.0000 </r>
       <r>   14.4847    0.0000 </r>
       <r>   15.0014    0.0000 </r>
       <r>   15.0829    0.0000 </r>
       <r>   15.3384    0.0000 </r>
       <r>   15.5377    0.0000 </r>
       <r>   15.9686    0.0000 </r>
       <r>   16.1786    0.0000 </r>
       <r>   16.4847    0.0000 </r>
      </set>
      <set comment="kpoint 15">
       <r>  -57.6086    1.0000 </r>
       <r>  -57.5811    1.0000 </r>
       <r>  -34.0510    1.0000 </r>
       <r>  -34.0036    1.0000 </r>
       <r>  -33.9479    1.0000 </r>
       <r>  -33.9273    1.0000 </r>
       <r>  -33.9162    1.0000 </r>
       <r>  -33.7857    1.0000 </r>
       <r>   -5.0321    1.0000 </r>
       <r>   -3.8242    1.0000 </r>
       <r>   -3.0727    1.0000 </r>
       <r>   -2.1334    1.0000 </r>
       <r>   -1.6772    1.0000 </r>
       <r>   -1.0395    1.0001 </r>
       <r>   -0.7288    0.4974 </r>
       <r>   -0.3492   -0.0000 </r>
       <r>   -0.2711   -0.0000 </r>
       <r>   -0.0426   -0.0000 </r>
       <r>    0.5794   -0.0000 </r>
       <r>    0.6618   -0.0000 </r>
       <r>    1.4498    0.0000 </r>
       <r>    2.0716    0.0000 </r>
       <r>    2.3808    0.0000 </r>
       <r>    2.7400    0.0000 </r>
       <r>    4.2192    0.0000 </r>
       <r>    5.0057    0.0000 </r>
       <r>    5.0399    0.0000 </r>
       <r>    5.3704    0.0000 </r>
       <r>    6.3930    0.0000 </r>
       <r>    6.6220    0.0000 </r>
       <r>    7.4345    0.0000 </r>
       <r>    7.5376    0.0000 </r>
       <r>    7.8297    0.0000 </r>
       <r>    8.4050    0.0000 </r>
       <r>    8.7837    0.0000 </r>
       <r>    8.9992    0.0000 </r>
       <r>    9.1100    0.0000 </r>
       <r>    9.5377    0.0000 </r>
       <r>    9.8400    0.0000 </r>
       <r>   10.1469    0.0000 </r>
       <r>   10.2754    0.0000 </r>
       <r>   10.5317    0.0000 </r>
       <r>   10.7940    0.0000 </r>
       <r>   10.8106    0.0000 </r>
       <r>   11.0710    0.0000 </r>
       <r>   11.3509    0.0000 </r>
       <r>   11.8079    0.0000 </r>
       <r>   12.1015    0.0000 </r>
       <r>   12.2477    0.0000 </r>
       <r>   12.3885    0.0000 </r>
       <r>   12.5572    0.0000 </r>
       <r>   13.0771    0.0000 </r>
       <r>   13.2718    0.0000 </r>
       <r>   13.4555    0.0000 </r>
       <r>   13.6804    0.0000 </r>
       <r>   14.0925    0.0000 </r>
       <r>   14.3929    0.0000 </r>
       <r>   14.7486    0.0000 </r>
       <r>   14.9056    0.0000 </r>
       <r>   15.2505    0.0000 </r>
       <r>   15.5130    0.0000 </r>
       <r>   16.1332    0.0000 </r>
       <r>   16.3747    0.0000 </r>
       <r>   16.6706    0.0000 </r>
      </set>
     </set>
    </set>
   </array>
  </eigenvalues>
  <separator name="orbital magnetization" >
   <v name="MAGDIPOLOUT">      0.00000000      0.00000000      0.00000000</v>
  </separator>
  <dos>
   <i name="efermi">     -0.72912518 </i>
   <total>
    <array>
     <dimension dim="1">gridpoints</dimension>
     <dimension dim="2">spin</dimension>
     <field>energy</field>
     <field>total</field>
     <field>integrated</field>
     <set>
      <set comment="spin 1">
       <r>   -61.4862     0.0000     0.0000 </r>
       <r>   -61.2058     0.0000     0.0000 </r>
       <r>   -60.9254     0.0000     0.0000 </r>
       <r>   -60.6451     0.0000     0.0000 </r>
       <r>   -60.3647     0.0000     0.0000 </r>
       <r>   -60.0843     0.0000     0.0000 </r>
       <r>   -59.8039     0.0000     0.0000 </r>
       <r>   -59.5236     0.0000     0.0000 </r>
       <r>   -59.2432     0.0000     0.0000 </r>
       <r>   -58.9628     0.0000     0.0000 </r>
       <r>   -58.6824    -0.0000    -0.0000 </r>
       <r>   -58.4021    -0.0000    -0.0000 </r>
       <r>   -58.1217    -0.0000    -0.0000 </r>
       <r>   -57.8413    -0.0744    -0.0209 </r>
       <r>   -57.5609    12.8016     3.5684 </r>
       <r>   -57.2806     1.5397     4.0001 </r>
       <r>   -57.0002    -0.0003     4.0000 </r>
       <r>   -56.7198     0.0000     4.0000 </r>
       <r>   -56.4394     0.0000     4.0000 </r>
       <r>   -56.1591     0.0000     4.0000 </r>
       <r>   -55.8787     0.0000     4.0000 </r>
       <r>   -55.5983     0.0000     4.0000 </r>
       <r>   -55.3179     0.0000     4.0000 </r>
       <r>   -55.0376     0.0000     4.0000 </r>
       <r>   -54.7572     0.0000     4.0000 </r>
       <r>   -54.4768     0.0000     4.0000 </r>
       <r>   -54.1964     0.0000     4.0000 </r>
       <r>   -53.9160     0.0000     4.0000 </r>
       <r>   -53.6357     0.0000     4.0000 </r>
       <r>   -53.3553     0.0000     4.0000 </r>
       <r>   -53.0749     0.0000     4.0000 </r>
       <r>   -52.7945     0.0000     4.0000 </r>
       <r>   -52.5142     0.0000     4.0000 </r>
       <r>   -52.2338     0.0000     4.0000 </r>
       <r>   -51.9534     0.0000     4.0000 </r>
       <r>   -51.6730     0.0000     4.0000 </r>
       <r>   -51.3927     0.0000     4.0000 </r>
       <r>   -51.1123     0.0000     4.0000 </r>
       <r>   -50.8319     0.0000     4.0000 </r>
       <r>   -50.5515     0.0000     4.0000 </r>
       <r>   -50.2712     0.0000     4.0000 </r>
       <r>   -49.9908     0.0000     4.0000 </r>
       <r>   -49.7104     0.0000     4.0000 </r>
       <r>   -49.4300     0.0000     4.0000 </r>
       <r>   -49.1497     0.0000     4.0000 </r>
       <r>   -48.8693     0.0000     4.0000 </r>
       <r>   -48.5889     0.0000     4.0000 </r>
       <r>   -48.3085     0.0000     4.0000 </r>
       <r>   -48.0282     0.0000     4.0000 </r>
       <r>   -47.7478     0.0000     4.0000 </r>
       <r>   -47.4674     0.0000     4.0000 </r>
       <r>   -47.1870     0.0000     4.0000 </r>
       <r>   -46.9067     0.0000     4.0000 </r>
       <r>   -46.6263     0.0000     4.0000 </r>
       <r>   -46.3459     0.0000     4.0000 </r>
       <r>   -46.0655     0.0000     4.0000 </r>
       <r>   -45.7852     0.0000     4.0000 </r>
       <r>   -45.5048     0.0000     4.0000 </r>
       <r>   -45.2244     0.0000     4.0000 </r>
       <r>   -44.9440     0.0000     4.0000 </r>
       <r>   -44.6637     0.0000     4.0000 </r>
       <r>   -44.3833     0.0000     4.0000 </r>
       <r>   -44.1029     0.0000     4.0000 </r>
       <r>   -43.8225     0.0000     4.0000 </r>
       <r>   -43.5422     0.0000     4.0000 </r>
       <r>   -43.2618     0.0000     4.0000 </r>
       <r>   -42.9814     0.0000     4.0000 </r>
       <r>   -42.7010     0.0000     4.0000 </r>
       <r>   -42.4207     0.0000     4.0000 </r>
       <r>   -42.1403     0.0000     4.0000 </r>
       <r>   -41.8599     0.0000     4.0000 </r>
       <r>   -41.5795     0.0000     4.0000 </r>
       <r>   -41.2992     0.0000     4.0000 </r>
       <r>   -41.0188     0.0000     4.0000 </r>
       <r>   -40.7384     0.0000     4.0000 </r>
       <r>   -40.4580     0.0000     4.0000 </r>
       <r>   -40.1777     0.0000     4.0000 </r>
       <r>   -39.8973     0.0000     4.0000 </r>
       <r>   -39.6169     0.0000     4.0000 </r>
       <r>   -39.3365     0.0000     4.0000 </r>
       <r>   -39.0562     0.0000     4.0000 </r>
       <r>   -38.7758     0.0000     4.0000 </r>
       <r>   -38.4954     0.0000     4.0000 </r>
       <r>   -38.2150     0.0000     4.0000 </r>
       <r>   -37.9347     0.0000     4.0000 </r>
       <r>   -37.6543     0.0000     4.0000 </r>
       <r>   -37.3739     0.0000     4.0000 </r>
       <r>   -37.0935     0.0000     4.0000 </r>
       <r>   -36.8132     0.0000     4.0000 </r>
       <r>   -36.5328     0.0000     4.0000 </r>
       <r>   -36.2524     0.0000     4.0000 </r>
       <r>   -35.9720     0.0000     4.0000 </r>
       <r>   -35.6917     0.0000     4.0000 </r>
       <r>   -35.4113     0.0000     4.0000 </r>
       <r>   -35.1309    -0.0000     4.0000 </r>
       <r>   -34.8505    -0.0000     4.0000 </r>
       <r>   -34.5701    -0.0000     4.0000 </r>
       <r>   -34.2898    -0.0511     3.9857 </r>
       <r>   -34.0094    12.1042     7.3794 </r>
       <r>   -33.7290    23.2404    13.8954 </r>
       <r>   -33.4486     7.3328    15.9514 </r>
       <r>   -33.1683     0.1735    16.0000 </r>
       <r>   -32.8879    -0.0000    16.0000 </r>
       <r>   -32.6075     0.0000    16.0000 </r>
       <r>   -32.3271     0.0000    16.0000 </r>
       <r>   -32.0468     0.0000    16.0000 </r>
       <r>   -31.7664     0.0000    16.0000 </r>
       <r>   -31.4860     0.0000    16.0000 </r>
       <r>   -31.2056     0.0000    16.0000 </r>
       <r>   -30.9253     0.0000    16.0000 </r>
       <r>   -30.6449     0.0000    16.0000 </r>
       <r>   -30.3645     0.0000    16.0000 </r>
       <r>   -30.0841     0.0000    16.0000 </r>
       <r>   -29.8038     0.0000    16.0000 </r>
       <r>   -29.5234     0.0000    16.0000 </r>
       <r>   -29.2430     0.0000    16.0000 </r>
       <r>   -28.9626     0.0000    16.0000 </r>
       <r>   -28.6823     0.0000    16.0000 </r>
       <r>   -28.4019     0.0000    16.0000 </r>
       <r>   -28.1215     0.0000    16.0000 </r>
       <r>   -27.8411     0.0000    16.0000 </r>
       <r>   -27.5608     0.0000    16.0000 </r>
       <r>   -27.2804     0.0000    16.0000 </r>
       <r>   -27.0000     0.0000    16.0000 </r>
       <r>   -26.7196     0.0000    16.0000 </r>
       <r>   -26.4393     0.0000    16.0000 </r>
       <r>   -26.1589     0.0000    16.0000 </r>
       <r>   -25.8785     0.0000    16.0000 </r>
       <r>   -25.5981     0.0000    16.0000 </r>
       <r>   -25.3178     0.0000    16.0000 </r>
       <r>   -25.0374     0.0000    16.0000 </r>
       <r>   -24.7570     0.0000    16.0000 </r>
       <r>   -24.4766     0.0000    16.0000 </r>
       <r>   -24.1963     0.0000    16.0000 </r>
       <r>   -23.9159     0.0000    16.0000 </r>
       <r>   -23.6355     0.0000    16.0000 </r>
       <r>   -23.3551     0.0000    16.0000 </r>
       <r>   -23.0748     0.0000    16.0000 </r>
       <r>   -22.7944     0.0000    16.0000 </r>
       <r>   -22.5140     0.0000    16.0000 </r>
       <r>   -22.2336     0.0000    16.0000 </r>
       <r>   -21.9533     0.0000    16.0000 </r>
       <r>   -21.6729     0.0000    16.0000 </r>
       <r>   -21.3925     0.0000    16.0000 </r>
       <r>   -21.1121     0.0000    16.0000 </r>
       <r>   -20.8318     0.0000    16.0000 </r>
       <r>   -20.5514     0.0000    16.0000 </r>
       <r>   -20.2710     0.0000    16.0000 </r>
       <r>   -19.9906     0.0000    16.0000 </r>
       <r>   -19.7103     0.0000    16.0000 </r>
       <r>   -19.4299     0.0000    16.0000 </r>
       <r>   -19.1495     0.0000    16.0000 </r>
       <r>   -18.8691     0.0000    16.0000 </r>
       <r>   -18.5888     0.0000    16.0000 </r>
       <r>   -18.3084     0.0000    16.0000 </r>
       <r>   -18.0280     0.0000    16.0000 </r>
       <r>   -17.7476     0.0000    16.0000 </r>
       <r>   -17.4673     0.0000    16.0000 </r>
       <r>   -17.1869     0.0000    16.0000 </r>
       <r>   -16.9065     0.0000    16.0000 </r>
       <r>   -16.6261     0.0000    16.0000 </r>
       <r>   -16.3458     0.0000    16.0000 </r>
       <r>   -16.0654     0.0000    16.0000 </r>
       <r>   -15.7850     0.0000    16.0000 </r>
       <r>   -15.5046     0.0000    16.0000 </r>
       <r>   -15.2243     0.0000    16.0000 </r>
       <r>   -14.9439     0.0000    16.0000 </r>
       <r>   -14.6635     0.0000    16.0000 </r>
       <r>   -14.3831     0.0000    16.0000 </r>
       <r>   -14.1027     0.0000    16.0000 </r>
       <r>   -13.8224     0.0000    16.0000 </r>
       <r>   -13.5420     0.0000    16.0000 </r>
       <r>   -13.2616     0.0000    16.0000 </r>
       <r>   -12.9812     0.0000    16.0000 </r>
       <r>   -12.7009     0.0000    16.0000 </r>
       <r>   -12.4205     0.0000    16.0000 </r>
       <r>   -12.1401     0.0000    16.0000 </r>
       <r>   -11.8597     0.0000    16.0000 </r>
       <r>   -11.5794     0.0000    16.0000 </r>
       <r>   -11.2990     0.0000    16.0000 </r>
       <r>   -11.0186     0.0000    16.0000 </r>
       <r>   -10.7382     0.0000    16.0000 </r>
       <r>   -10.4579     0.0000    16.0000 </r>
       <r>   -10.1775     0.0000    16.0000 </r>
       <r>    -9.8971     0.0000    16.0000 </r>
       <r>    -9.6167    -0.0000    16.0000 </r>
       <r>    -9.3364    -0.0000    16.0000 </r>
       <r>    -9.0560    -0.0000    16.0000 </r>
       <r>    -8.7756    -0.0056    15.9984 </r>
       <r>    -8.4952     0.1973    16.0538 </r>
       <r>    -8.2149     0.8619    16.2954 </r>
       <r>    -7.9345     0.4162    16.4121 </r>
       <r>    -7.6541     1.0298    16.7008 </r>
       <r>    -7.3737     0.8423    16.9370 </r>
       <r>    -7.0934     0.2496    17.0070 </r>
       <r>    -6.8130     0.3656    17.1095 </r>
       <r>    -6.5326     0.4199    17.2272 </r>
       <r>    -6.2522     1.0223    17.5138 </r>
       <r>    -5.9719     2.4225    18.1930 </r>
       <r>    -5.6915     0.0815    18.2159 </r>
       <r>    -5.4111     1.3252    18.5875 </r>
       <r>    -5.1307     0.9935    18.8660 </r>
       <r>    -4.8504     0.8605    19.1073 </r>
       <r>    -4.5700     0.7153    19.3078 </r>
       <r>    -4.2896     1.1937    19.6425 </r>
       <r>    -4.0092     0.7675    19.8577 </r>
       <r>    -3.7289     1.3429    20.2342 </r>
       <r>    -3.4485     1.5811    20.6775 </r>
       <r>    -3.1681     2.3096    21.3251 </r>
       <r>    -2.8877     0.9901    21.6027 </r>
       <r>    -2.6074     1.3531    21.9820 </r>
       <r>    -2.3270     3.3792    22.9295 </r>
       <r>    -2.0466     2.7607    23.7035 </r>
       <r>    -1.7662     5.0188    25.1107 </r>
       <r>    -1.4859     3.6926    26.1460 </r>
       <r>    -1.2055     4.2110    27.3266 </r>
       <r>    -0.9251     5.2695    28.8041 </r>
       <r>    -0.6447     6.2425    30.5543 </r>
       <r>    -0.3644     6.4472    32.3620 </r>
       <r>    -0.0840     3.4564    33.3310 </r>
       <r>     0.1964     4.5669    34.6115 </r>
       <r>     0.4768     5.5829    36.1768 </r>
       <r>     0.7571     5.2010    37.6350 </r>
       <r>     1.0375     5.2034    39.0939 </r>
       <r>     1.3179     7.0220    41.0627 </r>
       <r>     1.5983     5.1091    42.4952 </r>
       <r>     1.8786     3.7913    43.5582 </r>
       <r>     2.1590     2.9627    44.3889 </r>
       <r>     2.4394     2.1580    44.9939 </r>
       <r>     2.7198     1.6921    45.4683 </r>
       <r>     3.0001     3.6389    46.4886 </r>
       <r>     3.2805     2.9856    47.3257 </r>
       <r>     3.5609     4.9397    48.7107 </r>
       <r>     3.8413     4.1040    49.8613 </r>
       <r>     4.1216     2.5216    50.5683 </r>
       <r>     4.4020     3.6521    51.5923 </r>
       <r>     4.6824     5.0797    53.0165 </r>
       <r>     4.9628     2.7250    53.7805 </r>
       <r>     5.2432     5.3360    55.2766 </r>
       <r>     5.5235     5.0090    56.6810 </r>
       <r>     5.8039     4.1324    57.8396 </r>
       <r>     6.0843     2.8941    58.6510 </r>
       <r>     6.3647     5.3036    60.1380 </r>
       <r>     6.6450     5.9845    61.8159 </r>
       <r>     6.9254     3.5725    62.8176 </r>
       <r>     7.2058     5.1995    64.2754 </r>
       <r>     7.4862     4.2624    65.4705 </r>
       <r>     7.7665     4.7206    66.7940 </r>
       <r>     8.0469     3.7754    67.8526 </r>
       <r>     8.3273     5.6792    69.4449 </r>
       <r>     8.6077     5.6498    71.0289 </r>
       <r>     8.8880     6.6062    72.8811 </r>
       <r>     9.1684     6.2837    74.6429 </r>
       <r>     9.4488     4.5316    75.9135 </r>
       <r>     9.7292     6.9351    77.8579 </r>
       <r>    10.0095     4.5398    79.1308 </r>
       <r>    10.2899     3.7501    80.1822 </r>
       <r>    10.5703     5.0158    81.5885 </r>
       <r>    10.8507     7.4993    83.6911 </r>
       <r>    11.1310     5.3898    85.2023 </r>
       <r>    11.4114     5.4364    86.7265 </r>
       <r>    11.6918     6.0477    88.4221 </r>
       <r>    11.9722     3.4582    89.3918 </r>
       <r>    12.2525     8.2980    91.7183 </r>
       <r>    12.5329     8.9473    94.2269 </r>
       <r>    12.8133     4.7467    95.5578 </r>
       <r>    13.0937     4.5203    96.8251 </r>
       <r>    13.3740     6.7306    98.7122 </r>
       <r>    13.6544     5.8255   100.3456 </r>
       <r>    13.9348     7.2987   102.3919 </r>
       <r>    14.2152     7.0169   104.3593 </r>
       <r>    14.4955     8.9159   106.8591 </r>
       <r>    14.7759     4.9334   108.2423 </r>
       <r>    15.0563     7.0338   110.2144 </r>
       <r>    15.3367     5.7229   111.8190 </r>
       <r>    15.6170     7.8172   114.0107 </r>
       <r>    15.8974     5.6853   115.6048 </r>
       <r>    16.1778     6.7206   117.4891 </r>
       <r>    16.4582     5.0900   118.9162 </r>
       <r>    16.7385     8.5536   121.3144 </r>
       <r>    17.0189     5.3824   122.8235 </r>
       <r>    17.2993     3.4896   123.8019 </r>
       <r>    17.5797     3.3589   124.7436 </r>
       <r>    17.8600     4.6177   126.0383 </r>
       <r>    18.1404     3.0016   126.8799 </r>
       <r>    18.4208     2.3515   127.5392 </r>
       <r>    18.7012     0.9515   127.8060 </r>
       <r>    18.9815     0.7015   128.0027 </r>
       <r>    19.2619    -0.0095   128.0000 </r>
       <r>    19.5423    -0.0000   128.0000 </r>
       <r>    19.8227     0.0000   128.0000 </r>
       <r>    20.1030     0.0000   128.0000 </r>
       <r>    20.3834     0.0000   128.0000 </r>
       <r>    20.6638     0.0000   128.0000 </r>
       <r>    20.9442     0.0000   128.0000 </r>
       <r>    21.2245     0.0000   128.0000 </r>
       <r>    21.5049     0.0000   128.0000 </r>
       <r>    21.7853     0.0000   128.0000 </r>
       <r>    22.0657     0.0000   128.0000 </r>
       <r>    22.3460     0.0000   128.0000 </r>
       <r>    22.6264     0.0000   128.0000 </r>
      </set>
     </set>
    </array>
   </total>
  </dos>
 </calculation>
 <structure name="finalpos" >
  <crystal>
   <varray name="basis" >
    <v>       4.95389986       0.00000000       0.00000000 </v>
    <v>       0.00000000       2.82380009       0.00000000 </v>
    <v>       0.00000000       0.00000000      17.32010078 </v>
   </varray>
   <i name="volume">    242.28782173 </i>
   <varray name="rec_basis" >
    <v>       0.20186117       0.00000000       0.00000000 </v>
    <v>       0.00000000       0.35413272       0.00000000 </v>
    <v>       0.00000000       0.00000000       0.05773638 </v>
   </varray>
  </crystal>
  <varray name="positions" >
   <v>       0.67508000       0.00000000       0.40415001 </v>
   <v>       0.00000000       0.00000000       0.53811002 </v>
   <v>       0.17508000       0.50000000       0.40415001 </v>
   <v>       0.50000000       0.50000000       0.53811002 </v>
  </varray>
 </structure>
</modeling>
