unknown system                          
           1
     4.953900    0.000000    0.000000
     0.000000    2.823800    0.000000
     0.000000    0.000000   17.320101
   Ti   Al
     2     2
Direct configuration=     1
   0.67508000  0.00000000  0.40415001
   0.00000000  0.00000000  0.53811002
   0.17508000  0.50000000  0.40415001
   0.50000000  0.50000000  0.53811002
