   17   17  300    1
  0.1527371E+02  0.5647637E-09  0.5647637E-09  0.8140666E-09  0.5000000E-15
  1.000000000000000E-004
  CAR 
 CaNi2                                   
    133     30    128
 
  0.1276756E-14  0.1276756E-14  0.1276756E-14  0.6944444E-02
      1        -48.940595   1.000000
      2        -48.940193   1.000000
      3        -48.936296   1.000000
      4        -48.935988   1.000000
      5        -48.637268   1.000000
      6        -48.633953   1.000000
      7        -48.601400   1.000000
      8        -48.600740   1.000000
      9        -25.339604   1.000000
     10        -25.333877   1.000000
     11        -25.328959   1.000000
     12        -25.324704   1.000000
     13        -25.222972   1.000000
     14        -25.222972   1.000000
     15        -25.220710   1.000000
     16        -25.220710   1.000000
     17        -25.171381   1.000000
     18        -25.171381   1.000000
     19        -25.170106   1.000000
     20        -25.170106   1.000000
     21        -25.032919   1.000000
     22        -24.990245   1.000000
     23        -24.983707   1.000000
     24        -24.975142   1.000000
     25        -24.823990   1.000000
     26        -24.823990   1.000000
     27        -24.820106   1.000000
     28        -24.820106   1.000000
     29        -24.755751   1.000000
     30        -24.755751   1.000000
     31        -24.754652   1.000000
     32        -24.754652   1.000000
     33         -7.424835   1.000000
     34         -7.323132   1.000000
     35         -7.284885   1.000000
     36         -7.233529   1.000000
     37         -7.233529   1.000000
     38         -1.824640   1.000000
     39          0.106914   1.000000
     40          1.485069   1.000000
     41          2.379813   1.000000
     42          2.379813   1.000000
     43          2.660759   1.000000
     44          3.195911   1.000000
     45          3.195911   1.000000
     46          3.532209   1.000000
     47          4.465534   1.000000
     48          4.863086   1.000000
     49          4.978224   1.000000
     50          5.265365   1.000000
     51          5.265365   1.000000
     52          5.727019   1.000000
     53          6.080306   1.000000
     54          6.191842   1.000000
     55          6.379117   1.000000
     56          6.379117   1.000000
     57          6.674431   1.000000
     58          6.678986   1.000000
     59          6.678986   1.000000
     60          6.733466   1.000000
     61          6.733466   1.000000
     62          6.797596   1.000000
     63          6.872551   1.000000
     64          7.285358   1.000000
     65          7.472582   1.000000
     66          7.705065   0.999997
     67          7.884423   0.978159
     68          7.924835   0.925859
     69          7.924835   0.925859
     70          8.389094   0.000000
     71          8.514087   0.000000
     72          8.807249   0.000000
     73          9.168533   0.000000
     74          9.221718   0.000000
     75          9.221718   0.000000
     76          9.411066   0.000000
     77          9.474433   0.000000
     78          9.529970   0.000000
     79          9.549574   0.000000
     80          9.557629   0.000000
     81          9.583188   0.000000
     82          9.583188   0.000000
     83          9.723157   0.000000
     84          9.723157   0.000000
     85          9.901714   0.000000
     86         10.038687   0.000000
     87         10.038687   0.000000
     88         10.632550   0.000000
     89         10.714271   0.000000
     90         10.714271   0.000000
     91         10.901106   0.000000
     92         11.374463   0.000000
     93         11.401511   0.000000
     94         11.470139   0.000000
     95         11.619946   0.000000
     96         11.619946   0.000000
     97         11.733623   0.000000
     98         12.094010   0.000000
     99         12.094010   0.000000
    100         12.115456   0.000000
    101         12.314365   0.000000
    102         12.375422   0.000000
    103         12.858402   0.000000
    104         13.163195   0.000000
    105         13.367958   0.000000
    106         13.367958   0.000000
    107         13.414892   0.000000
    108         13.467186   0.000000
    109         13.626277   0.000000
    110         14.873282   0.000000
    111         14.932694   0.000000
    112         14.932694   0.000000
    113         14.956481   0.000000
    114         14.956481   0.000000
    115         15.555968   0.000000
    116         16.426043   0.000000
    117         16.436308   0.000000
    118         16.442084   0.000000
    119         16.920915   0.000000
    120         16.920915   0.000000
    121         17.483038   0.000000
    122         17.832254   0.000000
    123         17.985271   0.000000
    124         17.985271   0.000000
    125         18.475093   0.000000
    126         18.571053   0.000000
    127         18.571053   0.000000
    128         18.885789   0.000000
 
  0.1666667E+00  0.1276756E-14  0.1276756E-14  0.2777778E-01
      1        -48.940092   1.000000
      2        -48.939708   1.000000
      3        -48.936370   1.000000
      4        -48.936047   1.000000
      5        -48.637489   1.000000
      6        -48.634157   1.000000
      7        -48.601664   1.000000
      8        -48.601011   1.000000
      9        -25.339270   1.000000
     10        -25.334303   1.000000
     11        -25.328758   1.000000
     12        -25.325062   1.000000
     13        -25.221447   1.000000
     14        -25.219231   1.000000
     15        -25.208699   1.000000
     16        -25.206572   1.000000
     17        -25.172762   1.000000
     18        -25.171448   1.000000
     19        -25.157321   1.000000
     20        -25.156083   1.000000
     21        -25.032609   1.000000
     22        -24.990395   1.000000
     23        -24.983469   1.000000
     24        -24.975279   1.000000
     25        -24.837773   1.000000
     26        -24.833651   1.000000
     27        -24.823790   1.000000
     28        -24.819884   1.000000
     29        -24.771885   1.000000
     30        -24.770706   1.000000
     31        -24.756146   1.000000
     32        -24.755061   1.000000
     33         -7.425002   1.000000
     34         -7.322906   1.000000
     35         -7.284653   1.000000
     36         -7.233622   1.000000
     37         -7.233531   1.000000
     38         -1.718372   1.000000
     39          0.185022   1.000000
     40          0.981716   1.000000
     41          2.484693   1.000000
     42          2.534464   1.000000
     43          2.628540   1.000000
     44          2.797690   1.000000
     45          3.281933   1.000000
     46          4.169974   1.000000
     47          4.554757   1.000000
     48          4.813388   1.000000
     49          5.007192   1.000000
     50          5.007948   1.000000
     51          5.337738   1.000000
     52          5.520624   1.000000
     53          5.779550   1.000000
     54          5.930573   1.000000
     55          6.369163   1.000000
     56          6.403269   1.000000
     57          6.413023   1.000000
     58          6.539462   1.000000
     59          6.695346   1.000000
     60          6.809779   1.000000
     61          6.882141   1.000000
     62          7.317468   1.000000
     63          7.363888   1.000000
     64          7.502740   1.000000
     65          7.665657   1.000000
     66          7.733104   0.999984
     67          7.805595   0.999132
     68          7.936953   0.898713
     69          8.031242   0.476398
     70          8.525140   0.000000
     71          8.785746   0.000000
     72          8.796790   0.000000
     73          8.925964   0.000000
     74          9.110776   0.000000
     75          9.161634   0.000000
     76          9.284472   0.000000
     77          9.445072   0.000000
     78          9.555663   0.000000
     79          9.562711   0.000000
     80          9.564069   0.000000
     81          9.564146   0.000000
     82          9.634840   0.000000
     83          9.685410   0.000000
     84          9.745619   0.000000
     85          9.807762   0.000000
     86         10.023387   0.000000
     87         10.120029   0.000000
     88         10.567767   0.000000
     89         10.618463   0.000000
     90         10.653396   0.000000
     91         10.807761   0.000000
     92         10.828828   0.000000
     93         11.318538   0.000000
     94         11.398941   0.000000
     95         11.463447   0.000000
     96         11.685463   0.000000
     97         12.052718   0.000000
     98         12.099471   0.000000
     99         12.270036   0.000000
    100         12.339918   0.000000
    101         12.447102   0.000000
    102         12.484075   0.000000
    103         12.875803   0.000000
    104         13.172514   0.000000
    105         13.285297   0.000000
    106         13.516234   0.000000
    107         13.532269   0.000000
    108         13.552570   0.000000
    109         13.746043   0.000000
    110         13.770108   0.000000
    111         14.704796   0.000000
    112         14.893500   0.000000
    113         15.111908   0.000000
    114         15.553200   0.000000
    115         15.902745   0.000000
    116         16.064633   0.000000
    117         16.499659   0.000000
    118         16.663417   0.000000
    119         16.802884   0.000000
    120         16.834356   0.000000
    121         17.299226   0.000000
    122         17.663078   0.000000
    123         17.722865   0.000000
    124         17.908659   0.000000
    125         17.912388   0.000000
    126         17.955038   0.000000
    127         18.143602   0.000000
    128         18.243364   0.000000
 
  0.3333333E+00  0.1276756E-14  0.1276756E-14  0.2777778E-01
      1        -48.938849   1.000000
      2        -48.938503   1.000000
      3        -48.936722   1.000000
      4        -48.936397   1.000000
      5        -48.637913   1.000000
      6        -48.634568   1.000000
      7        -48.602189   1.000000
      8        -48.601541   1.000000
      9        -25.338270   1.000000
     10        -25.335202   1.000000
     11        -25.328117   1.000000
     12        -25.325736   1.000000
     13        -25.218096   1.000000
     14        -25.215999   1.000000
     15        -25.176676   1.000000
     16        -25.175826   1.000000
     17        -25.174770   1.000000
     18        -25.174404   1.000000
     19        -25.125764   1.000000
     20        -25.124569   1.000000
     21        -25.031179   1.000000
     22        -24.990428   1.000000
     23        -24.982353   1.000000
     24        -24.975312   1.000000
     25        -24.868619   1.000000
     26        -24.863926   1.000000
     27        -24.823371   1.000000
     28        -24.819413   1.000000
     29        -24.809064   1.000000
     30        -24.807668   1.000000
     31        -24.756924   1.000000
     32        -24.755873   1.000000
     33         -7.425336   1.000000
     34         -7.322457   1.000000
     35         -7.284181   1.000000
     36         -7.233803   1.000000
     37         -7.233532   1.000000
     38         -1.422952   1.000000
     39          0.042883   1.000000
     40          0.637432   1.000000
     41          1.743252   1.000000
     42          2.790198   1.000000
     43          3.031106   1.000000
     44          3.197357   1.000000
     45          3.532209   1.000000
     46          3.940521   1.000000
     47          4.310886   1.000000
     48          4.479947   1.000000
     49          4.635030   1.000000
     50          4.757083   1.000000
     51          5.474983   1.000000
     52          5.667107   1.000000
     53          5.925845   1.000000
     54          6.260385   1.000000
     55          6.334956   1.000000
     56          6.344676   1.000000
     57          6.611438   1.000000
     58          6.722784   1.000000
     59          6.731762   1.000000
     60          7.153848   1.000000
     61          7.306384   1.000000
     62          7.349141   1.000000
     63          7.456973   1.000000
     64          7.541142   1.000000
     65          7.587117   1.000000
     66          7.718647   0.999994
     67          8.136120   0.061488
     68          8.166163   0.024576
     69          8.259888   0.000496
     70          8.516273   0.000000
     71          8.566267   0.000000
     72          8.590637   0.000000
     73          8.782438   0.000000
     74          9.047260   0.000000
     75          9.267328   0.000000
     76          9.271618   0.000000
     77          9.323140   0.000000
     78          9.475306   0.000000
     79          9.477724   0.000000
     80          9.537547   0.000000
     81          9.632924   0.000000
     82          9.762505   0.000000
     83          9.769394   0.000000
     84          9.825946   0.000000
     85          9.885130   0.000000
     86          9.888838   0.000000
     87         10.008589   0.000000
     88         10.364327   0.000000
     89         10.370272   0.000000
     90         10.527868   0.000000
     91         10.699963   0.000000
     92         10.931347   0.000000
     93         10.941924   0.000000
     94         11.156041   0.000000
     95         11.443231   0.000000
     96         11.759090   0.000000
     97         11.826131   0.000000
     98         12.020603   0.000000
     99         12.206468   0.000000
    100         12.368263   0.000000
    101         12.693058   0.000000
    102         12.850153   0.000000
    103         13.005451   0.000000
    104         13.186793   0.000000
    105         13.426409   0.000000
    106         13.599746   0.000000
    107         13.715937   0.000000
    108         13.918394   0.000000
    109         14.078800   0.000000
    110         14.122573   0.000000
    111         14.593031   0.000000
    112         14.772287   0.000000
    113         15.180424   0.000000
    114         15.248813   0.000000
    115         15.460280   0.000000
    116         15.817268   0.000000
    117         15.965656   0.000000
    118         16.271646   0.000000
    119         16.690080   0.000000
    120         16.786676   0.000000
    121         16.816599   0.000000
    122         16.943724   0.000000
    123         17.165730   0.000000
    124         17.236036   0.000000
    125         17.490759   0.000000
    126         17.773636   0.000000
    127         17.796321   0.000000
    128         17.999049   0.000000
 
  0.5000000E+00  0.1276756E-14  0.1276756E-14  0.1388889E-01
      1        -48.937614   1.000000
      2        -48.937551   1.000000
      3        -48.937244   1.000000
      4        -48.937173   1.000000
      5        -48.638118   1.000000
      6        -48.634771   1.000000
      7        -48.602454   1.000000
      8        -48.601796   1.000000
      9        -25.337344   1.000000
     10        -25.335977   1.000000
     11        -25.327583   1.000000
     12        -25.326224   1.000000
     13        -25.216216   1.000000
     14        -25.214184   1.000000
     15        -25.177569   1.000000
     16        -25.176064   1.000000
     17        -25.158127   1.000000
     18        -25.156210   1.000000
     19        -25.107637   1.000000
     20        -25.106458   1.000000
     21        -25.029683   1.000000
     22        -24.990167   1.000000
     23        -24.981137   1.000000
     24        -24.975092   1.000000
     25        -24.886141   1.000000
     26        -24.881118   1.000000
     27        -24.831605   1.000000
     28        -24.830074   1.000000
     29        -24.823160   1.000000
     30        -24.819171   1.000000
     31        -24.757324   1.000000
     32        -24.756283   1.000000
     33         -7.425504   1.000000
     34         -7.322236   1.000000
     35         -7.283939   1.000000
     36         -7.233893   1.000000
     37         -7.233534   1.000000
     38         -1.153580   1.000000
     39         -0.361937   1.000000
     40          1.049607   1.000000
     41          1.111470   1.000000
     42          3.170789   1.000000
     43          3.429685   1.000000
     44          3.448839   1.000000
     45          3.772758   1.000000
     46          3.809391   1.000000
     47          3.846480   1.000000
     48          3.849580   1.000000
     49          4.051226   1.000000
     50          5.039074   1.000000
     51          5.178573   1.000000
     52          6.100180   1.000000
     53          6.176799   1.000000
     54          6.305208   1.000000
     55          6.359374   1.000000
     56          6.806911   1.000000
     57          6.816718   1.000000
     58          6.860368   1.000000
     59          7.018194   1.000000
     60          7.132095   1.000000
     61          7.219581   1.000000
     62          7.371027   1.000000
     63          7.476911   1.000000
     64          7.579146   1.000000
     65          7.709710   0.999996
     66          7.855291   0.992432
     67          7.879286   0.981681
     68          7.980432   0.745169
     69          8.072190   0.261640
     70          8.432063   0.000000
     71          8.511657   0.000000
     72          8.668964   0.000000
     73          8.694715   0.000000
     74          9.117848   0.000000
     75          9.172957   0.000000
     76          9.175491   0.000000
     77          9.358688   0.000000
     78          9.380628   0.000000
     79          9.424923   0.000000
     80          9.496185   0.000000
     81          9.572397   0.000000
     82          9.788543   0.000000
     83          9.804365   0.000000
     84          9.906924   0.000000
     85         10.023240   0.000000
     86         10.026886   0.000000
     87         10.121145   0.000000
     88         10.166225   0.000000
     89         10.182384   0.000000
     90         10.616298   0.000000
     91         10.772196   0.000000
     92         10.812747   0.000000
     93         10.927918   0.000000
     94         11.121038   0.000000
     95         11.321005   0.000000
     96         11.384970   0.000000
     97         11.501742   0.000000
     98         12.374142   0.000000
     99         12.417856   0.000000
    100         12.522323   0.000000
    101         12.730227   0.000000
    102         12.757990   0.000000
    103         12.972695   0.000000
    104         13.270272   0.000000
    105         13.509780   0.000000
    106         13.858297   0.000000
    107         14.130125   0.000000
    108         14.294964   0.000000
    109         14.419706   0.000000
    110         14.598152   0.000000
    111         14.645247   0.000000
    112         14.720108   0.000000
    113         14.729232   0.000000
    114         14.792587   0.000000
    115         15.145571   0.000000
    116         15.365131   0.000000
    117         15.581033   0.000000
    118         15.891897   0.000000
    119         16.016957   0.000000
    120         16.325676   0.000000
    121         16.422514   0.000000
    122         16.788630   0.000000
    123         17.182964   0.000000
    124         17.877860   0.000000
    125         17.929286   0.000000
    126         17.976672   0.000000
    127         18.051060   0.000000
    128         18.109034   0.000000
 
  0.1666667E+00  0.1666667E+00  0.1276756E-14  0.2777778E-01
      1        -48.939636   1.000000
      2        -48.939231   1.000000
      3        -48.936409   1.000000
      4        -48.936091   1.000000
      5        -48.637715   1.000000
      6        -48.634370   1.000000
      7        -48.601927   1.000000
      8        -48.601280   1.000000
      9        -25.338966   1.000000
     10        -25.334689   1.000000
     11        -25.328575   1.000000
     12        -25.325401   1.000000
     13        -25.208788   1.000000
     14        -25.206600   1.000000
     15        -25.205991   1.000000
     16        -25.204005   1.000000
     17        -25.159650   1.000000
     18        -25.158301   1.000000
     19        -25.157233   1.000000
     20        -25.156032   1.000000
     21        -25.032310   1.000000
     22        -24.990549   1.000000
     23        -24.983240   1.000000
     24        -24.975411   1.000000
     25        -24.837909   1.000000
     26        -24.837332   1.000000
     27        -24.833710   1.000000
     28        -24.833245   1.000000
     29        -24.772311   1.000000
     30        -24.772233   1.000000
     31        -24.771154   1.000000
     32        -24.771068   1.000000
     33         -7.425189   1.000000
     34         -7.322689   1.000000
     35         -7.284420   1.000000
     36         -7.233627   1.000000
     37         -7.233619   1.000000
     38         -1.614371   1.000000
     39          0.254470   1.000000
     40          0.867003   1.000000
     41          1.850454   1.000000
     42          2.637360   1.000000
     43          2.639119   1.000000
     44          2.932876   1.000000
     45          3.509892   1.000000
     46          3.898590   1.000000
     47          4.605090   1.000000
     48          4.671279   1.000000
     49          5.211765   1.000000
     50          5.424635   1.000000
     51          5.473815   1.000000
     52          5.501639   1.000000
     53          5.806642   1.000000
     54          5.808642   1.000000
     55          5.974327   1.000000
     56          6.439149   1.000000
     57          6.462793   1.000000
     58          6.620320   1.000000
     59          6.655858   1.000000
     60          6.793412   1.000000
     61          7.264120   1.000000
     62          7.361093   1.000000
     63          7.480334   1.000000
     64          7.546725   1.000000
     65          7.714958   0.999995
     66          7.740194   0.999975
     67          7.864573   0.989215
     68          8.085366   0.204792
     69          8.105730   0.132936
     70          8.549083   0.000000
     71          8.794901   0.000000
     72          8.852213   0.000000
     73          8.891173   0.000000
     74          9.066178   0.000000
     75          9.138106   0.000000
     76          9.195372   0.000000
     77          9.380177   0.000000
     78          9.515150   0.000000
     79          9.534877   0.000000
     80          9.547805   0.000000
     81          9.573501   0.000000
     82          9.608775   0.000000
     83          9.654826   0.000000
     84          9.657229   0.000000
     85          9.776176   0.000000
     86          9.860256   0.000000
     87         10.381295   0.000000
     88         10.485366   0.000000
     89         10.509172   0.000000
     90         10.679708   0.000000
     91         10.685353   0.000000
     92         10.732535   0.000000
     93         10.744248   0.000000
     94         11.289691   0.000000
     95         11.526524   0.000000
     96         11.666395   0.000000
     97         12.192839   0.000000
     98         12.426580   0.000000
     99         12.431190   0.000000
    100         12.471133   0.000000
    101         12.512918   0.000000
    102         12.883635   0.000000
    103         12.929377   0.000000
    104         13.128231   0.000000
    105         13.301514   0.000000
    106         13.324022   0.000000
    107         13.378248   0.000000
    108         13.615311   0.000000
    109         13.848676   0.000000
    110         14.031760   0.000000
    111         14.313072   0.000000
    112         14.529134   0.000000
    113         15.502042   0.000000
    114         15.505597   0.000000
    115         15.615010   0.000000
    116         15.707789   0.000000
    117         15.800199   0.000000
    118         16.521538   0.000000
    119         16.527173   0.000000
    120         16.735942   0.000000
    121         16.902317   0.000000
    122         17.333206   0.000000
    123         17.830256   0.000000
    124         17.957258   0.000000
    125         18.178179   0.000000
    126         18.331053   0.000000
    127         18.335097   0.000000
    128         18.429370   0.000000
 
  0.3333333E+00  0.1666667E+00  0.1276756E-14  0.5555556E-01
      1        -48.938505   1.000000
      2        -48.938122   1.000000
      3        -48.936650   1.000000
      4        -48.936318   1.000000
      5        -48.638143   1.000000
      6        -48.634789   1.000000
      7        -48.602444   1.000000
      8        -48.601796   1.000000
      9        -25.338058   1.000000
     10        -25.335486   1.000000
     11        -25.327985   1.000000
     12        -25.326030   1.000000
     13        -25.204806   1.000000
     14        -25.202774   1.000000
     15        -25.175700   1.000000
     16        -25.173862   1.000000
     17        -25.161014   1.000000
     18        -25.159636   1.000000
     19        -25.125972   1.000000
     20        -25.124781   1.000000
     21        -25.030912   1.000000
     22        -24.990585   1.000000
     23        -24.982148   1.000000
     24        -24.975442   1.000000
     25        -24.868678   1.000000
     26        -24.863967   1.000000
     27        -24.837341   1.000000
     28        -24.833144   1.000000
     29        -24.809334   1.000000
     30        -24.807954   1.000000
     31        -24.773056   1.000000
     32        -24.771917   1.000000
     33         -7.425557   1.000000
     34         -7.322255   1.000000
     35         -7.283946   1.000000
     36         -7.233801   1.000000
     37         -7.233620   1.000000
     38         -1.327991   1.000000
     39          0.111336   1.000000
     40          0.737334   1.000000
     41          1.739268   1.000000
     42          2.001246   1.000000
     43          2.917957   1.000000
     44          3.094438   1.000000
     45          3.326712   1.000000
     46          4.005131   1.000000
     47          4.121974   1.000000
     48          4.730126   1.000000
     49          5.206574   1.000000
     50          5.335633   1.000000
     51          5.807270   1.000000
     52          5.822105   1.000000
     53          5.874530   1.000000
     54          5.891499   1.000000
     55          6.312856   1.000000
     56          6.369418   1.000000
     57          6.680801   1.000000
     58          6.686290   1.000000
     59          6.822339   1.000000
     60          7.187724   1.000000
     61          7.378725   1.000000
     62          7.441947   1.000000
     63          7.534735   1.000000
     64          7.544465   1.000000
     65          7.643209   1.000000
     66          7.820460   0.998259
     67          7.974961   0.769357
     68          8.244966   0.001029
     69          8.286160   0.000124
     70          8.623453   0.000000
     71          8.630559   0.000000
     72          8.747567   0.000000
     73          8.797248   0.000000
     74          9.017304   0.000000
     75          9.019872   0.000000
     76          9.203599   0.000000
     77          9.222990   0.000000
     78          9.389005   0.000000
     79          9.479286   0.000000
     80          9.516626   0.000000
     81          9.528607   0.000000
     82          9.565559   0.000000
     83          9.614271   0.000000
     84          9.732700   0.000000
     85          9.837410   0.000000
     86          9.863327   0.000000
     87          9.908360   0.000000
     88         10.254865   0.000000
     89         10.381565   0.000000
     90         10.448051   0.000000
     91         10.626592   0.000000
     92         10.799833   0.000000
     93         10.817982   0.000000
     94         11.158824   0.000000
     95         11.539488   0.000000
     96         11.803946   0.000000
     97         12.032291   0.000000
     98         12.073665   0.000000
     99         12.373093   0.000000
    100         12.776354   0.000000
    101         12.789997   0.000000
    102         12.955505   0.000000
    103         13.221222   0.000000
    104         13.233801   0.000000
    105         13.378499   0.000000
    106         13.528782   0.000000
    107         13.631097   0.000000
    108         13.842010   0.000000
    109         13.944720   0.000000
    110         14.003076   0.000000
    111         14.149708   0.000000
    112         14.477854   0.000000
    113         15.129816   0.000000
    114         15.261950   0.000000
    115         15.389686   0.000000
    116         15.599255   0.000000
    117         15.616350   0.000000
    118         15.730546   0.000000
    119         16.042740   0.000000
    120         16.573025   0.000000
    121         16.678961   0.000000
    122         16.827050   0.000000
    123         17.093195   0.000000
    124         17.185759   0.000000
    125         18.006603   0.000000
    126         18.163988   0.000000
    127         18.323904   0.000000
    128         18.784243   0.000000
 
  0.5000000E+00  0.1666667E+00  0.1276756E-14  0.2777778E-01
      1        -48.937369   1.000000
      2        -48.937321   1.000000
      3        -48.937018   1.000000
      4        -48.936964   1.000000
      5        -48.638350   1.000000
      6        -48.634988   1.000000
      7        -48.602686   1.000000
      8        -48.602054   1.000000
      9        -25.337164   1.000000
     10        -25.336220   1.000000
     11        -25.327441   1.000000
     12        -25.326498   1.000000
     13        -25.203240   1.000000
     14        -25.201269   1.000000
     15        -25.162353   1.000000
     16        -25.160928   1.000000
     17        -25.157578   1.000000
     18        -25.155743   1.000000
     19        -25.107196   1.000000
     20        -25.106059   1.000000
     21        -25.029415   1.000000
     22        -24.990321   1.000000
     23        -24.980936   1.000000
     24        -24.975200   1.000000
     25        -24.886490   1.000000