       N       E                     dE             d eps       ncg     rms          rms(c)
DAV:   1     0.101081791717E+04    0.10108E+04   -0.65168E+04  7680   0.125E+03
DAV:   2    -0.197348231625E+02   -0.10306E+04   -0.99206E+03  7808   0.324E+02
DAV:   3    -0.103131137930E+03   -0.83396E+02   -0.81942E+02 15360   0.769E+01
DAV:   4    -0.105489887650E+03   -0.23587E+01   -0.23584E+01  7680   0.122E+01
DAV:   5    -0.105555788891E+03   -0.65901E-01   -0.65900E-01 12544   0.190E+00    0.303E+01
DAV:   6    -0.977686667556E+02    0.77871E+01   -0.70286E+01 11072   0.326E+01    0.201E+01
DAV:   7    -0.973654683641E+02    0.40320E+00   -0.60245E+01 10176   0.228E+01    0.199E+01
DAV:   8    -0.918051131889E+02    0.55604E+01   -0.12806E+01  9600   0.124E+01    0.741E+00
DAV:   9    -0.917189537347E+02    0.86159E-01   -0.26286E+00  9920   0.630E+00    0.586E+00
DAV:  10    -0.914019944510E+02    0.31696E+00   -0.13325E+00  9792   0.481E+00    0.187E+00
DAV:  11    -0.913749119641E+02    0.27082E-01   -0.12621E-01 10240   0.167E+00    0.981E-01
DAV:  12    -0.913698528011E+02    0.50592E-02   -0.25268E-02 10688   0.878E-01    0.278E-01
DAV:  13    -0.913704843337E+02   -0.63153E-03   -0.32744E-03  8960   0.203E-01    0.816E-02
DAV:  14    -0.913704565672E+02    0.27767E-04   -0.21626E-04 11456   0.732E-02    0.370E-02
DAV:  15    -0.913704646327E+02   -0.80655E-05   -0.43371E-05  9600   0.326E-02
   1 F= -.91370465E+02 E0= -.91338182E+02  d E =-.913705E+02
       N       E                     dE             d eps       ncg     rms          rms(c)
DAV:   1    -0.252696005817E+03   -0.16133E+03   -0.33479E+03 10048   0.303E+02    0.149E+02
DAV:   2    -0.466560847936E+03   -0.21386E+03   -0.49096E+03 14016   0.193E+02    0.111E+02
DAV:   3    -0.203319186651E+03    0.26324E+03   -0.61734E+02 11008   0.104E+02    0.511E+01
DAV:   4    -0.120003785810E+03    0.83315E+02   -0.10743E+02 12224   0.340E+01    0.297E+01
DAV:   5    -0.951604515191E+02    0.24843E+02   -0.57355E+01 11392   0.233E+01    0.127E+01
DAV:   6    -0.955598112745E+02   -0.39936E+00   -0.46950E+00  8768   0.824E+00    0.993E+00
DAV:   7    -0.959181647772E+02   -0.35835E+00   -0.55489E+00 10880   0.636E+00    0.972E+00
DAV:   8    -0.958548664115E+02    0.63298E-01   -0.20648E+00 12736   0.426E+00    0.460E+00
DAV:   9    -0.959098914012E+02   -0.55025E-01   -0.12021E+00 10432   0.400E+00    0.272E+00
DAV:  10    -0.958405871982E+02    0.69304E-01   -0.14280E-01  9536   0.113E+00    0.141E+00
DAV:  11    -0.958507951868E+02   -0.10208E-01   -0.41227E-02  8832   0.675E-01    0.669E-01
DAV:  12    -0.958484527233E+02    0.23425E-02   -0.61601E-03  9984   0.313E-01    0.579E-01
DAV:  13    -0.958444459187E+02    0.40068E-02   -0.15470E-02  9920   0.433E-01    0.182E-01
DAV:  14    -0.958440957804E+02    0.35014E-03   -0.13551E-03  9344   0.144E-01    0.919E-02
DAV:  15    -0.958440739930E+02    0.21787E-04   -0.57908E-05 11392   0.233E-02    0.716E-02
DAV:  16    -0.958440388824E+02    0.35111E-04   -0.33641E-05  9344   0.170E-02    0.373E-02
DAV:  17    -0.958440165871E+02    0.22295E-04   -0.46416E-05 10688   0.205E-02    0.343E-03
DAV:  18    -0.958440166859E+02   -0.98817E-07   -0.19578E-06  4864   0.435E-03
   2 F= -.95844017E+02 E0= -.95801958E+02  d E =-.447355E+01
       N       E                     dE             d eps       ncg     rms          rms(c)
DAV:   1    -0.130873876234E+03   -0.35030E+02   -0.53322E+02 11136   0.102E+02    0.440E+01
DAV:   2    -0.103169006855E+03    0.27705E+02   -0.11153E+02  9984   0.485E+01    0.143E+01
DAV:   3    -0.100802473627E+03    0.23665E+01   -0.28217E+01 10176   0.182E+01    0.157E+01
DAV:   4    -0.990487958992E+02    0.17537E+01   -0.16749E+01  9984   0.112E+01    0.857E+00
DAV:   5    -0.984538259710E+02    0.59497E+00   -0.57671E+00 11776   0.819E+00    0.710E+00
DAV:   6    -0.978838124806E+02    0.57001E+00   -0.24598E+00 10880   0.374E+00    0.275E+00
DAV:   7    -0.979503824500E+02   -0.66570E-01   -0.13597E-01 10368   0.114E+00    0.173E+00
DAV:   8    -0.981273192015E+02   -0.17694E+00   -0.32126E-01 12928   0.114E+00    0.579E-01
DAV:   9    -0.981356963898E+02   -0.83772E-02   -0.34774E-02 10560   0.461E-01    0.227E-01
DAV:  10    -0.981365567976E+02   -0.86041E-03   -0.41051E-03 11008   0.229E-01    0.108E-01
DAV:  11    -0.981366817212E+02   -0.12492E-03   -0.64886E-04 11008   0.830E-02    0.266E-02
DAV:  12    -0.981367012781E+02   -0.19557E-04   -0.83493E-05 10368   0.248E-02    0.176E-02
DAV:  13    -0.981367108800E+02   -0.96019E-05   -0.14863E-05 10304   0.133E-02
   3 F= -.98136711E+02 E0= -.98098877E+02  d E =-.229269E+01
       N       E                     dE             d eps       ncg     rms          rms(c)
DAV:   1    -0.100345371321E+03   -0.22087E+01   -0.83771E+01  9344   0.628E+01    0.121E+01
DAV:   2    -0.990732899701E+02    0.12721E+01   -0.13949E+01  7872   0.149E+01    0.449E+00
DAV:   3    -0.987018254411E+02    0.37146E+00   -0.20183E+00 10944   0.531E+00    0.342E+00
DAV:   4    -0.987195645418E+02   -0.17739E-01   -0.13157E+00 10944   0.508E+00    0.332E+00
DAV:   5    -0.985727484167E+02    0.14682E+00   -0.58435E-01 12480   0.197E+00    0.120E+00
DAV:   6    -0.985671465134E+02    0.56019E-02   -0.67630E-02  9984   0.914E-01    0.797E-01
DAV:   7    -0.985752279973E+02   -0.80815E-02   -0.11943E-02 10944   0.388E-01    0.495E-01
DAV:   8    -0.985844846424E+02   -0.92566E-02   -0.17934E-02 12160   0.301E-01    0.691E-02
DAV:   9    -0.985847259580E+02   -0.24132E-03   -0.29292E-03  9344   0.147E-01    0.847E-02
DAV:  10    -0.985847646447E+02   -0.38687E-04   -0.19893E-04  9856   0.486E-02    0.132E-02
DAV:  11    -0.985847605490E+02    0.40957E-05   -0.46156E-06  7680   0.971E-03
   4 F= -.98584761E+02 E0= -.98548217E+02  d E =-.448050E+00
       N       E                     dE             d eps       ncg     rms          rms(c)
DAV:   1    -0.986152745339E+02   -0.30510E-01   -0.43182E+00  8960   0.143E+01    0.149E+00
DAV:   2    -0.986343772675E+02   -0.19103E-01   -0.51086E-01  7680   0.250E+00    0.118E+00
DAV:   3    -0.986301866488E+02    0.41906E-02   -0.18964E-01 10304   0.141E+00    0.114E+00
DAV:   4    -0.986131803736E+02    0.17006E-01   -0.57800E-02 10304   0.990E-01    0.340E-01
DAV:   5    -0.986140394151E+02   -0.85904E-03   -0.16423E-02 11712   0.478E-01    0.433E-01
DAV:   6    -0.986116940796E+02    0.23453E-02   -0.75302E-03 11264   0.317E-01    0.948E-02
DAV:   7    -0.986118195243E+02   -0.12544E-03   -0.26741E-04 10112   0.496E-02    0.673E-02
DAV:   8    -0.986119350828E+02   -0.11556E-03   -0.17488E-04 11456   0.371E-02    0.990E-03
DAV:   9    -0.986119396157E+02   -0.45329E-05   -0.30647E-05  9408   0.155E-02
   5 F= -.98611940E+02 E0= -.98575855E+02  d E =-.271791E-01
       N       E                     dE             d eps       ncg     rms          rms(c)
DAV:   1    -0.986078370490E+02    0.40980E-02   -0.22458E+00  9792   0.121E+01    0.439E-01
DAV:   2    -0.986267093457E+02   -0.18872E-01   -0.20189E-01  7680   0.138E+00    0.567E-01
DAV:   3    -0.986234912031E+02    0.32181E-02   -0.20941E-02 10752   0.553E-01    0.240E-01
DAV:   4    -0.986229007667E+02    0.59044E-03   -0.32850E-03 11456   0.206E-01    0.147E-01
DAV:   5    -0.986227633022E+02    0.13746E-03   -0.20831E-03 10048   0.153E-01    0.111E-01
DAV:   6    -0.986226181511E+02    0.14515E-03   -0.45115E-04 10432   0.763E-02    0.299E-02
DAV:   7    -0.986226147278E+02    0.34234E-05   -0.21453E-05  8704   0.185E-02
   6 F= -.98622615E+02 E0= -.98586904E+02  d E =-.106751E-01
       N       E                     dE             d eps       ncg     rms          rms(c)
DAV:   1    -0.986128674685E+02    0.97507E-02   -0.21470E+00  9984   0.124E+01    0.475E-01
DAV:   2    -0.986311945268E+02   -0.18327E-01   -0.20154E-01  7680   0.142E+00    0.559E-01
DAV:   3    -0.986282586866E+02    0.29358E-02   -0.20067E-02 10944   0.570E-01    0.272E-01
DAV:   4    -0.986271844579E+02    0.10742E-02   -0.26903E-03 10304   0.215E-01    0.858E-02
DAV:   5    -0.986273347293E+02   -0.15027E-03   -0.14819E-03 10688   0.128E-01    0.132E-01
DAV:   6    -0.986270999525E+02    0.23478E-03   -0.74502E-04  9920   0.923E-02    0.209E-02
DAV:   7    -0.986270953507E+02    0.46018E-05   -0.23856E-05  9600   0.172E-02
   7 F= -.98627095E+02 E0= -.98591628E+02  d E =-.448062E-02
       N       E                     dE             d eps       ncg     rms          rms(c)
DAV:   1    -0.986299502437E+02   -0.28503E-02   -0.14418E-01  8768   0.273E+00    0.461E-01
DAV:   2    -0.986284300296E+02    0.15202E-02   -0.22031E-02  7744   0.570E-01    0.170E-01
DAV:   3    -0.986281302844E+02    0.29975E-03   -0.42260E-03 10240   0.250E-01    0.182E-01
DAV:   4    -0.986277809254E+02    0.34936E-03   -0.23997E-03 10368   0.161E-01    0.852E-02
DAV:   5    -0.986277142074E+02    0.66718E-04   -0.50241E-04 11200   0.719E-02    0.380E-02
DAV:   6    -0.986277151220E+02   -0.91469E-06   -0.58717E-05  9920   0.303E-02
   8 F= -.98627715E+02 E0= -.98592276E+02  d E =-.619771E-03
       N       E                     dE             d eps       ncg     rms          rms(c)
DAV:   1    -0.986273135145E+02    0.40069E-03   -0.22963E-01  9024   0.361E+00    0.197E-01
DAV:   2    -0.986286158809E+02   -0.13024E-02   -0.20285E-02  7808   0.425E-01    0.110E-01
DAV:   3    -0.986287049810E+02   -0.89100E-04   -0.22048E-03 12032   0.176E-01    0.143E-01
DAV:   4    -0.986284365225E+02    0.26846E-03   -0.10218E-03 10176   0.103E-01    0.376E-02
DAV:   5    -0.986284522125E+02   -0.15690E-04   -0.14872E-04 12032   0.402E-02    0.368E-02
DAV:   6    -0.986284448965E+02    0.73160E-05   -0.46812E-05 10240   0.276E-02
   9 F= -.98628445E+02 E0= -.98592974E+02  d E =-.729774E-03
       N       E                     dE             d eps       ncg     rms          rms(c)
DAV:   1    -0.986293093407E+02   -0.85713E-03   -0.29262E-02  8512   0.117E+00    0.272E-01
DAV:   2    -0.986286647062E+02    0.64463E-03   -0.56152E-03  8064   0.306E-01    0.102E-01
DAV:   3    -0.986285577942E+02    0.10691E-03   -0.14074E-03 10368   0.156E-01    0.112E-01
DAV:   4    -0.986284285450E+02    0.12925E-03   -0.76665E-04 10816   0.106E-01    0.487E-02
DAV:   5    -0.986284094504E+02    0.19095E-04   -0.18797E-04 12160   0.419E-02    0.322E-02
DAV:   6    -0.986283979140E+02    0.11536E-04   -0.44748E-05  9856   0.237E-02    0.122E-02
DAV:   7    -0.986283998480E+02   -0.19340E-05   -0.31716E-06  4736   0.523E-03
  10 F= -.98628400E+02 E0= -.98592900E+02  d E =0.450485E-04
       N       E                     dE             d eps       ncg     rms          rms(c)
DAV:   1    -0.986357252914E+02   -0.73274E-02   -0.21773E-01  8576   0.308E+00    0.766E-01
DAV:   2    -0.986301251233E+02    0.56002E-02   -0.44136E-02  8128   0.873E-01    0.284E-01
DAV:   3    -0.986290923353E+02    0.10328E-02   -0.10304E-02 10368   0.419E-01    0.291E-01
DAV:   4    -0.986282908762E+02    0.80146E-03   -0.54779E-03 10752   0.309E-01    0.139E-01
DAV:   5    -0.986281389505E+02    0.15193E-03   -0.13722E-03 12608   0.116E-01    0.761E-02
DAV:   6    -0.986281029355E+02    0.36015E-04   -0.24781E-04 10432   0.523E-02    0.424E-02
DAV:   7    -0.986281542043E+02   -0.51269E-04   -0.37622E-05 11520   0.178E-02    0.275E-02
DAV:   8    -0.986282085790E+02   -0.54375E-04   -0.86032E-05 11968   0.183E-02    0.350E-03
DAV:   9    -0.986282102334E+02   -0.16544E-05   -0.13050E-05  6976   0.828E-03
  11 F= -.98628210E+02 E0= -.98592736E+02  d E =0.189615E-03
       N       E                     dE             d eps       ncg     rms          rms(c)
DAV:   1    -0.986290572437E+02   -0.84866E-03   -0.35439E-02  8832   0.134E+00    0.215E-01
DAV:   2    -0.986287943226E+02    0.26292E-03   -0.52585E-03  7680   0.275E-01    0.832E-02
DAV:   3    -0.986287509616E+02    0.43361E-04   -0.10406E-03 10880   0.134E-01    0.978E-02
DAV:   4    -0.986286436923E+02    0.10727E-03   -0.50984E-04 10688   0.883E-02    0.335E-02
DAV:   5    -0.986286365524E+02    0.71399E-05   -0.93288E-05 12224   0.305E-02
  12 F= -.98628637E+02 E0= -.98593151E+02  d E =-.426319E-03
       N       E                     dE             d eps       ncg     rms          rms(c)
DAV:   1    -0.987588279585E+02   -0.13018E+00   -0.58545E+00  8320   0.163E+01    0.346E+00
DAV:   2    -0.986640969900E+02    0.94731E-01   -0.10686E+00  7808   0.410E+00    0.135E+00
DAV:   3    -0.986552129787E+02    0.88840E-02   -0.28524E-01 10880   0.241E+00    0.162E+00
DAV:   4    -0.986229854399E+02    0.32228E-01   -0.15566E-01 10240   0.112E+00    0.534E-01
DAV:   5    -0.986229509085E+02    0.34531E-04   -0.30759E-02 11392   0.628E-01    0.488E-01
DAV:   6    -0.986207629941E+02    0.21879E-02   -0.97590E-03 10560   0.363E-01    0.192E-01
DAV:   7    -0.986217416390E+02   -0.97864E-03   -0.95268E-04 11328   0.871E-02    0.138E-01
DAV:   8    -0.986227789123E+02   -0.10373E-02   -0.21572E-03 12480   0.867E-02    0.252E-02
DAV:   9    -0.986228109987E+02   -0.32086E-04   -0.24794E-04  8448   0.370E-02    0.209E-02
DAV:  10    -0.986228089597E+02    0.20391E-05   -0.21249E-05 11008   0.147E-02
  13 F= -.98622809E+02 E0= -.98586808E+02  d E =0.582759E-02
       N       E                     dE             d eps       ncg     rms          rms(c)
DAV:   1    -0.986868444974E+02   -0.64033E-01   -0.21001E+00  8576   0.973E+00    0.219E+00
DAV:   2    -0.986447731640E+02    0.42071E-01   -0.39328E-01  8000   0.255E+00    0.839E-01
DAV:   3    -0.986427766493E+02    0.19965E-02   -0.12105E-01 11200   0.125E+00    0.107E+00
DAV:   4    -0.986291537197E+02    0.13623E-01   -0.58691E-02 10240   0.104E+00    0.337E-01
DAV:   5    -0.986292906414E+02   -0.13692E-03   -0.13191E-02 11200   0.361E-01    0.332E-01
DAV:   6    -0.986281977708E+02    0.10929E-02   -0.45580E-03 10688   0.238E-01    0.116E-01
DAV:   7    -0.986285936254E+02   -0.39585E-03   -0.33052E-04 12096   0.501E-02    0.882E-02
DAV:   8    -0.986290707612E+02   -0.47714E-03   -0.82588E-04 12160   0.565E-02    0.123E-02
DAV:   9    -0.986290862763E+02   -0.15515E-04   -0.11911E-04  8768   0.261E-02    0.152E-02
DAV:  10    -0.986290919354E+02   -0.56591E-05   -0.10069E-05  9408   0.105E-02
  14 F= -.98629092E+02 E0= -.98593476E+02  d E =-.628298E-02
       N       E                     dE             d eps       ncg     rms          rms(c)
DAV:   1    -0.986355458549E+02   -0.64596E-02   -0.17634E-01  8192   0.272E+00    0.702E-01
DAV:   2    -0.986309047245E+02    0.46411E-02   -0.36256E-02  8384   0.790E-01    0.266E-01
DAV:   3    -0.986308196858E+02    0.85039E-04   -0.12848E-02 10944   0.404E-01    0.347E-01
DAV:   4    -0.986293002471E+02    0.15194E-02   -0.66267E-03 10368   0.314E-01    0.104E-01
DAV:   5    -0.986293019904E+02   -0.17434E-05   -0.12131E-03 10944   0.111E-01    0.953E-02
DAV:   6    -0.986292243262E+02    0.77664E-04   -0.36029E-04 11456   0.725E-02    0.380E-02
DAV:   7    -0.986292679879E+02   -0.43662E-04   -0.32104E-05 11072   0.160E-02    0.277E-02
DAV:   8    -0.986293272772E+02   -0.59289E-04   -0.93861E-05 12864   0.177E-02    0.604E-03
DAV:   9    -0.986293298415E+02   -0.25643E-05   -0.69362E-06  6528   0.680E-03
  15 F= -.98629330E+02 E0= -.98593832E+02  d E =-.237906E-03
