 vasp.6.5.0 16Dec24 (build Apr 17 2025 17:55:45) complex                        
  
 executed on             LinuxIFC date 2025.06.03  21:52:51
 running   64 mpi-ranks, on    1 nodes
 distrk:  each k-point on   64 cores,    1 groups
 distr:  one band on NCORE=   1 cores,   64 groups


--------------------------------------------------------------------------------------------------------


 INCAR:
   SYSTEM = CaNi2
   ISTART = 0
   ICHARG = 2
   PREC = N
   LREAL = .FALSE.
   ENCUT = 520
   ALGO = N
   NELM = 500
   EDIFF = 1E-05
   IBRION = 1
   ISIF = 3
   NSW = 300
   EDIFFG = -0.01
   ISMEAR = 0
   SIGMA = 0.1

 POTCAR:    PAW_PBE Ti_sv 26Sep2005               
 POTCAR:    PAW_PBE Al 04Jan2001                  
 POTCAR:    PAW_PBE Ga_d 06Jul2010                
 -----------------------------------------------------------------------------
|                                                                             |
|           W    W    AA    RRRRR   N    N  II  N    N   GGGG   !!!           |
|           W    W   A  A   R    R  NN   N  II  NN   N  G    G  !!!           |
|           W    W  A    A  R    R  N N  N  II  N N  N  G       !!!           |
|           W WW W  AAAAAA  RRRRR   N  N N  II  N  N N  G  GGG   !            |
|           WW  WW  A    A  R   R   N   NN  II  N   NN  G    G                |
|           W    W  A    A  R    R  N    N  II  N    N   GGGG   !!!           |
|                                                                             |
|     For optimal performance we recommend to set                             |
|       NCORE = 2 up to number-of-cores-per-socket                            |
|     NCORE specifies how many cores store one orbital (NPAR=cpu/NCORE).      |
|     This setting can greatly improve the performance of VASP for DFT.       |
|     The default, NCORE=1 might be grossly inefficient on modern             |
|     multi-core architectures or massively parallel machines. Do your        |
|     own testing! More info at https://www.vasp.at/wiki/index.php/NCORE      |
|     Unfortunately you need to use the default for GW and RPA                |
|     calculations (for HF NCORE is supported but not extensively tested      |
|     yet).                                                                   |
|                                                                             |
 -----------------------------------------------------------------------------

 POTCAR:    PAW_PBE Ti_sv 26Sep2005               
   SHA256 =  4d747badb5a5ea28d858fbac70885b3f8929d6fd9e5b0dbe1ecb9878dc164da1 Ti_sv/POTCAR          
   COPYR  = (c) Copyright 26Sep2005 Georg Kresse                                                    
   COPYR  = This file is part of the software VASP. Any use, copying, and all other rights are regul
   COPYR  = If you do not have a valid VASP license, you may not use, copy or distribute this file. 
   VRHFIN =Ti: 3p4s3d                                                                               
   LEXCH  = PE                                                                                      
   EATOM  =  1588.0892 eV,  116.7213 Ry                                                             
                                                                                                    
   TITEL  = PAW_PBE Ti_sv 26Sep2005                                                                 
   LULTRA =        F    use ultrasoft PP ?                                                          
   IUNSCR =        1    unscreen: 0-lin 1-nonlin 2-no                                               
   RPACOR =    2.000    partial core radius                                                         
   POMASS =   47.880; ZVAL   =   12.000    mass and valenz                                          
   RCORE  =    2.300    outmost cutoff radius                                                       
   RWIGS  =    2.300; RWIGS  =    1.217    wigner-seitz radius (au A)                               
   ENMAX  =  274.610; ENMIN  =  205.957 eV                                                          
   ICORE  =        3    local potential                                                             
   LCOR   =        T    correct aug charges                                                         
   LPAW   =        T    paw PP                                                                      
   EAUG   =  482.848                                                                                
   RMAX   =    2.348    core radius for proj-oper                                                   
   RAUG   =    1.300    factor for augmentation sphere                                              
   RDEP   =    2.381    radius for radial grids                                                     
   RDEPT  =    1.930    core radius for aug-charge                                                  
                                                                                                    
   Atomic configuration                                                                             
    8 entries                                                                                       
     n  l   j            E        occ.                                                              
     1  0  0.50     -4865.3608   2.0000                                                             
     2  0  0.50      -533.1368   2.0000                                                             
     2  1  1.50      -440.5031   6.0000                                                             
     3  0  0.50       -59.3186   2.0000                                                             
     4  0  0.50        -3.7291   1.0000                                                             
     3  1  1.50       -35.7012   6.0000                                                             
     3  2  2.50        -1.9157   3.0000                                                             
     4  3  2.50        -1.3606   0.0000                                                             
   Description                                                                                      
     l       E           TYP  RCUT    TYP  RCUT                                                     
     0    -59.3185931     23  1.800                                                                 
     0     -3.7290822     23  2.300                                                                 
     1    -35.7012045     23  2.300                                                                 
     1     -1.3605826     23  2.300                                                                 
     2     -1.9156920     23  2.300                                                                 
     2     -0.0236318     23  2.300                                                                 
     3     -1.3605826     23  2.300                                                                 
  local pseudopotential read in
  partial core-charges read in
  partial kinetic energy density read in
  atomic valenz-charges read in
  non local Contribution for L=           0  read in
    real space projection operators read in
  non local Contribution for L=           0  read in
    real space projection operators read in
  non local Contribution for L=           1  read in
    real space projection operators read in
  non local Contribution for L=           1  read in
    real space projection operators read in
  non local Contribution for L=           2  read in
    real space projection operators read in
  non local Contribution for L=           2  read in
    real space projection operators read in
    PAW grid and wavefunctions read in
 
   number of l-projection  operators is LMAX  =           6
   number of lm-projection operators is LMMAX =          18
 
 POTCAR:    PAW_PBE Al 04Jan2001                  
   SHA256 =  17880443556af62b473fe41b62a467bd001ad55d2cabe504a3f22e34d4e9db96 Al/POTCAR             
   COPYR  = (c) Copyright 04Jan2001 Georg Kresse                                                    
   COPYR  = This file is part of the software VASP. Any use, copying, and all other rights are regul
   COPYR  = If you do not have a valid VASP license, you may not use, copy or distribute this file. 
   VRHFIN =Al: s2p1                                                                                 
   LEXCH  = PE                                                                                      
   EATOM  =    53.5387 eV,    3.9350 Ry                                                             
                                                                                                    
   TITEL  = PAW_PBE Al 04Jan2001                                                                    
   LULTRA =        F    use ultrasoft PP ?                                                          
   IUNSCR =        1    unscreen: 0-lin 1-nonlin 2-no                                               
   RPACOR =    1.500    partial core radius                                                         
   POMASS =   26.981; ZVAL   =    3.000    mass and valenz                                          
   RCORE  =    1.900    outmost cutoff radius                                                       
   RWIGS  =    2.650; RWIGS  =    1.402    wigner-seitz radius (au A)                               
   ENMAX  =  240.300; ENMIN  =  180.225 eV                                                          
   ICORE  =        2    local potential                                                             
   LCOR   =        T    correct aug charges                                                         
   LPAW   =        T    paw PP                                                                      
   EAUG   =  291.052                                                                                
   DEXC   =    0.000                                                                                
   RMAX   =    1.939    core radius for proj-oper                                                   
   RAUG   =    1.300    factor for augmentation sphere                                              
   RDEP   =    1.966    radius for radial grids                                                     
   RDEPT  =    1.856    core radius for aug-charge                                                  
                                                                                                    
   Atomic configuration                                                                             
    6 entries                                                                                       
     n  l   j            E        occ.                                                              
     1  0  0.50     -1511.1048   2.0000                                                             
     2  0  0.50      -108.1629   2.0000                                                             
     2  1  1.50       -69.6402   6.0000                                                             
     3  0  0.50        -7.7528   2.0000                                                             
     3  1  1.50        -2.7121   1.0000                                                             
     3  2  2.50        -2.7212   0.0000                                                             
   Description                                                                                      
     l       E           TYP  RCUT    TYP  RCUT                                                     
     0     -7.7528455     23  1.900                                                                 
     0     -3.3096929     23  1.900                                                                 
     1     -2.7120682     23  1.900                                                                 
     1     13.6058260     23  1.900                                                                 
     2     -2.7211652      7  1.900                                                                 
  local pseudopotential read in
  partial core-charges read in
  partial kinetic energy density read in
  atomic valenz-charges read in
  non local Contribution for L=           0  read in
    real space projection operators read in
  non local Contribution for L=           0  read in
    real space projection operators read in
  non local Contribution for L=           1  read in
    real space projection operators read in
  non local Contribution for L=           1  read in
    real space projection operators read in
    PAW grid and wavefunctions read in
 
   number of l-projection  operators is LMAX  =           4
   number of lm-projection operators is LMMAX =           8
 
 POTCAR:    PAW_PBE Ga_d 06Jul2010                
   SHA256 =  a60ddf36e14f00ea098d9e3914b3745f1b7105e68786148f49ae384e44b4226c Ga_d/POTCAR           
   COPYR  = (c) Copyright 06Jul2010 Georg Kresse                                                    
   COPYR  = This file is part of the software VASP. Any use, copying, and all other rights are regul
   COPYR  = If you do not have a valid VASP license, you may not use, copy or distribute this file. 
   VRHFIN =Ga: s2p1                                                                                 
   LEXCH  = PE                                                                                      
   EATOM  =  2148.8298 eV,  157.9345 Ry                                                             
                                                                                                    
   TITEL  = PAW_PBE Ga_d 06Jul2010                                                                  
   LULTRA =        F    use ultrasoft PP ?                                                          
   IUNSCR =        1    unscreen: 0-lin 1-nonlin 2-no                                               
   RPACOR =    1.700    partial core radius                                                         
   POMASS =   69.723; ZVAL   =   13.000    mass and valenz                                          
   RCORE  =    2.300    outmost cutoff radius                                                       
   RWIGS  =    2.300; RWIGS  =    1.217    wigner-seitz radius (au A)                               
   ENMAX  =  282.691; ENMIN  =  212.018 eV                                                          
   ICORE  =        3    local potential                                                             
   LCOR   =        T    correct aug charges                                                         
   LPAW   =        T    paw PP                                                                      
   EAUG   =  490.690                                                                                
   DEXC   =    0.000                                                                                
   RMAX   =    2.341    core radius for proj-oper                                                   
   RAUG   =    1.300    factor for augmentation sphere                                              
   RDEP   =    2.413    radius for radial grids                                                     
   RDEPT  =    1.856    core radius for aug-charge                                                  
                                                                                                    
   Atomic configuration                                                                             
    9 entries                                                                                       
     n  l   j            E        occ.                                                              
     1  0  0.50    -10228.7831   2.0000                                                             
     2  0  0.50     -1262.1604   2.0000                                                             
     2  1  1.50     -1098.6333   6.0000                                                             
     3  0  0.50      -148.1110   2.0000                                                             
     3  1  1.50       -98.8436   6.0000                                                             
     3  2  2.50       -19.1549  10.0000                                                             
     4  0  0.50        -8.9483   2.0000                                                             
     4  1  0.50        -2.5791   1.0000                                                             
     4  3  2.50        -2.7416   0.0000                                                             
   Description                                                                                      
     l       E           TYP  RCUT    TYP  RCUT                                                     
     2    -19.1549037     23  2.300                                                                 
     2     -5.4423304     23  2.300                                                                 
     0     -8.9483111     23  2.300                                                                 
     0     68.0291300     23  2.300                                                                 
     1     -2.5790802     23  2.100                                                                 
     1     81.6349560     23  2.300                                                                 
     3      6.8029130     23  2.300                                                                 
  local pseudopotential read in
  partial core-charges read in
  partial kinetic energy density read in
  atomic valenz-charges read in
  non local Contribution for L=           2  read in
    real space projection operators read in
  non local Contribution for L=           2  read in
    real space projection operators read in
  non local Contribution for L=           0  read in
    real space projection operators read in
  non local Contribution for L=           0  read in
    real space projection operators read in
  non local Contribution for L=           1  read in
    real space projection operators read in
  non local Contribution for L=           1  read in
    real space projection operators read in
    PAW grid and wavefunctions read in
 
   number of l-projection  operators is LMAX  =           6
   number of lm-projection operators is LMMAX =          18
 
 -----------------------------------------------------------------------------
|                                                                             |
|               ----> ADVICE to this user running VASP <----                  |
|                                                                             |
|     You have a (more or less) 'large supercell' and for larger cells it     |
|     might be more efficient to use real-space projection operators.         |
|     Therefore, try LREAL= Auto in the INCAR file.                           |
|     Mind: For very accurate calculation, you might also keep the            |
|     reciprocal projection scheme (i.e. LREAL=.FALSE.).                      |
|                                                                             |
 -----------------------------------------------------------------------------

  PAW_PBE Ti_sv 26Sep2005               :
 energy of atom  1       EATOM=-1588.0892
 kinetic energy error for atom=    0.0042 (will be added to EATOM!!)
  PAW_PBE Al 04Jan2001                  :
 energy of atom  2       EATOM=  -53.5387
 kinetic energy error for atom=    0.0002 (will be added to EATOM!!)
  PAW_PBE Ga_d 06Jul2010                :
 energy of atom  3       EATOM=-2148.8298
 kinetic energy error for atom=    0.0026 (will be added to EATOM!!)
 
 
 POSCAR: Ti1 Al1
  positions in direct lattice
  velocities in cartesian coordinates


 exchange-correlation table for PE
   RHO(1)=    0.500       N(1)  =     2000
   RHO(2)=  100.500       N(2)  =     4000
 


--------------------------------------------------------------------------------------------------------


 ion  position               nearest neighbor table
   1  0.000  0.000  0.000-   3 2.82   5 2.82   3 2.82   5 2.82  11 2.85  12 2.85  13 2.85  14 2.85
                            15 2.85  16 2.85   9 2.85  10 2.85
   2  0.000  0.000  0.500-   4 2.82   6 2.82   4 2.82   6 2.82  11 2.85  12 2.85  13 2.85  14 2.85
                            15 2.85  16 2.85   9 2.85  10 2.85
   3  0.000  0.500  0.000-   1 2.82   7 2.82   1 2.82   7 2.82  11 2.85  12 2.85  13 2.85  14 2.85
                            15 2.85  16 2.85   9 2.85  10 2.85
   4  0.000  0.500  0.500-   2 2.82   8 2.82   2 2.82   8 2.82  11 2.85  12 2.85  13 2.85  14 2.85
                            15 2.85  16 2.85   9 2.85  10 2.85
   5  0.500  0.000  0.000-   1 2.82   7 2.82   7 2.82   1 2.82  11 2.85  12 2.85  13 2.85  14 2.85
                            15 2.85  16 2.85   9 2.85  10 2.85
   6  0.500  0.000  0.500-   2 2.82   8 2.82   8 2.82   2 2.82  11 2.85  12 2.85  13 2.85  14 2.85
                            15 2.85  16 2.85   9 2.85  10 2.85
   7  0.500  0.500  0.000-  17 2.04   5 2.82   3 2.82   5 2.82   3 2.82  12 2.85  13 2.85  14 2.85
                            15 2.85  16 2.85   9 2.85  10 2.85  11 2.85
   8  0.500  0.500  0.500-  17 2.04   6 2.82   4 2.82   6 2.82   4 2.82  12 2.85  13 2.85  14 2.85
                            15 2.85  16 2.85   9 2.85  10 2.85  11 2.85
   9  0.250  0.250  0.250-  11 2.82  13 2.82  11 2.82  13 2.82   5 2.85   6 2.85   7 2.85   8 2.85
                             1 2.85   2 2.85   3 2.85   4 2.85
  10  0.250  0.250  0.750-  17 2.00  14 2.82  12 2.82  12 2.82  14 2.82   6 2.85   7 2.85   8 2.85
                             1 2.85   2 2.85   3 2.85   4 2.85   5 2.85
  11  0.250  0.750  0.250-   9 2.82  15 2.82   9 2.82  15 2.82   5 2.85   6 2.85   7 2.85   8 2.85
                             1 2.85   2 2.85   3 2.85   4 2.85
  12  0.250  0.750  0.750-  17 2.00  16 2.82  10 2.82  10 2.82  16 2.82   6 2.85   7 2.85   8 2.85
                             1 2.85   2 2.85   3 2.85   4 2.85   5 2.85
  13  0.750  0.250  0.250-   9 2.82  15 2.82  15 2.82   9 2.82   5 2.85   6 2.85   7 2.85   8 2.85
                             1 2.85   2 2.85   3 2.85   4 2.85
  14  0.750  0.250  0.750-  17 2.00  16 2.82  10 2.82  16 2.82  10 2.82   6 2.85   7 2.85   8 2.85
                             1 2.85   2 2.85   3 2.85   4 2.85   5 2.85
  15  0.750  0.750  0.250-  11 2.82  13 2.82  13 2.82  11 2.82   5 2.85   6 2.85   7 2.85   8 2.85
                             1 2.85   2 2.85   3 2.85   4 2.85
  16  0.750  0.750  0.750-  17 2.00  14 2.82  12 2.82  14 2.82  12 2.82   6 2.85   7 2.85   8 2.85
                             1 2.85   2 2.85   3 2.85   4 2.85   5 2.85
  17  0.500  0.500  0.750-  10 2.00  12 2.00  14 2.00  16 2.00   7 2.04   8 2.04
 
  LATTYP: Found a simple tetragonal cell.
 ALAT       =     5.6476373672
 C/A-ratio  =     1.4414285973
  
  Lattice vectors:
  
 A1 = (   5.6476373672,   0.0000000000,   0.0000000000)
 A2 = (   0.0000000000,   5.6476373672,   0.0000000000)
 A3 = (   0.0000000000,   0.0000000000,   8.1406660080)


Analysis of symmetry for initial positions (statically):
=====================================================================
 Subroutine PRICEL returns:
 Original cell was already a primitive cell.
 

 Routine SETGRP: Setting up the symmetry group for a 
 simple tetragonal supercell.


 Subroutine GETGRP returns: Found 16 space group operations
 (whereof  8 operations were pure point group operations)
 out of a pool of 16 trial point group operations.


The static configuration has the point symmetry C_4v.
 The point group associated with its full space group is D_4h.


Analysis of symmetry for dynamics (positions and initial velocities):
=====================================================================
 Subroutine PRICEL returns:
 Original cell was already a primitive cell.
 

 Routine SETGRP: Setting up the symmetry group for a 
 simple tetragonal supercell.


 Subroutine GETGRP returns: Found 16 space group operations
 (whereof  8 operations were pure point group operations)
 out of a pool of 16 trial point group operations.


The dynamic configuration has the point symmetry C_4v.
 The point group associated with its full space group is D_4h.


 Subroutine INISYM returns: Found 16 space group operations
 (whereof  8 operations are pure point group operations),
 and found     1 'primitive' translations


----------------------------------------------------------------------------------------

                                     Primitive cell                                     

  volume of cell :     259.6531

  direct lattice vectors                    reciprocal lattice vectors
     5.647637367  0.000000000  0.000000000     0.177065193  0.000000000  0.000000000
     0.000000000  5.647637367  0.000000000     0.000000000  0.177065193  0.000000000
     0.000000000  0.000000000  8.140666008     0.000000000  0.000000000  0.122840072

  length of vectors
     5.647637367  5.647637367  8.140666008     0.177065193  0.177065193  0.122840072

  position of ions in fractional coordinates (direct lattice)
     0.000000000  0.000000000  0.000000000
     0.000000000  0.000000000  0.500000000
     0.000000000  0.500000000  0.000000000
     0.000000000  0.500000000  0.500000000
     0.500000000  0.000000000  0.000000000
     0.500000000  0.000000000  0.500000000
     0.500000000  0.500000000  0.000000000
     0.500000000  0.500000000  0.500000000
     0.250000000  0.250000000  0.250000000
     0.250000000  0.250000000  0.750000000
     0.250000000  0.750000000  0.250000000
     0.250000000  0.750000000  0.750000000
     0.750000000  0.250000000  0.250000000
     0.750000000  0.250000000  0.750000000
     0.750000000  0.750000000  0.250000000
     0.750000000  0.750000000  0.750000000
     0.500000000  0.500000000  0.750000000

  ion indices of the primitive-cell ions
   primitive index   ion index
                 1           1
                 2           2
                 3           3
                 4           4
                 5           5
                 6           6
                 7           7
                 8           8
                 9           9
                10          10
                11          11
                12          12
                13          13
                14          14
                15          15
                16          16
                17          17

----------------------------------------------------------------------------------------

 
 
 KPOINTS: K-Spacing Value to Generate K-Mesh: 0.03

Automatic generation of k-mesh.
 Grid dimensions read from file:
 generate k-points for:    6    6    4

 Generating k-lattice:

  Cartesian coordinates                     Fractional coordinates (reciprocal lattice)
     0.029510865  0.000000000  0.000000000     0.166666667  0.000000000  0.000000000
     0.000000000  0.029510865  0.000000000     0.000000000  0.166666667  0.000000000
     0.000000000  0.000000000  0.030710018     0.000000000  0.000000000  0.250000000

  Length of vectors
     0.029510865  0.029510865  0.030710018

  Shift w.r.t. Gamma in fractional coordinates (k-lattice)
     0.000000000  0.000000000  0.000000000

 
 Subroutine IBZKPT returns following result:
 ===========================================
 
 Found     30 irreducible k-points:
 
 Following reciprocal coordinates:
            Coordinates               Weight
  0.000000  0.000000  0.000000      1.000000
  0.166667  0.000000  0.000000      4.000000
  0.333333  0.000000  0.000000      4.000000
  0.500000  0.000000  0.000000      2.000000
  0.166667  0.166667  0.000000      4.000000
  0.333333  0.166667  0.000000      8.000000
  0.500000  0.166667  0.000000      4.000000
  0.333333  0.333333  0.000000      4.000000
  0.500000  0.333333  0.000000      4.000000
  0.500000  0.500000  0.000000      1.000000
  0.000000  0.000000  0.250000      2.000000
  0.166667  0.000000  0.250000      8.000000
  0.333333  0.000000  0.250000      8.000000
  0.500000  0.000000  0.250000      4.000000
  0.166667  0.166667  0.250000      8.000000
  0.333333  0.166667  0.250000     16.000000
  0.500000  0.166667  0.250000      8.000000
  0.333333  0.333333  0.250000      8.000000
  0.500000  0.333333  0.250000      8.000000
  0.500000  0.500000  0.250000      2.000000
  0.000000  0.000000  0.500000      1.000000
  0.166667  0.000000  0.500000      4.000000
  0.333333  0.000000  0.500000      4.000000
  0.500000  0.000000  0.500000      2.000000
  0.166667  0.166667  0.500000      4.000000
  0.333333  0.166667  0.500000      8.000000
  0.500000  0.166667  0.500000      4.000000
  0.333333  0.333333  0.500000      4.000000
  0.500000  0.333333  0.500000      4.000000
  0.500000  0.500000  0.500000      1.000000
 
 Following cartesian coordinates:
            Coordinates               Weight
  0.000000  0.000000  0.000000      1.000000
  0.029511  0.000000  0.000000      4.000000
  0.059022  0.000000  0.000000      4.000000
  0.088533  0.000000  0.000000      2.000000
  0.029511  0.029511  0.000000      4.000000
  0.059022  0.029511  0.000000      8.000000
  0.088533  0.029511  0.000000      4.000000
  0.059022  0.059022  0.000000      4.000000
  0.088533  0.059022  0.000000      4.000000
  0.088533  0.088533  0.000000      1.000000
  0.000000  0.000000  0.030710      2.000000
  0.029511  0.000000  0.030710      8.000000
  0.059022  0.000000  0.030710      8.000000
  0.088533  0.000000  0.030710      4.000000
  0.029511  0.029511  0.030710      8.000000
  0.059022  0.029511  0.030710     16.000000
  0.088533  0.029511  0.030710      8.000000
  0.059022  0.059022  0.030710      8.000000
  0.088533  0.059022  0.030710      8.000000
  0.088533  0.088533  0.030710      2.000000
  0.000000  0.000000  0.061420      1.000000
  0.029511  0.000000  0.061420      4.000000
  0.059022  0.000000  0.061420      4.000000
  0.088533  0.000000  0.061420      2.000000
  0.029511  0.029511  0.061420      4.000000
  0.059022  0.029511  0.061420      8.000000
  0.088533  0.029511  0.061420      4.000000
  0.059022  0.059022  0.061420      4.000000
  0.088533  0.059022  0.061420      4.000000
  0.088533  0.088533  0.061420      1.000000
 


--------------------------------------------------------------------------------------------------------




 Dimension of arrays:
   k-points           NKPTS =     30   k-points in BZ     NKDIM =     30   number of bands    NBANDS=    128
   number of dos      NEDOS =    301   number of ions     NIONS =     17
   non local maximal  LDIM  =      6   non local SUM 2l+1 LMDIM =     18
   total plane-waves  NPLWV =  49152
   max r-space proj   IRMAX =      1   max aug-charges    IRDMAX=   7566
   dimension x,y,z NGX =    32 NGY =   32 NGZ =   48
   dimension x,y,z NGXF=    64 NGYF=   64 NGZF=   96
   support grid    NGXF=    64 NGYF=   64 NGZF=   96
   ions per type =               8   8   1
   NGX,Y,Z   is equivalent  to a cutoff of   9.42,  9.42,  9.80 a.u.
   NGXF,Y,Z  is equivalent  to a cutoff of  18.84, 18.84, 19.60 a.u.

 SYSTEM =  CaNi2                                   
 POSCAR =  Ti1 Al1                                 

 Startparameter for this run:
   NWRITE =      2    write-flag & timer
   PREC   = n         normal or accurate (medium, high low for compatibility)
   ISTART =      0    job   : 0-new  1-cont  2-samecut
   ICHARG =      2    charge: 1-file 2-atom 10-const
   ISPIN  =      1    spin polarized calculation?
   LNONCOLLINEAR =      F non collinear calculations
   LSORBIT =      F    spin-orbit coupling
   INIWAV =      1    electr: 0-lowe 1-rand  2-diag
   LASPH  =      F    aspherical Exc in radial PAW
 Electronic Relaxation 1
   ENCUT  =  520.0 eV  38.22 Ry    6.18 a.u.  10.50 10.50 15.14*2*pi/ulx,y,z
   ENINI  =  520.0     initial cutoff
   ENAUG  =  490.7 eV  augmentation charge cutoff
   NELM   =    500;   NELMIN=  2; NELMDL= -5     # of ELM steps 
   EDIFF  = 0.1E-04   stopping-criterion for ELM
   LREAL  =      F    real-space projection
   NLSPLINE    = F    spline interpolate recip. space projectors
   LCOMPAT=      F    compatible to vasp.4.4
   GGA_COMPAT  = T    GGA compatible to vasp.4.4-vasp.4.6
   LMAXPAW     = -100 max onsite density
   LMAXMIX     =    2 max onsite mixed and CHGCAR
   VOSKOWN=      0    Vosko Wilk Nusair interpolation
   ROPT   =    0.00000   0.00000   0.00000
 Ionic relaxation
   EDIFFG = -.1E-01   stopping-criterion for IOM
   NSW    =    300    number of steps for IOM
   NBLOCK =      1;   KBLOCK =    300    inner block; outer block 
   IBRION =      1    ionic relax: 0-MD 1-quasi-New 2-CG
   NFREE  =      0    steps in history (QN), initial steepest desc. (CG)
   ISIF   =      3    stress and relaxation
   IWAVPR =     11    prediction:  0-non 1-charg 2-wave 3-comb
   ISYM   =      2    0-nonsym 1-usesym 2-fastsym
   LCORR  =      T    Harris-Foulkes like correction to forces

   POTIM  = 0.5000    time-step for ionic-motion
   TEIN   =    0.0    initial temperature
   TEBEG  =    0.0;   TEEND  =   0.0 temperature during run
   SMASS  =  -3.00    Nose mass-parameter (am)
   estimated Nose-frequenzy (Omega)   =  0.10E-29 period in steps = 0.13E+47 mass=  -0.729E-27a.u.
   SCALEE = 1.0000    scale energy and forces
   NPACO  =    256;   APACO  = 10.0  distance and # of slots for P.C.
   PSTRESS=    0.0 pullay stress

  Mass of Ions in am
   POMASS =  47.88 26.98 69.72
  Ionic Valenz
   ZVAL   =  12.00  3.00 13.00
  Atomic Wigner-Seitz radii
   RWIGS  =  -1.00 -1.00 -1.00
  virtual crystal weights 
   VCA    =   1.00  1.00  1.00
   NELECT =     133.0000    total number of electrons
   NUPDOWN=      -1.0000    fix difference up-down

 DOS related values:
   EMIN   =  10.00;   EMAX   =-10.00  energy-range for DOS
   EFERMI =   0.00;   METHOD = LEGACY      
   ISMEAR =     0;   SIGMA  =   0.10  broadening in eV -4-tet -1-fermi 0-gaus
   EFERMI_NEDOS =   21; number of points for ismear=-14 and -15

 Electronic relaxation 2 (details)
   IALGO  =     38    algorithm
   LDIAG  =      T    sub-space diagonalisation (order eigenvalues)
   LSUBROT=      F    optimize rotation matrix (better conditioning)
   TURBO    =      0    0=normal 1=particle mesh
   IRESTART =      0    0=no restart 2=restart with 2 vectors
   NREBOOT  =      0    no. of reboots
   NMIN     =      0    reboot dimension
   EREF     =   0.00    reference energy to select bands
   IMIX   =      4    mixing-type and parameters
     AMIX     =   0.40;   BMIX     =  1.00
     AMIX_MAG =   1.60;   BMIX_MAG =  1.00
     AMIN     =   0.10
     WC   =   100.;   INIMIX=   1;  MIXPRE=   1;  MAXMIX= -45

 Intra band minimization:
   WEIMIN = 0.0010     energy-eigenvalue tresh-hold
   EBREAK =  0.20E-07  absolut break condition
   DEPER  =   0.30     relativ break condition  

   TIME   =   0.40     timestep for ELM

  volume/ion in A,a.u.               =      15.27       103.07
  Fermi-wavevector in a.u.,A,eV,Ry     =   1.309868  2.475292 23.344253  1.715754
  Thomas-Fermi vector in A             =   2.440437
 
 Write flags
   LWAVE        =      T    write WAVECAR
   LDOWNSAMPLE  =      F    k-point downsampling of WAVECAR
   LCHARG       =      T    write CHGCAR
   LVTOT        =      F    write LOCPOT, total local potential
   LVHAR        =      F    write LOCPOT, Hartree potential only
   WRT_POTENTIAL= false  ! write potential to hdf5 file
   LELF         =      F    write electronic localiz. function (ELF)
   LORBIT       =      0    0 simple, 1 ext, 2 COOP (PROOUT), +10 PAW based schemes


 Python interface
   PLUGINS active      =      F    recompile with -DPLUGINS to activate
 
 Dipole corrections
   LMONO      =      F    monopole corrections only (constant potential shift)
   LDIPOL     =      F    correct potential (dipole corrections)
   IDIPOL     =      0    1-x, 2-y, 3-z, 4-all directions 
   EPSILON    =  1.0000000 bulk dielectric constant
   LVACPOTAV  =      F  vacuum potentials using an averaging scheme for the charge density
   VACPOTFLAT =  0.1000000 required flatness to determine vacuum potential
 
Coulomb truncation method
  LTRUNCATE          =      F  Coulomb kernel truncation to be used
  IDIMENSIONALITY    =      3  Dimensionality of cutoff (0 molecules / 2 surfaces)
  ISURFACE           =     -1  Direction of surface normal
  LCOARSEN           =      F  Coarsen the charge grid before padding, preferred

 
 Exchange correlation treatment:
   GGA     = PE    functional components
   XC_C    = 1    coefficients multiplying the functional components
   LIBXC   =     F    Libxc                    
   VOSKOWN =     0    Vosko Wilk Nusair interpolation
   LHFCALC =     F    Hartree Fock is set to
   LHFONE  =     F    Hartree Fock one center treatment
   AEXX    =    0.0000 exact exchange contribution

 Parameters of functionals:
   PE:
     No parameter
 
 Van der Waals corrections
   IVDW    =     0    specifies the selected vdW correction

 Linear response parameters
   LEPSILON=     F    determine dielectric tensor
   LRPA    =     F    only Hartree local field effects (RPA)
   LNABLA  =     F    use nabla operator in PAW spheres
   LVEL    =     F    velocity operator in full k-point grid
   CSHIFT  =0.1000    complex shift for real part using Kramers Kronig
   OMEGAMAX=  -1.0    maximum frequency
   DEG_THRESHOLD= 0.2000000E-02 threshold for treating states as degnerate
   RTIME   =   -0.100 relaxation time in fs
  (WPLASMAI=    0.000 imaginary part of plasma frequency in eV, 0.658/RTIME)
   DFIELD  = 0.0000000 0.0000000 0.0000000 field for delta impulse in time
 
  Optional k-point grid parameters
   LKPOINTS_OPT  =     F    use optional k-point grid
   KPOINTS_OPT_MODE=     1    mode for optional k-point grid
 
 Orbital magnetization related:
   ORBITALMAG=     F  switch on orbital magnetization
   LCHIMAG   =     F  perturbation theory with respect to B field
   DQ        =  0.001000  dq finite difference perturbation B field
   LLRAUG    =     F  two centre corrections for induced B field
   LBONE     =     F  B-component reconstruction in AE one-centre
   LVGVCALC  =     T  calculate vGv susceptibility
   LVGVAPPL  =     F  apply vGv susceptibility instead of pGv for G=0

 Random number generation:
   RANDOM_GENERATOR = DEFAULT
   PCG_SEED         = not used


--------------------------------------------------------------------------------------------------------


 quasi-Newton-method for relaxation of ions
 charge density and potential will be updated during run
 non-spin polarized calculation
 Variant of blocked Davidson
 Davidson routine will perform the subspace rotation
 perform sub-space diagonalisation
    after iterative eigenvector-optimisation
 modified Broyden-mixing scheme, WC =      100.0
 initial mixing is a Kerker type mixing with AMIX =  0.4000 and BMIX =      1.0000
 Hartree-type preconditioning will be used
 using additional bands           61
 reciprocal scheme for non local part
 use partial core corrections
 calculate Harris-corrections to forces 
   (improved forces if not selfconsistent)
 use gradient corrections 
 use of overlap-Matrix (Vanderbilt PP)
 Gauss-broadening in eV      SIGMA  =   0.10


--------------------------------------------------------------------------------------------------------


  energy-cutoff  :      520.00
  volume of cell :      259.65
      direct lattice vectors                 reciprocal lattice vectors
     5.647637367  0.000000000  0.000000000     0.177065193  0.000000000  0.000000000
     0.000000000  5.647637367  0.000000000     0.000000000  0.177065193  0.000000000
     0.000000000  0.000000000  8.140666008     0.000000000  0.000000000  0.122840072

  length of vectors
     5.647637367  5.647637367  8.140666008     0.177065193  0.177065193  0.122840072


 
 k-points in units of 2pi/SCALE and weight: K-Spacing Value to Generate K-Mesh: 0.03
   0.00000000  0.00000000  0.00000000       0.007
   0.02951087  0.00000000  0.00000000       0.028
   0.05902173  0.00000000  0.00000000       0.028
   0.08853260  0.00000000  0.00000000       0.014
   0.02951087  0.02951087  0.00000000       0.028
   0.05902173  0.02951087  0.00000000       0.056
   0.08853260  0.02951087  0.00000000       0.028
   0.05902173  0.05902173  0.00000000       0.028
   0.08853260  0.05902173  0.00000000       0.028
   0.08853260  0.08853260  0.00000000       0.007
   0.00000000  0.00000000  0.03071002       0.014
   0.02951087  0.00000000  0.03071002       0.056
   0.05902173  0.00000000  0.03071002       0.056
   0.08853260  0.00000000  0.03071002       0.028
   0.02951087  0.02951087  0.03071002       0.056
   0.05902173  0.02951087  0.03071002       0.111
   0.08853260  0.02951087  0.03071002       0.056
   0.05902173  0.05902173  0.03071002       0.056
   0.08853260  0.05902173  0.03071002       0.056
   0.08853260  0.08853260  0.03071002       0.014
   0.00000000  0.00000000  0.06142004       0.007
   0.02951087  0.00000000  0.06142004       0.028
   0.05902173  0.00000000  0.06142004       0.028
   0.08853260  0.00000000  0.06142004       0.014
   0.02951087  0.02951087  0.06142004       0.028
   0.05902173  0.02951087  0.06142004       0.056
   0.08853260  0.02951087  0.06142004       0.028
   0.05902173  0.05902173  0.06142004       0.028
   0.08853260  0.05902173  0.06142004       0.028
   0.08853260  0.08853260  0.06142004       0.007
 
 k-points in reciprocal lattice and weights: K-Spacing Value to Generate K-Mesh: 0.03
   0.00000000  0.00000000  0.00000000       0.007
   0.16666667  0.00000000  0.00000000       0.028
   0.33333333  0.00000000  0.00000000       0.028
   0.50000000  0.00000000  0.00000000       0.014
   0.16666667  0.16666667  0.00000000       0.028
   0.33333333  0.16666667  0.00000000       0.056
   0.50000000  0.16666667  0.00000000       0.028
   0.33333333  0.33333333  0.00000000       0.028
   0.50000000  0.33333333  0.00000000       0.028
   0.50000000  0.50000000  0.00000000       0.007
   0.00000000  0.00000000  0.25000000       0.014
   0.16666667  0.00000000  0.25000000       0.056
   0.33333333  0.00000000  0.25000000       0.056
   0.50000000  0.00000000  0.25000000       0.028
   0.16666667  0.16666667  0.25000000       0.056
   0.33333333  0.16666667  0.25000000       0.111
   0.50000000  0.16666667  0.25000000       0.056
   0.33333333  0.33333333  0.25000000       0.056
   0.50000000  0.33333333  0.25000000       0.056
   0.50000000  0.50000000  0.25000000       0.014
   0.00000000  0.00000000  0.50000000       0.007
   0.16666667  0.00000000  0.50000000       0.028
   0.33333333  0.00000000  0.50000000       0.028
   0.50000000  0.00000000  0.50000000       0.014
   0.16666667  0.16666667  0.50000000       0.028
   0.33333333  0.16666667  0.50000000       0.056
   0.50000000  0.16666667  0.50000000       0.028
   0.33333333  0.33333333  0.50000000       0.028
   0.50000000  0.33333333  0.50000000       0.028
   0.50000000  0.50000000  0.50000000       0.007
 
 position of ions in fractional coordinates (direct lattice) 
   0.00000000  0.00000000  0.00000000
   0.00000000  0.00000000  0.50000000
   0.00000000  0.50000000  0.00000000
   0.00000000  0.50000000  0.50000000
   0.50000000  0.00000000  0.00000000
   0.50000000  0.00000000  0.50000000
   0.50000000  0.50000000  0.00000000
   0.50000000  0.50000000  0.50000000
   0.25000000  0.25000000  0.25000000
   0.25000000  0.25000000  0.75000000
   0.25000000  0.75000000  0.25000000
   0.25000000  0.75000000  0.75000000
   0.75000000  0.25000000  0.25000000
   0.75000000  0.25000000  0.75000000
   0.75000000  0.75000000  0.25000000
   0.75000000  0.75000000  0.75000000
   0.50000000  0.50000000  0.75000000
 
 position of ions in cartesian coordinates  (Angst):
   0.00000000  0.00000000  0.00000000
   0.00000000  0.00000000  4.07033300
   0.00000000  2.82381868  0.00000000
   0.00000000  2.82381868  4.07033300
   2.82381868  0.00000000  0.00000000
   2.82381868  0.00000000  4.07033300
   2.82381868  2.82381868  0.00000000
   2.82381868  2.82381868  4.07033300
   1.41190934  1.41190934  2.03516650
   1.41190934  1.41190934  6.10549951
   1.41190934  4.23572803  2.03516650
   1.41190934  4.23572803  6.10549951
   4.23572803  1.41190934  2.03516650
   4.23572803  1.41190934  6.10549951
   4.23572803  4.23572803  2.03516650
   4.23572803  4.23572803  6.10549951
   2.82381868  2.82381868  6.10549951
 


--------------------------------------------------------------------------------------------------------


 k-point     1 :   0.0000 0.0000 0.0000  plane waves:    6979
 k-point     2 :   0.1667 0.0000 0.0000  plane waves:    6995
 k-point     3 :   0.3333 0.0000 0.0000  plane waves:    6993
 k-point     4 :   0.5000 0.0000 0.0000  plane waves:    6982
 k-point     5 :   0.1667 0.1667 0.0000  plane waves:    7013
 k-point     6 :   0.3333 0.1667 0.0000  plane waves:    7002
 k-point     7 :   0.5000 0.1667 0.0000  plane waves:    6962
 k-point     8 :   0.3333 0.3333 0.0000  plane waves:    6989
 k-point     9 :   0.5000 0.3333 0.0000  plane waves:    6958
 k-point    10 :   0.5000 0.5000 0.0000  plane waves:    6948
 k-point    11 :   0.0000 0.0000 0.2500  plane waves:    6998
 k-point    12 :   0.1667 0.0000 0.2500  plane waves:    7005
 k-point    13 :   0.3333 0.0000 0.2500  plane waves:    6994
 k-point    14 :   0.5000 0.0000 0.2500  plane waves:    7006
 k-point    15 :   0.1667 0.1667 0.2500  plane waves:    6995
 k-point    16 :   0.3333 0.1667 0.2500  plane waves:    6991
 k-point    17 :   0.5000 0.1667 0.2500  plane waves:    6998
 k-point    18 :   0.3333 0.3333 0.2500  plane waves:    6994
 k-point    19 :   0.5000 0.3333 0.2500  plane waves:    6958
 k-point    20 :   0.5000 0.5000 0.2500  plane waves:    6956
 k-point    21 :   0.0000 0.0000 0.5000  plane waves:    7022
 k-point    22 :   0.1667 0.0000 0.5000  plane waves:    7006
 k-point    23 :   0.3333 0.0000 0.5000  plane waves:    6990
 k-point    24 :   0.5000 0.0000 0.5000  plane waves:    6992
 k-point    25 :   0.1667 0.1667 0.5000  plane waves:    6986
 k-point    26 :   0.3333 0.1667 0.5000  plane waves:    7000
 k-point    27 :   0.5000 0.1667 0.5000  plane waves:    6992
 k-point    28 :   0.3333 0.3333 0.5000  plane waves:    7014
 k-point    29 :   0.5000 0.3333 0.5000  plane waves:    7004
 k-point    30 :   0.5000 0.5000 0.5000  plane waves:    6944

 maximum and minimum number of plane-waves per node :      7022     6944

 maximum number of plane-waves:      7022
 maximum index in each direction: 
   IXMAX=   10   IYMAX=   10   IZMAX=   15
   IXMIN=  -11   IYMIN=  -10   IZMIN=  -15


 serial   3D FFT for wavefunctions
 parallel 3D FFT for charge:
    minimum data exchange during FFTs selected (reduces bandwidth)


 total amount of memory used by VASP MPI-rank0   133236. kBytes
=======================================================================

   base                                    :      30000. kBytes
   nonl-proj                               :      93153. kBytes
   fftplans                                :        434. kBytes
   grid                                    :       2381. kBytes
   one-center                              :        264. kBytes
   wavefun                                 :       7004. kBytes
 
     INWAV:  cpu time      0.0000: real time      0.0000
 Broyden mixing: mesh for mixing (old mesh)
   NGX = 21   NGY = 21   NGZ = 31
  (NGX  = 64   NGY  = 64   NGZ  = 96)
  gives a total of  13671 points

 initial charge density was supplied:
 charge density of overlapping atoms calculated
 number of electron     133.0000000 magnetization 
 keeping initial charge density in first step


--------------------------------------------------------------------------------------------------------


 Maximum index for augmentation-charges          455 (set IRDMAX)


--------------------------------------------------------------------------------------------------------


 First call to EWALD:  gamma=   0.278
 Maximum number of real-space cells   3x   3x   2
 Maximum number of reciprocal cells   2x   2x   3

    FEWALD:  cpu time      0.0011: real time      0.0011


--------------------------------------- Ionic step        1  -------------------------------------------




--------------------------------------- Iteration      1(   1)  ---------------------------------------


    POTLOK:  cpu time      0.0082: real time      0.0082
    SETDIJ:  cpu time      0.0024: real time      0.0024
     EDDAV:  cpu time      3.7987: real time      3.7990
       DOS:  cpu time      0.0012: real time      0.0012
    --------------------------------------------
      LOOP:  cpu time      3.8106: real time      3.8110

 eigenvalue-minimisations  :  7680
 total energy-change (2. order) : 0.1010818E+04  (-0.6516792E+04)
 number of electron     133.0000000 magnetization 
 augmentation part      133.0000000 magnetization 

 Free energy of the ion-electron system (eV)
  ---------------------------------------------------
  alpha Z        PSCENC =       388.12325785
  Ewald energy   TEWEN  =     -9739.40454642
  -Hartree energ DENC   =     -5005.67217426
  -exchange      EXHF   =         0.00000000
  -V(xc)+E(xc)   XCENC  =       336.06389462
  PAW double counting   =     12249.27850793   -12170.51614461
  entropy T*S    EENTRO =        -0.03220228
  eigenvalues    EBANDS =      -328.83743767
  atomic energy  EATOM  =     15281.81476201
  Solvation  Ediel_sol  =         0.00000000
  ---------------------------------------------------
  free energy    TOTEN  =      1010.81791717 eV

  energy without entropy =     1010.85011945  energy(sigma->0) =     1010.83401831


--------------------------------------------------------------------------------------------------------




--------------------------------------- Iteration      1(   2)  ---------------------------------------


     EDDAV:  cpu time      3.8903: real time      3.8904
       DOS:  cpu time      0.0006: real time      0.0006
    --------------------------------------------
      LOOP:  cpu time      3.8908: real time      3.8909

 eigenvalue-minimisations  :  7808
 total energy-change (2. order) :-0.1030553E+04  (-0.9920649E+03)
 number of electron     133.0000000 magnetization 
 augmentation part      133.0000000 magnetization 

 Free energy of the ion-electron system (eV)
  ---------------------------------------------------
  alpha Z        PSCENC =       388.12325785
  Ewald energy   TEWEN  =     -9739.40454642
  -Hartree energ DENC   =     -5005.67217426
  -exchange      EXHF   =         0.00000000
  -V(xc)+E(xc)   XCENC  =       336.06389462
  PAW double counting   =     12249.27850793   -12170.51614461
  entropy T*S    EENTRO =        -0.06821932
  eigenvalues    EBANDS =     -1359.35416095
  atomic energy  EATOM  =     15281.81476201
  Solvation  Ediel_sol  =         0.00000000
  ---------------------------------------------------
  free energy    TOTEN  =       -19.73482316 eV

  energy without entropy =      -19.66660384  energy(sigma->0) =      -19.70071350


--------------------------------------------------------------------------------------------------------




--------------------------------------- Iteration      1(   3)  ---------------------------------------


     EDDAV:  cpu time     11.4789: real time     11.4792
       DOS:  cpu time      0.0006: real time      0.0006
    --------------------------------------------
      LOOP:  cpu time     11.4794: real time     11.4798

 eigenvalue-minimisations  : 15360
 total energy-change (2. order) :-0.8339631E+02  (-0.8194209E+02)
 number of electron     133.0000000 magnetization 
 augmentation part      133.0000000 magnetization 

 Free energy of the ion-electron system (eV)
  ---------------------------------------------------
  alpha Z        PSCENC =       388.12325785
  Ewald energy   TEWEN  =     -9739.40454642
  -Hartree energ DENC   =     -5005.67217426
  -exchange      EXHF   =         0.00000000
  -V(xc)+E(xc)   XCENC  =       336.06389462
  PAW double counting   =     12249.27850793   -12170.51614461
  entropy T*S    EENTRO =        -0.06942431
  eigenvalues    EBANDS =     -1442.74927074
  atomic energy  EATOM  =     15281.81476201
  Solvation  Ediel_sol  =         0.00000000
  ---------------------------------------------------
  free energy    TOTEN  =      -103.13113793 eV

  energy without entropy =     -103.06171362  energy(sigma->0) =     -103.09642578


--------------------------------------------------------------------------------------------------------




--------------------------------------- Iteration      1(   4)  ---------------------------------------


     EDDAV:  cpu time      3.7844: real time      3.7848
       DOS:  cpu time      0.0011: real time      0.0010
    --------------------------------------------
      LOOP:  cpu time      3.7855: real time      3.7858

 eigenvalue-minimisations  :  7680
 total energy-change (2. order) :-0.2358750E+01  (-0.2358443E+01)
 number of electron     133.0000000 magnetization 
 augmentation part      133.0000000 magnetization 

 Free energy of the ion-electron system (eV)
  ---------------------------------------------------
  alpha Z        PSCENC =       388.12325785
  Ewald energy   TEWEN  =     -9739.40454642
  -Hartree energ DENC   =     -5005.67217426
  -exchange      EXHF   =         0.00000000
  -V(xc)+E(xc)   XCENC  =       336.06389462
  PAW double counting   =     12249.27850793   -12170.51614461
  entropy T*S    EENTRO =        -0.06902594
  eigenvalues    EBANDS =     -1445.10841882
  atomic energy  EATOM  =     15281.81476201
  Solvation  Ediel_sol  =         0.00000000
  ---------------------------------------------------
  free energy    TOTEN  =      -105.48988765 eV

  energy without entropy =     -105.42086171  energy(sigma->0) =     -105.45537468


--------------------------------------------------------------------------------------------------------




--------------------------------------- Iteration      1(   5)  ---------------------------------------


     EDDAV:  cpu time      8.4133: real time      8.4137
       DOS:  cpu time      0.0006: real time      0.0006
    CHARGE:  cpu time      0.0351: real time      0.0351
    MIXING:  cpu time      0.0003: real time      0.0003
    --------------------------------------------
      LOOP:  cpu time      8.4492: real time      8.4496

 eigenvalue-minimisations  : 12544
 total energy-change (2. order) :-0.6590124E-01  (-0.6590045E-01)
 number of electron     132.9999791 magnetization 
 augmentation part       35.0572084 magnetization 

 Broyden mixing:
  rms(total) = 0.30348E+01    rms(broyden)= 0.30348E+01
  rms(prec ) = 0.42012E+01
  weight for this iteration     100.00

 Free energy of the ion-electron system (eV)
  ---------------------------------------------------
  alpha Z        PSCENC =       388.12325785
  Ewald energy   TEWEN  =     -9739.40454642
  -Hartree energ DENC   =     -5005.67217426
  -exchange      EXHF   =         0.00000000
  -V(xc)+E(xc)   XCENC  =       336.06389462
  PAW double counting   =     12249.27850793   -12170.51614461
  entropy T*S    EENTRO =        -0.06901541
  eigenvalues    EBANDS =     -1445.17433059
  atomic energy  EATOM  =     15281.81476201
  Solvation  Ediel_sol  =         0.00000000
  ---------------------------------------------------
  free energy    TOTEN  =      -105.55578889 eV

  energy without entropy =     -105.48677348  energy(sigma->0) =     -105.52128119


--------------------------------------------------------------------------------------------------------




--------------------------------------- Iteration      1(   6)  ---------------------------------------


    POTLOK:  cpu time      0.0066: real time      0.0066
    SETDIJ:  cpu time      0.0017: real time      0.0017
     EDDAV:  cpu time      6.9493: real time      6.9498
       DOS:  cpu time      0.0006: real time      0.0006
    CHARGE:  cpu time      0.0339: real time      0.0339
    MIXING:  cpu time      0.0003: real time      0.0003
    --------------------------------------------
      LOOP:  cpu time      6.9925: real time      6.9929

 eigenvalue-minimisations  : 11072
 total energy-change (2. order) : 0.7787122E+01  (-0.7028615E+01)
 number of electron     132.9999738 magnetization 
 augmentation part       39.6757066 magnetization 

 Broyden mixing:
  rms(total) = 0.20054E+01    rms(broyden)= 0.20053E+01
  rms(prec ) = 0.38326E+01
  weight for this iteration     100.00

 eigenvalues of (default mixing * dielectric matrix)
  average eigenvalue GAMMA=   0.6813
  0.6813

 Free energy of the ion-electron system (eV)
  ---------------------------------------------------
  alpha Z        PSCENC =       388.12325785
  Ewald energy   TEWEN  =     -9739.40454642
  -Hartree energ DENC   =     -4752.41806916
  -exchange      EXHF   =         0.00000000
  -V(xc)+E(xc)   XCENC  =       325.28445477
  PAW double counting   =     13845.67354271   -13774.59887454
  entropy T*S    EENTRO =        -0.07219326
  eigenvalues    EBANDS =     -1672.17100071
  atomic energy  EATOM  =     15281.81476201
  Solvation  Ediel_sol  =         0.00000000
  ---------------------------------------------------
  free energy    TOTEN  =       -97.76866676 eV

  energy without entropy =      -97.69647350  energy(sigma->0) =      -97.73257013


--------------------------------------------------------------------------------------------------------




--------------------------------------- Iteration      1(   7)  ---------------------------------------


    POTLOK:  cpu time      0.0067: real time      0.0067
    SETDIJ:  cpu time      0.0017: real time      0.0017
     EDDAV:  cpu time      5.9409: real time      5.9412
       DOS:  cpu time      0.0006: real time      0.0006
    CHARGE:  cpu time      0.0336: real time      0.0336
    MIXING:  cpu time      0.0003: real time      0.0003
    --------------------------------------------
      LOOP:  cpu time      5.9837: real time      5.9841

 eigenvalue-minimisations  : 10176
 total energy-change (2. order) : 0.4031984E+00  (-0.6024481E+01)
 number of electron     132.9999760 magnetization 
 augmentation part       38.3164375 magnetization 

 Broyden mixing:
  rms(total) = 0.19884E+01    rms(broyden)= 0.19882E+01
  rms(prec ) = 0.39369E+01
  weight for this iteration     100.00

 eigenvalues of (default mixing * dielectric matrix)
  average eigenvalue GAMMA=   0.5859
  0.9062  0.2657

 Free energy of the ion-electron system (eV)
  ---------------------------------------------------
  alpha Z        PSCENC =       388.12325785
  Ewald energy   TEWEN  =     -9739.40454642
  -Hartree energ DENC   =     -4799.43704438
  -exchange      EXHF   =         0.00000000
  -V(xc)+E(xc)   XCENC  =       327.71096299
  PAW double counting   =     14342.06202603   -14262.27331144
  entropy T*S    EENTRO =        -0.06714524
  eigenvalues    EBANDS =     -1635.89442977
  atomic energy  EATOM  =     15281.81476201
  Solvation  Ediel_sol  =         0.00000000
  ---------------------------------------------------
  free energy    TOTEN  =       -97.36546836 eV

  energy without entropy =      -97.29832312  energy(sigma->0) =      -97.33189574


--------------------------------------------------------------------------------------------------------




--------------------------------------- Iteration      1(   8)  ---------------------------------------


    POTLOK:  cpu time      0.0076: real time      0.0076
    SETDIJ:  cpu time      0.0019: real time      0.0019
     EDDAV:  cpu time      5.2350: real time      5.2353
       DOS:  cpu time      0.0010: real time      0.0010
    CHARGE:  cpu time      0.0337: real time      0.0337
    MIXING:  cpu time      0.0004: real time      0.0004
    --------------------------------------------
      LOOP:  cpu time      5.2797: real time      5.2799

 eigenvalue-minimisations  :  9600
 total energy-change (2. order) : 0.5560355E+01  (-0.1280593E+01)
 number of electron     132.9999757 magnetization 
 augmentation part       37.2679121 magnetization 

 Broyden mixing:
  rms(total) = 0.74114E+00    rms(broyden)= 0.74104E+00
  rms(prec ) = 0.94943E+00
  weight for this iteration     100.00

 eigenvalues of (default mixing * dielectric matrix)
  average eigenvalue GAMMA=   0.8181
  1.6312  0.5723  0.2508

 Free energy of the ion-electron system (eV)
  ---------------------------------------------------
  alpha Z        PSCENC =       388.12325785
  Ewald energy   TEWEN  =     -9739.40454642
  -Hartree energ DENC   =     -4829.78226686
  -exchange      EXHF   =         0.00000000
  -V(xc)+E(xc)   XCENC  =       328.73906642
  PAW double counting   =     14805.82904949   -14721.46371830
  entropy T*S    EENTRO =        -0.06404292
  eigenvalues    EBANDS =     -1605.59667446
  atomic energy  EATOM  =     15281.81476201
  Solvation  Ediel_sol  =         0.00000000
  ---------------------------------------------------
  free energy    TOTEN  =       -91.80511319 eV

  energy without entropy =      -91.74107027  energy(sigma->0) =      -91.77309173


--------------------------------------------------------------------------------------------------------




--------------------------------------- Iteration      1(   9)  ---------------------------------------


    POTLOK:  cpu time      0.0069: real time      0.0069
    SETDIJ:  cpu time      0.0017: real time      0.0017
     EDDAV:  cpu time      5.7731: real time      5.7735
       DOS:  cpu time      0.0012: real time      0.0012
    CHARGE:  cpu time      0.0334: real time      0.0334
    MIXING:  cpu time      0.0003: real time      0.0003
    --------------------------------------------
      LOOP:  cpu time      5.8167: real time      5.8171

 eigenvalue-minimisations  :  9920
 total energy-change (2. order) : 0.8615945E-01  (-0.2628597E+00)
 number of electron     132.9999757 magnetization 
 augmentation part       37.5492502 magnetization 

 Broyden mixing:
  rms(total) = 0.58631E+00    rms(broyden)= 0.58624E+00
  rms(prec ) = 0.95002E+00
  weight for this iteration     100.00

 eigenvalues of (default mixing * dielectric matrix)
  average eigenvalue GAMMA=   0.9068
  2.4177  0.6558  0.3007  0.2532

 Free energy of the ion-electron system (eV)
  ---------------------------------------------------
  alpha Z        PSCENC =       388.12325785
  Ewald energy   TEWEN  =     -9739.40454642
  -Hartree energ DENC   =     -4810.92469731
  -exchange      EXHF   =         0.00000000
  -V(xc)+E(xc)   XCENC  =       328.07389260
  PAW double counting   =     15515.23282541   -15425.61714116
  entropy T*S    EENTRO =        -0.06385773
  eigenvalues    EBANDS =     -1628.95344899
  atomic energy  EATOM  =     15281.81476201
  Solvation  Ediel_sol  =         0.00000000
  ---------------------------------------------------
  free energy    TOTEN  =       -91.71895373 eV

  energy without entropy =      -91.65509601  energy(sigma->0) =      -91.68702487


--------------------------------------------------------------------------------------------------------




--------------------------------------- Iteration      1(  10)  ---------------------------------------


    POTLOK:  cpu time      0.0069: real time      0.0069
    SETDIJ:  cpu time      0.0017: real time      0.0017
     EDDAV:  cpu time      5.6064: real time      5.6066
       DOS:  cpu time      0.0006: real time      0.0006
    CHARGE:  cpu time      0.0338: real time      0.0338
    MIXING:  cpu time      0.0004: real time      0.0004
    --------------------------------------------
      LOOP:  cpu time      5.6498: real time      5.6500

 eigenvalue-minimisations  :  9792
 total energy-change (2. order) : 0.3169593E+00  (-0.1332537E+00)
 number of electron     132.9999755 magnetization 
 augmentation part       37.7264150 magnetization 

 Broyden mixing:
  rms(total) = 0.18730E+00    rms(broyden)= 0.18725E+00
  rms(prec ) = 0.25951E+00
  weight for this iteration     100.00

 eigenvalues of (default mixing * dielectric matrix)
  average eigenvalue GAMMA=   0.9515
  2.4882  1.1492  0.5700  0.2671  0.2828

 Free energy of the ion-electron system (eV)
  ---------------------------------------------------
  alpha Z        PSCENC =       388.12325785
  Ewald energy   TEWEN  =     -9739.40454642
  -Hartree energ DENC   =     -4794.47400188
  -exchange      EXHF   =         0.00000000
  -V(xc)+E(xc)   XCENC  =       327.53538019
  PAW double counting   =     16536.44683314   -16439.28106752
  entropy T*S    EENTRO =        -0.06542325
  eigenvalues    EBANDS =     -1652.09718857
  atomic energy  EATOM  =     15281.81476201
  Solvation  Ediel_sol  =         0.00000000
  ---------------------------------------------------
  free energy    TOTEN  =       -91.40199445 eV

  energy without entropy =      -91.33657120  energy(sigma->0) =      -91.36928282


--------------------------------------------------------------------------------------------------------




--------------------------------------- Iteration      1(  11)  ---------------------------------------


    POTLOK:  cpu time      0.0068: real time      0.0068
    SETDIJ:  cpu time      0.0019: real time      0.0019
     EDDAV:  cpu time      6.0798: real time      6.0802
       DOS:  cpu time      0.0006: real time      0.0006
    CHARGE:  cpu time      0.0359: real time      0.0359
    MIXING:  cpu time      0.0008: real time      0.0008
    --------------------------------------------
      LOOP:  cpu time      6.1258: real time      6.1261

 eigenvalue-minimisations  : 10240
 total energy-change (2. order) : 0.2708249E-01  (-0.1262113E-01)
 number of electron     132.9999757 magnetization 
 augmentation part       37.5012197 magnetization 

 Broyden mixing:
  rms(total) = 0.98113E-01    rms(broyden)= 0.98109E-01
  rms(prec ) = 0.13578E+00
  weight for this iteration     100.00

 eigenvalues of (default mixing * dielectric matrix)
  average eigenvalue GAMMA=   1.0977
  2.5006  1.9616  0.9908  0.5894  0.2720  0.2720

 Free energy of the ion-electron system (eV)
  ---------------------------------------------------
  alpha Z        PSCENC =       388.12325785
  Ewald energy   TEWEN  =     -9739.40454642
  -Hartree energ DENC   =     -4806.30929086
  -exchange      EXHF   =         0.00000000
  -V(xc)+E(xc)   XCENC  =       328.07873121
  PAW double counting   =     16552.50997521   -16452.60338992
  entropy T*S    EENTRO =        -0.06514952
  eigenvalues    EBANDS =     -1643.51926153
  atomic energy  EATOM  =     15281.81476201
  Solvation  Ediel_sol  =         0.00000000
  ---------------------------------------------------
  free energy    TOTEN  =       -91.37491196 eV

  energy without entropy =      -91.30976245  energy(sigma->0) =      -91.34233721


--------------------------------------------------------------------------------------------------------




--------------------------------------- Iteration      1(  12)  ---------------------------------------


    POTLOK:  cpu time      0.0094: real time      0.0094
    SETDIJ:  cpu time      0.0019: real time      0.0019
     EDDAV:  cpu time      6.6652: real time      6.6658
       DOS:  cpu time      0.0006: real time      0.0006
    CHARGE:  cpu time      0.0335: real time      0.0335
    MIXING:  cpu time      0.0004: real time      0.0004
    --------------------------------------------
      LOOP:  cpu time      6.7110: real time      6.7115

 eigenvalue-minimisations  : 10688
 total energy-change (2. order) : 0.5059163E-02  (-0.2526764E-02)
 number of electron     132.9999757 magnetization 
 augmentation part       37.4408537 magnetization 

 Broyden mixing:
  rms(total) = 0.27814E-01    rms(broyden)= 0.27799E-01
  rms(prec ) = 0.31593E-01
  weight for this iteration     100.00

 eigenvalues of (default mixing * dielectric matrix)
  average eigenvalue GAMMA=   1.1504
  2.4581  2.3905  1.1264  0.9434  0.5903  0.2720  0.2720

 Free energy of the ion-electron system (eV)
  ---------------------------------------------------
  alpha Z        PSCENC =       388.12325785
  Ewald energy   TEWEN  =     -9739.40454642
  -Hartree energ DENC   =     -4811.51283312
  -exchange      EXHF   =         0.00000000
  -V(xc)+E(xc)   XCENC  =       328.36625962
  PAW double counting   =     16516.59077139   -16413.59958539
  entropy T*S    EENTRO =        -0.06466803
  eigenvalues    EBANDS =     -1641.68327071
  atomic energy  EATOM  =     15281.81476201
  Solvation  Ediel_sol  =         0.00000000
  ---------------------------------------------------
  free energy    TOTEN  =       -91.36985280 eV

  energy without entropy =      -91.30518477  energy(sigma->0) =      -91.33751879


--------------------------------------------------------------------------------------------------------




--------------------------------------- Iteration      1(  13)  ---------------------------------------


    POTLOK:  cpu time      0.0068: real time      0.0068
    SETDIJ:  cpu time      0.0017: real time      0.0017
     EDDAV:  cpu time      4.9621: real time      4.9624
       DOS:  cpu time      0.0006: real time      0.0006
    CHARGE:  cpu time      0.0331: real time      0.0331
    MIXING:  cpu time      0.0004: real time      0.0004
    --------------------------------------------
      LOOP:  cpu time      5.0046: real time      5.0049

 eigenvalue-minimisations  :  8960
 total energy-change (2. order) :-0.6315326E-03  (-0.3274450E-03)
 number of electron     132.9999757 magnetization 
 augmentation part       37.4276209 magnetization 

 Broyden mixing:
  rms(total) = 0.81630E-02    rms(broyden)= 0.81578E-02
  rms(prec ) = 0.95643E-02
  weight for this iteration     100.00

 eigenvalues of (default mixing * dielectric matrix)
  average eigenvalue GAMMA=   1.1956
  2.4663  2.4663  1.5156  1.1463  0.8373  0.5893  0.2720  0.2720

 Free energy of the ion-electron system (eV)
  ---------------------------------------------------
  alpha Z        PSCENC =       388.12325785
  Ewald energy   TEWEN  =     -9739.40454642
  -Hartree energ DENC   =     -4813.55175817
  -exchange      EXHF   =         0.00000000
  -V(xc)+E(xc)   XCENC  =       328.48421784
  PAW double counting   =     16496.27381912   -16391.43913341
  entropy T*S    EENTRO =        -0.06449330
  eigenvalues    EBANDS =     -1641.60660985
  atomic energy  EATOM  =     15281.81476201
  Solvation  Ediel_sol  =         0.00000000
  ---------------------------------------------------
  free energy    TOTEN  =       -91.37048433 eV

  energy without entropy =      -91.30599103  energy(sigma->0) =      -91.33823768


--------------------------------------------------------------------------------------------------------




--------------------------------------- Iteration      1(  14)  ---------------------------------------


    POTLOK:  cpu time      0.0067: real time      0.0067
    SETDIJ:  cpu time      0.0017: real time      0.0017
     EDDAV:  cpu time      7.4115: real time      7.4128
       DOS:  cpu time      0.0006: real time      0.0006
    CHARGE:  cpu time      0.0335: real time      0.0335
    MIXING:  cpu time      0.0004: real time      0.0004
    --------------------------------------------
      LOOP:  cpu time      7.4545: real time      7.4557

 eigenvalue-minimisations  : 11456
 total energy-change (2. order) : 0.2776650E-04  (-0.2162646E-04)
 number of electron     132.9999757 magnetization 
 augmentation part       37.4247079 magnetization 

 Broyden mixing:
  rms(total) = 0.37016E-02    rms(broyden)= 0.37010E-02
  rms(prec ) = 0.44977E-02
  weight for this iteration     100.00

 eigenvalues of (default mixing * dielectric matrix)
  average eigenvalue GAMMA=   1.2592
  2.9000  2.5877  1.6654  1.1381  1.0172  0.8913  0.5895  0.2720  0.2720

 Free energy of the ion-electron system (eV)
  ---------------------------------------------------
  alpha Z        PSCENC =       388.12325785
  Ewald energy   TEWEN  =     -9739.40454642
  -Hartree energ DENC   =     -4813.75909282
  -exchange      EXHF   =         0.00000000
  -V(xc)+E(xc)   XCENC  =       328.48928988
  PAW double counting   =     16481.20238888   -16376.11622023
  entropy T*S    EENTRO =        -0.06456061
  eigenvalues    EBANDS =     -1641.65573511
  atomic energy  EATOM  =     15281.81476201
  Solvation  Ediel_sol  =         0.00000000
  ---------------------------------------------------
  free energy    TOTEN  =       -91.37045657 eV

  energy without entropy =      -91.30589596  energy(sigma->0) =      -91.33817626


--------------------------------------------------------------------------------------------------------




--------------------------------------- Iteration      1(  15)  ---------------------------------------


    POTLOK:  cpu time      0.0066: real time      0.0066
    SETDIJ:  cpu time      0.0017: real time      0.0017
     EDDAV:  cpu time      5.6681: real time      5.6690
       DOS:  cpu time      0.0006: real time      0.0006
    --------------------------------------------
      LOOP:  cpu time      5.6770: real time      5.6779

 eigenvalue-minimisations  :  9600
 total energy-change (2. order) :-0.8065463E-05  (-0.4337059E-05)
 number of electron     132.9999757 magnetization 
 augmentation part       37.4247079 magnetization 

 Free energy of the ion-electron system (eV)
  ---------------------------------------------------
  alpha Z        PSCENC =       388.12325785
  Ewald energy   TEWEN  =     -9739.40454642
  -Hartree energ DENC   =     -4813.99692948
  -exchange      EXHF   =         0.00000000
  -V(xc)+E(xc)   XCENC  =       328.50244494
  PAW double counting   =     16472.91879557   -16367.52824686
  entropy T*S    EENTRO =        -0.06456491
  eigenvalues    EBANDS =     -1641.73543733
  atomic energy  EATOM  =     15281.81476201
  Solvation  Ediel_sol  =         0.00000000
  ---------------------------------------------------
  free energy    TOTEN  =       -91.37046463 eV

  energy without entropy =      -91.30589972  energy(sigma->0) =      -91.33818218


--------------------------------------------------------------------------------------------------------




 average (electrostatic) potential at core
  the test charge radii are     1.0397  1.0406  1.0314
  (the norm of the test charge is              1.0000)
       1 -71.6912       2 -71.6912       3 -71.7134       4 -71.7134       5 -71.7134
       6 -71.7134       7 -71.2002       8 -71.2002       9 -70.7078      10 -71.1438
      11 -70.7078      12 -71.1438      13 -70.7078      14 -71.1438      15 -70.7078
      16 -71.1438      17 -63.2561
 
 
 
 E-fermi :   8.9471     XC(G=0): -11.3002     alpha+bet :-17.0624

 val. band max:        8.9445841358   @ k =   0.3333   0.0000   0.5000
 cond. band min:       8.9499128272   @ k =   0.1667   0.1667   0.0000
 fundamental gap:      0.0053286913
 Fermi energy:         8.9471221016

 k-point     1 :       0.0000    0.0000    0.0000
  band No.  band energies     occupation 
      1     -47.7032      2.00000
      2     -47.7026      2.00000
      3     -47.6699      2.00000
      4     -47.6694      2.00000
      5     -47.6182      2.00000
      6     -47.6177      2.00000
      7     -47.2594      2.00000
      8     -47.2572      2.00000
      9     -24.1219      2.00000
     10     -24.1138      2.00000
     11     -24.1138      2.00000
     12     -24.1115      2.00000
     13     -24.1115      2.00000
     14     -24.1041      2.00000
     15     -24.0785      2.00000
     16     -24.0660      2.00000
     17     -24.0358      2.00000
     18     -24.0232      2.00000
     19     -24.0108      2.00000
     20     -24.0108      2.00000
     21     -24.0098      2.00000
     22     -24.0098      2.00000
     23     -23.8764      2.00000
     24     -23.7991      2.00000
     25     -23.6424      2.00000
     26     -23.6424      2.00000
     27     -23.6418      2.00000
     28     -23.6418      2.00000
     29     -23.4155      2.00000
     30     -23.4155      2.00000
     31     -23.4137      2.00000
     32     -23.4137      2.00000
     33      -8.1878      2.00000
     34      -7.9094      2.00000
     35      -7.8948      2.00000
     36      -7.8120      2.00000
     37      -7.8120      2.00000
     38      -2.1781      2.00000
     39       0.6911      2.00000
     40       2.3742      2.00000
     41       2.3742      2.00000
     42       2.7615      2.00000
     43       3.2877      2.00000
     44       4.2033      2.00000
     45       4.2436      2.00000
     46       4.2436      2.00000
     47       5.3846      2.00000
     48       5.6394      2.00000
     49       5.8104      2.00000
     50       6.0175      2.00000
     51       6.0175      2.00000
     52       6.3427      2.00000
     53       6.8278      2.00000
     54       6.9359      2.00000
     55       7.0551      2.00000
     56       7.0551      2.00000
     57       7.6657      2.00000
     58       7.6657      2.00000
     59       7.6780      2.00000
     60       7.8993      2.00000
     61       7.8993      2.00000
     62       8.0352      2.00000
     63       8.0379      2.00000
     64       8.0708      2.00000
     65       8.2492      2.00000
     66       8.6264      1.99999
     67       8.6417      1.99998
     68       8.6417      1.99998
     69       8.6769      1.99987
     70       9.0207      0.29826
     71       9.8085      0.00000
     72      10.2331      0.00000
     73      10.3363      0.00000
     74      10.5338      0.00000
     75      10.5338      0.00000
     76      10.6143      0.00000
     77      10.6687      0.00000
     78      10.7407      0.00000
     79      10.7733      0.00000
     80      10.8578      0.00000
     81      11.0642      0.00000
     82      11.0642      0.00000
     83      11.1154      0.00000
     84      11.1162      0.00000
     85      11.1162      0.00000
     86      11.4339      0.00000
     87      11.4339      0.00000
     88      12.2591      0.00000
     89      12.2725      0.00000
     90      12.3561      0.00000
     91      12.3561      0.00000
     92      12.9013      0.00000
     93      12.9013      0.00000
     94      13.1462      0.00000
     95      13.1650      0.00000
     96      13.1771      0.00000
     97      13.2269      0.00000
     98      13.2967      0.00000
     99      13.3676      0.00000
    100      13.3676      0.00000
    101      13.6811      0.00000
    102      13.8153      0.00000
    103      14.0574      0.00000
    104      14.0574      0.00000
    105      14.5626      0.00000
    106      14.6003      0.00000
    107      14.6505      0.00000
    108      14.8836      0.00000
    109      15.1542      0.00000
    110      16.0597      0.00000
    111      16.2648      0.00000
    112      16.2648      0.00000
    113      16.7896      0.00000
    114      16.7896      0.00000
    115      17.1068      0.00000
    116      17.7154      0.00000
    117      17.9905      0.00000
    118      18.7307      0.00000
    119      18.7307      0.00000
    120      19.2256      0.00000
    121      19.2256      0.00000
    122      19.6386      0.00000
    123      19.7002      0.00000
    124      19.8594      0.00000
    125      20.0158      0.00000
    126      20.7626      0.00000
    127      20.8297      0.00000
    128      20.8302      0.00000

 k-point     2 :       0.1667    0.0000    0.0000
  band No.  band energies     occupation 
      1     -47.7004      2.00000
      2     -47.6998      2.00000
      3     -47.6700      2.00000
      4     -47.6696      2.00000
      5     -47.6204      2.00000
      6     -47.6199      2.00000
      7     -47.2600      2.00000
      8     -47.2577      2.00000
      9     -24.1185      2.00000
     10     -24.1113      2.00000
[...]
     64       7.7749      1.99964
     65       7.9600      1.65688
     66       7.9652      1.61840
     67       7.9889      1.41055
     68       8.0950      0.33645
     69       8.2236      0.00544
     70       8.3465      0.00001
     71       8.3709      0.00000
     72       8.4570      0.00000
     73       8.4967      0.00000
     74       8.7722      0.00000
     75       8.9903      0.00000
     76       9.0330      0.00000
     77       9.1199      0.00000
     78       9.3289      0.00000
     79       9.3397      0.00000
     80       9.4605      0.00000
     81       9.4774      0.00000
     82       9.5262      0.00000
     83       9.6266      0.00000
     84       9.6541      0.00000
     85       9.6624      0.00000
     86       9.8478      0.00000
     87      10.0832      0.00000
     88      10.2207      0.00000
     89      10.2873      0.00000
     90      10.5567      0.00000
     91      10.7630      0.00000
     92      11.0652      0.00000
     93      11.1093      0.00000
     94      11.1979      0.00000
     95      11.2037      0.00000
     96      11.2091      0.00000
     97      11.5672      0.00000
     98      11.8135      0.00000
     99      11.9791      0.00000
    100      12.1535      0.00000
    101      12.4516      0.00000
    102      12.4779      0.00000
    103      12.6042      0.00000
    104      13.2688      0.00000
    105      13.2753      0.00000
    106      13.3178      0.00000
    107      13.3606      0.00000
    108      14.2060      0.00000
    109      14.4470      0.00000
    110      15.0827      0.00000
    111      15.1803      0.00000
    112      15.3098      0.00000
    113      15.4567      0.00000
    114      15.5009      0.00000
    115      15.7500      0.00000
    116      15.8914      0.00000
    117      15.9658      0.00000
    118      16.0755      0.00000
    119      16.0838      0.00000
    120      16.3280      0.00000
    121      16.4551      0.00000
    122      16.7551      0.00000
    123      16.8224      0.00000
    124      16.9695      0.00000
    125      17.0968      0.00000
    126      17.5997      0.00000
    127      17.7601      0.00000
    128      17.7843      0.00000

 k-point    30 :       0.5000    0.5000    0.5000
  band No.  band energies     occupation 
      1     -48.9365      2.00000
      2     -48.9365      2.00000
      3     -48.9364      2.00000
      4     -48.9364      2.00000
      5     -48.6390      2.00000
      6     -48.6357      2.00000
      7     -48.6034      2.00000
      8     -48.6029      2.00000
      9     -25.3328      2.00000
     10     -25.3328      2.00000
     11     -25.3308      2.00000
     12     -25.3308      2.00000
     13     -25.1641      2.00000
     14     -25.1632      2.00000
     15     -25.1484      2.00000
     16     -25.1482      2.00000
     17     -25.1115      2.00000
     18     -25.1110      2.00000
     19     -25.1004      2.00000
     20     -25.1002      2.00000
     21     -25.0229      2.00000
     22     -24.9877      2.00000
     23     -24.9829      2.00000
     24     -24.9775      2.00000
     25     -24.8878      2.00000
     26     -24.8878      2.00000
     27     -24.8826      2.00000
     28     -24.8826      2.00000
     29     -24.8321      2.00000
     30     -24.8321      2.00000
     31     -24.8311      2.00000
     32     -24.8311      2.00000
     33      -7.4264      2.00000
     34      -7.3209      2.00000
     35      -7.2830      2.00000
     36      -7.2339      2.00000
     37      -7.2339      2.00000
     38      -0.7243      2.00000
     39       0.5236      2.00000
     40       1.1547      2.00000
     41       1.1547      2.00000
     42       1.5669      2.00000
     43       1.8072      2.00000
     44       1.8072      2.00000
     45       1.9361      2.00000
     46       5.3422      2.00000
     47       5.5786      2.00000
     48       5.6482      2.00000
     49       5.6580      2.00000
     50       5.6580      2.00000
     51       5.6911      2.00000
     52       6.1442      2.00000
     53       6.1442      2.00000
     54       6.4409      2.00000
     55       6.4409      2.00000
     56       6.9632      2.00000
     57       7.1027      2.00000
     58       7.1102      2.00000
     59       7.2405      2.00000
     60       7.2482      2.00000
     61       7.3450      2.00000
     62       7.3450      2.00000
     63       7.6454      2.00000
     64       7.6454      2.00000
     65       7.6527      2.00000
     66       7.8627      1.97992
     67       7.9048      1.91611
     68       8.0937      0.34560
     69       8.0937      0.34560
     70       8.2645      0.00079
     71       8.2645      0.00079
     72       8.3964      0.00000
     73       8.4177      0.00000
     74       8.7390      0.00000
     75       9.0227      0.00000
     76       9.0227      0.00000
     77       9.2382      0.00000
     78       9.3036      0.00000
     79       9.3036      0.00000
     80       9.3237      0.00000
     81       9.3490      0.00000
     82       9.3490      0.00000
     83       9.4321      0.00000
     84       9.4533      0.00000
     85       9.5423      0.00000
     86       9.9429      0.00000
     87      10.0711      0.00000
     88      10.0711      0.00000
     89      10.4555      0.00000
     90      10.8320      0.00000
     91      10.9177      0.00000
     92      10.9177      0.00000
     93      11.0232      0.00000
     94      11.0232      0.00000
     95      11.0784      0.00000
     96      11.4247      0.00000
     97      11.5338      0.00000
     98      11.9990      0.00000
     99      12.3512      0.00000
    100      12.3988      0.00000
    101      12.5172      0.00000
    102      12.5172      0.00000
    103      12.5214      0.00000
    104      12.5299      0.00000
    105      12.5299      0.00000
    106      13.2770      0.00000
    107      13.2770      0.00000
    108      13.2965      0.00000
    109      13.6151      0.00000
    110      15.3257      0.00000
    111      15.3803      0.00000
    112      15.4330      0.00000
    113      15.9199      0.00000
    114      15.9199      0.00000
    115      16.1074      0.00000
    116      16.1730      0.00000
    117      16.1730      0.00000
    118      16.7682      0.00000
    119      17.0909      0.00000
    120      17.1685      0.00000
    121      17.1685      0.00000
    122      17.1896      0.00000
    123      17.2541      0.00000
    124      17.2541      0.00000
    125      17.3273      0.00000
    126      17.3355      0.00000
    127      17.3864      0.00000
    128      17.3864      0.00000


--------------------------------------------------------------------------------------------------------


 soft charge-density along one line, spin component           1
         0         1         2         3         4         5         6         7         8         9
 total charge-density along one line
 
 pseudopotential strength for first ion, spin component:           1
 -3.659 -19.715   0.000  -0.009  -0.000  -0.000   0.009   0.000
-19.715   7.719   0.000  -0.004  -0.000   0.000  -0.001  -0.000
  0.000   0.000 -22.589   0.000  -0.000   7.195  -0.000   0.000
 -0.009  -0.004   0.000 -22.668  -0.000  -0.000   7.248   0.000
 -0.000  -0.000  -0.000  -0.000 -22.589   0.000   0.000   7.195
 -0.000   0.000   7.195  -0.000   0.000   6.557   0.000  -0.000
  0.009  -0.001  -0.000   7.248   0.000   0.000   6.537  -0.000
  0.000  -0.000   0.000   0.000   7.195  -0.000  -0.000   6.557
 -0.000  -0.000  -0.000   0.000   0.000   0.000  -0.000  -0.000
  0.000   0.000  -0.009   0.000   0.000   0.006  -0.000  -0.000
 -0.033  -0.009  -0.000  -0.006   0.000   0.000   0.004  -0.000
 -0.000  -0.000   0.000  -0.000  -0.009  -0.000   0.000   0.006
  0.000   0.000  -0.000   0.000  -0.000   0.000  -0.000   0.000
 -0.000  -0.000  -0.000   0.000   0.000   0.000  -0.000  -0.000
  0.000   0.000  -0.011   0.000   0.000   0.007  -0.000  -0.000
 -0.040  -0.011  -0.000  -0.007   0.000   0.000   0.005  -0.000
 -0.000  -0.000   0.000  -0.000  -0.011  -0.000   0.000   0.007
  0.000   0.000  -0.000   0.000  -0.000   0.000  -0.000   0.000
 total augmentation occupancy for first ion, spin component:           1
  1.995  -0.059   0.000   0.000   0.000  -0.000   0.000   0.000   0.000  -0.000  -0.007   0.000   0.000   0.000   0.000   0.008
 -0.059   1.309   0.000   0.002   0.000  -0.000  -0.013   0.000   0.000   0.000   0.006   0.000   0.000   0.000   0.000  -0.059
  0.000   0.000   1.983   0.000   0.000  -0.037  -0.000   0.000   0.000   0.006   0.000   0.000   0.000   0.000  -0.004   0.000
  0.000   0.002   0.000   1.983  -0.000  -0.000  -0.035   0.000   0.000   0.000  -0.003   0.000   0.000   0.000   0.000   0.003
  0.000   0.000   0.000  -0.000   1.983   0.000  -0.000  -0.037   0.000   0.000   0.000   0.006   0.000  -0.000   0.000   0.000
 -0.000  -0.000  -0.037  -0.000   0.000   0.108   0.000   0.000   0.000   0.010  -0.000   0.000   0.000   0.000  -0.008  -0.000
  0.000  -0.013  -0.000  -0.035  -0.000   0.000   0.105  -0.000   0.000   0.000  -0.014   0.000   0.000   0.000   0.000   0.009
  0.000   0.000   0.000   0.000  -0.037   0.000  -0.000   0.108  -0.000   0.000   0.000   0.010  -0.000   0.000  -0.000   0.000
  0.000   0.000   0.000   0.000   0.000   0.000   0.000  -0.000   1.769   0.000   0.000   0.000  -0.000  -0.882   0.000   0.000
 -0.000   0.000   0.006   0.000   0.000   0.010   0.000   0.000   0.000   2.531   0.000   0.000  -0.000  -0.000  -1.236   0.000
 -0.007   0.006   0.000  -0.003   0.000  -0.000  -0.014   0.000   0.000   0.000   1.929   0.000   0.000   0.000   0.000  -0.879
  0.000   0.000   0.000   0.000   0.006   0.000   0.000   0.010   0.000   0.000   0.000   2.531   0.000   0.000   0.000  -0.000
  0.000   0.000   0.000   0.000   0.000   0.000   0.000  -0.000  -0.000  -0.000   0.000   0.000   2.390   0.000   0.000   0.000
  0.000   0.000   0.000   0.000  -0.000   0.000   0.000   0.000  -0.882  -0.000   0.000   0.000   0.000   0.449   0.000   0.000
  0.000   0.000  -0.004   0.000   0.000  -0.008   0.000  -0.000   0.000  -1.236   0.000   0.000   0.000   0.000   0.633   0.000
  0.008  -0.059   0.000   0.003   0.000  -0.000   0.009   0.000   0.000   0.000  -0.879  -0.000   0.000   0.000   0.000   0.430
  0.000  -0.000   0.000  -0.000  -0.004   0.000   0.000  -0.008  -0.000   0.000  -0.000  -1.236   0.000  -0.000   0.000   0.000
  0.000   0.000   0.000   0.000   0.000   0.000   0.000   0.000  -0.000   0.000   0.000   0.000  -0.908   0.000   0.000   0.000


------------------------ aborting loop because EDIFF is reached ----------------------------------------


    CHARGE:  cpu time      0.0365: real time      0.0365
    FORLOC:  cpu time      0.0004: real time      0.0004
    FORNL :  cpu time      0.6485: real time      0.6486
    STRESS:  cpu time      2.1375: real time      2.1377
    FORCOR:  cpu time      0.0082: real time      0.0082
    FORHAR:  cpu time      0.0015: real time      0.0015
    MIXING:  cpu time      0.0003: real time      0.0003
    OFIELD:  cpu time      0.0000: real time      0.0000

  FORCE on cell =-STRESS in cart. coord.  units (eV):
  Direction    XX          YY          ZZ          XY          YZ          ZX
  --------------------------------------------------------------------------------------
  Alpha Z   353.75657   353.75657   353.75657
  Ewald   -3102.58969 -3102.58969 -3618.38885     0.00000    -0.00000    -0.00000
  Hartree  1709.73775  1709.73775  1155.08869    -0.00000    -0.00000    -0.00000
  E(xc)    -654.53306  -654.53306  -655.07919    -0.00000    -0.00000    -0.00000
  Local    -417.32321  -417.32321   678.81022    -0.00000    -0.00000     0.00000
  n-local   -91.61253  -114.09816   -71.79783    -2.31198     1.35364     2.50143
  augment   617.23379   617.23379   601.71131    -0.00000     0.00000    -0.00000
  Kinetic  1587.31737  1605.84872  1555.94077     0.68125    -2.66768    -3.00135
  Fock        0.00000     0.00000     0.00000     0.00000     0.00000     0.00000
  -------------------------------------------------------------------------------------
  Total       0.00985     0.00985     0.04169     0.00000     0.00000     0.00000
  in kB       0.05538     0.05538     0.23445     0.00000     0.00000     0.00000
  external pressure =        0.12 kB  Pullay stress =        0.00 kB


 VOLUME and BASIS-vectors are now :
 -----------------------------------------------------------------------------
  energy-cutoff  :      520.00
  volume of cell :      284.88
      direct lattice vectors                 reciprocal lattice vectors
     5.858455502  0.000000000  0.000000000     0.170693453  0.000000000  0.000000000
     0.000000000  5.858455502  0.000000000     0.000000000  0.170693453 -0.000000000
     0.000000000  0.000000000  8.300273972     0.000000000 -0.000000000  0.120477951

  length of vectors
     5.858455502  5.858455502  8.300273972     0.170693453  0.170693453  0.120477951


 FORCES acting on ions
    electron-ion (+dipol)            ewald-force                    non-local-force                 convergence-correction
 -----------------------------------------------------------------------------------------------
   -.185E-13 0.485E-13 -.454E+02   0.303E-13 -.927E-14 0.445E+02   0.000E+00 0.000E+00 0.862E+00   0.620E-13 0.246E-13 0.662E-03
   -.155E-13 -.194E-13 0.454E+02   0.296E-14 -.941E-14 -.445E+02   0.000E+00 0.434E-18 -.862E+00   -.249E-13 -.265E-13 -.662E-03
   -.237E-13 0.330E-12 -.443E+02   0.770E-14 0.805E-14 0.454E+02   0.000E+00 0.000E+00 -.110E+01   0.891E-14 -.127E-13 -.282E-03
   0.121E-14 0.223E-12 0.443E+02   0.760E-14 0.114E-13 -.454E+02   0.000E+00 0.000E+00 0.110E+01   -.548E-13 -.289E-13 0.282E-03
   0.431E-12 -.147E-13 -.443E+02   -.174E-13 -.728E-14 0.454E+02   0.000E+00 -.867E-18 -.110E+01   -.113E-12 0.405E-13 -.282E-03
   0.437E-12 0.249E-13 0.443E+02   -.430E-14 0.139E-14 -.454E+02   0.217E-18 0.867E-18 0.110E+01   0.160E-13 -.526E-13 0.282E-03
   0.504E-12 -.159E-11 -.219E+03   -.191E-13 0.543E-14 0.220E+03   0.000E+00 0.867E-18 -.615E+00   -.143E-13 0.479E-13 0.209E-02
   0.508E-12 -.132E-11 0.219E+03   -.114E-14 -.679E-14 -.220E+03   0.000E+00 0.000E+00 0.615E+00   -.240E-13 0.895E-13 -.209E-02
   0.943E+01 0.943E+01 0.260E-06   -.937E+01 -.937E+01 0.103E-14   -.592E-01 -.592E-01 0.217E-18   0.514E-04 0.514E-04 0.116E-12
   0.308E+02 0.308E+02 0.185E-05   -.327E+02 -.327E+02 0.574E-14   0.186E+01 0.186E+01 0.000E+00   -.474E-04 -.474E-04 -.118E-12
   0.943E+01 -.943E+01 0.225E-12   -.937E+01 0.937E+01 0.138E-13   -.592E-01 0.592E-01 0.217E-18   0.514E-04 -.514E-04 0.118E-12
   0.308E+02 -.308E+02 -.319E-13   -.327E+02 0.327E+02 0.192E-13   0.186E+01 -.186E+01 0.949E-19   -.474E-04 0.474E-04 -.116E-12
   -.943E+01 0.943E+01 -.101E-11   0.937E+01 -.937E+01 0.865E-15   0.592E-01 -.592E-01 -.217E-18   -.514E-04 0.514E-04 0.120E-12
   -.308E+02 0.308E+02 0.397E-13   0.327E+02 -.327E+02 0.577E-14   -.186E+01 0.186E+01 0.203E-18   0.474E-04 -.474E-04 -.131E-12
   -.943E+01 -.943E+01 -.260E-06   0.937E+01 0.937E+01 -.160E-13   0.592E-01 0.592E-01 -.217E-18   -.514E-04 -.514E-04 0.121E-12
   -.308E+02 -.308E+02 -.185E-05   0.327E+02 0.327E+02 0.266E-13   -.186E+01 -.186E+01 0.000E+00   0.474E-04 0.474E-04 -.129E-12
   0.575E-12 -.560E-11 0.258E-11   0.384E-13 0.495E-15 0.219E-13   0.808E-27 0.000E+00 0.129E-25   0.553E-13 0.257E-13 -.758E-12
 -----------------------------------------------------------------------------------------------
   0.108E-11 -.815E-11 -.337E-11   0.285E-14 -.137E-13 -.633E-14   0.222E-15 0.222E-15 0.222E-15   -.863E-13 0.107E-12 -.146E-12
 
 
 POSITION                                       TOTAL-FORCE (eV/Angst)
 -----------------------------------------------------------------------------------
      0.00000     -0.00000      0.15500         0.000000     -0.000000     -0.000094
      0.00000     -0.00000      3.99514         0.000000      0.000000      0.000094
      0.00000      2.92923     -0.03729         0.000000     -0.000000     -0.007464
      0.00000      2.92923      4.18743         0.000000      0.000000      0.007464
      2.92923     -0.00000     -0.03729         0.000000     -0.000000     -0.007464
      2.92923     -0.00000      4.18743         0.000000      0.000000      0.007464
      2.92923      2.92923      0.38499         0.000000     -0.000000     -0.001913
      2.92923      2.92923      3.76515         0.000000      0.000000      0.001913
      1.42176      1.42176      2.07507         0.000441      0.000441      0.000000
      1.25322      1.25322      6.22521        -0.000131     -0.000131      0.000000
      1.42176      4.43669      2.07507         0.000441     -0.000441      0.000000
      1.25322      4.60523      6.22521        -0.000131      0.000131      0.000000
      4.43669      1.42176      2.07507        -0.000441      0.000441      0.000000
      4.60523      1.25322      6.22521         0.000131     -0.000131      0.000000
      4.43669      4.43669      2.07507        -0.000441     -0.000441      0.000000
      4.60523      4.60523      6.22521         0.000131      0.000131      0.000000
      2.92923      2.92923      6.22521         0.000000     -0.000000      0.000000
 -----------------------------------------------------------------------------------
    total drift:                                0.000000     -0.000000     -0.000000


--------------------------------------------------------------------------------------------------------



  FREE ENERGIE OF THE ION-ELECTRON SYSTEM (eV)
  ---------------------------------------------------
  free  energy   TOTEN  =       -98.62932984 eV

  energy  without entropy=      -98.55833448  energy(sigma->0) =      -98.59383216
 d Force =-0.9186706E-05[-0.805E-04, 0.622E-04]  d Energy = 0.2379061E-03-0.247E-03
 d Force = 0.3398261E+00[ 0.335E+00, 0.345E+00]  d Ewald  = 0.6506840E+01-0.617E+01
 


--------------------------------------------------------------------------------------------------------


    POTLOK:  cpu time      0.0084: real time      0.0084


--------------------------------------------------------------------------------------------------------


 Quasi-Newton relaxation of ions (Broydens 2nd method)
  g(Force)  = 0.112E-04   g(Stress)= 0.548E-05

 retain information from N=  1 steps
 eigenvalues of (default step * inverse Hessian matrix)
  average eigenvalue of G=   0.6222
 eigenvalue spectrum of G is  0.6222


--------------------------------------------------------------------------------------------------------


  
 reached required accuracy - stopping structural energy minimisation
 writing wavefunctions
     LOOP+:  cpu time     59.3688: real time     59.3742
    4ORBIT:  cpu time      0.0000: real time      0.0000

 total amount of memory used by VASP MPI-rank0   133236. kBytes
=======================================================================

   base                                    :      30000. kBytes
   nonl-proj                               :      93153. kBytes
   fftplans                                :        434. kBytes
   grid                                    :       2381. kBytes
   one-center                              :        264. kBytes
   wavefun                                 :       7004. kBytes
 
  
  
 General timing and accounting informations for this job:
 ========================================================
  
                  Total CPU time used (sec):      941.236
                            User time (sec):      909.163
                          System time (sec):       32.073
                         Elapsed time (sec):      941.614
  
                   Maximum memory used (kb):      315392.
                   Average memory used (kb):          N/A
  
                          Minor page faults:        48963
                          Major page faults:           18
                 Voluntary context switches:          104
