<?xml version="1.0" encoding="ISO-8859-1"?>
<modeling>
 <generator>
  <i name="program" type="string">vasp </i>
  <i name="version" type="string">6.5.0  </i>
  <i name="subversion" type="string">16Dec24 (build Apr 17 2025 17:55:45) complex                          parallel </i>
  <i name="platform" type="string">LinuxIFC </i>
  <i name="date" type="string">2025 06 03 </i>
  <i name="time" type="string">21:52:51 </i>
 </generator>
 <incar>
  <i type="string" name="SYSTEM">CaNi2</i>
  <i type="int" name="ISTART">     0</i>
  <i type="string" name="PREC">N</i>
  <i type="string" name="ALGO">N</i>
  <i type="int" name="ICHARG">     2</i>
  <i type="int" name="NELM">   500</i>
  <i type="int" name="IBRION">     1</i>
  <i name="EDIFF">      0.00001000</i>
  <i name="EDIFFG">     -0.01000000</i>
  <i type="int" name="NSW">   300</i>
  <i type="int" name="ISIF">     3</i>
  <i name="ENCUT">    520.00000000</i>
  <i type="logical" name="LREAL"> F  </i>
  <i type="int" name="ISMEAR">     0</i>
  <i name="SIGMA">      0.10000000</i>
 </incar>
 <primitive_cell>
  <structure name="primitive_cell" >
   <crystal>
    <varray name="basis" >
     <v>       5.64763737       0.00000000       0.00000000 </v>
     <v>       0.00000000       5.64763737       0.00000000 </v>
     <v>       0.00000000       0.00000000       8.14066601 </v>
    </varray>
    <i name="volume">    259.65311861 </i>
    <varray name="rec_basis" >
     <v>       0.17706519       0.00000000       0.00000000 </v>
     <v>       0.00000000       0.17706519       0.00000000 </v>
     <v>       0.00000000       0.00000000       0.12284007 </v>
    </varray>
   </crystal>
   <varray name="positions" >
    <v>       0.00000000       0.00000000       0.00000000 </v>
    <v>       0.00000000       0.00000000       0.50000000 </v>
    <v>       0.00000000       0.50000000       0.00000000 </v>
    <v>       0.00000000       0.50000000       0.50000000 </v>
    <v>       0.50000000       0.00000000       0.00000000 </v>
    <v>       0.50000000       0.00000000       0.50000000 </v>
    <v>       0.50000000       0.50000000       0.00000000 </v>
    <v>       0.50000000       0.50000000       0.50000000 </v>
    <v>       0.25000000       0.25000000       0.25000000 </v>
    <v>       0.25000000       0.25000000       0.75000000 </v>
    <v>       0.25000000       0.75000000       0.25000000 </v>
    <v>       0.25000000       0.75000000       0.75000000 </v>
    <v>       0.75000000       0.25000000       0.25000000 </v>
    <v>       0.75000000       0.25000000       0.75000000 </v>
    <v>       0.75000000       0.75000000       0.25000000 </v>
    <v>       0.75000000       0.75000000       0.75000000 </v>
    <v>       0.50000000       0.50000000       0.75000000 </v>
   </varray>
  </structure>
  <varray name="primitive_index" >
   <v type="int" >        1 </v>
   <v type="int" >        2 </v>
   <v type="int" >        3 </v>
   <v type="int" >        4 </v>
   <v type="int" >        5 </v>
   <v type="int" >        6 </v>
   <v type="int" >        7 </v>
   <v type="int" >        8 </v>
   <v type="int" >        9 </v>
   <v type="int" >       10 </v>
   <v type="int" >       11 </v>
   <v type="int" >       12 </v>
   <v type="int" >       13 </v>
   <v type="int" >       14 </v>
   <v type="int" >       15 </v>
   <v type="int" >       16 </v>
   <v type="int" >       17 </v>
  </varray>
 </primitive_cell>
 <kpoints>
  <generation param="Gamma">
   <v type="int" name="divisions">       6        6        4 </v>
   <v name="usershift">      0.00000000       0.00000000       0.00000000 </v>
   <v name="genvec1">      0.16666667       0.00000000       0.00000000 </v>
   <v name="genvec2">      0.00000000       0.16666667       0.00000000 </v>
   <v name="genvec3">      0.00000000       0.00000000       0.25000000 </v>
   <v name="shift">      0.00000000       0.00000000       0.00000000 </v>
  </generation>
  <varray name="kpointlist" >
   <v>       0.00000000       0.00000000       0.00000000 </v>
   <v>       0.16666667       0.00000000       0.00000000 </v>
   <v>       0.33333333       0.00000000       0.00000000 </v>
   <v>       0.50000000       0.00000000       0.00000000 </v>
   <v>       0.16666667       0.16666667       0.00000000 </v>
   <v>       0.33333333       0.16666667       0.00000000 </v>
   <v>       0.50000000       0.16666667       0.00000000 </v>
   <v>       0.33333333       0.33333333       0.00000000 </v>
   <v>       0.50000000       0.33333333       0.00000000 </v>
   <v>       0.50000000       0.50000000       0.00000000 </v>
   <v>       0.00000000       0.00000000       0.25000000 </v>
   <v>       0.16666667       0.00000000       0.25000000 </v>
   <v>       0.33333333       0.00000000       0.25000000 </v>
   <v>       0.50000000       0.00000000       0.25000000 </v>
   <v>       0.16666667       0.16666667       0.25000000 </v>
   <v>       0.33333333       0.16666667       0.25000000 </v>
   <v>       0.50000000       0.16666667       0.25000000 </v>
   <v>       0.33333333       0.33333333       0.25000000 </v>
   <v>       0.50000000       0.33333333       0.25000000 </v>
   <v>       0.50000000       0.50000000       0.25000000 </v>
   <v>       0.00000000       0.00000000       0.50000000 </v>
   <v>       0.16666667       0.00000000       0.50000000 </v>
   <v>       0.33333333       0.00000000       0.50000000 </v>
   <v>       0.50000000       0.00000000       0.50000000 </v>
   <v>       0.16666667       0.16666667       0.50000000 </v>
   <v>       0.33333333       0.16666667       0.50000000 </v>
   <v>       0.50000000       0.16666667       0.50000000 </v>
   <v>       0.33333333       0.33333333       0.50000000 </v>
   <v>       0.50000000       0.33333333       0.50000000 </v>
   <v>       0.50000000       0.50000000       0.50000000 </v>
  </varray>
  <varray name="weights" >
   <v>       0.00694444 </v>
   <v>       0.02777778 </v>
   <v>       0.02777778 </v>
   <v>       0.01388889 </v>
   <v>       0.02777778 </v>
   <v>       0.05555556 </v>
   <v>       0.02777778 </v>
   <v>       0.02777778 </v>
   <v>       0.02777778 </v>
   <v>       0.00694444 </v>
   <v>       0.01388889 </v>
   <v>       0.05555556 </v>
   <v>       0.05555556 </v>
   <v>       0.02777778 </v>
   <v>       0.05555556 </v>
   <v>       0.11111111 </v>
   <v>       0.05555556 </v>
   <v>       0.05555556 </v>
   <v>       0.05555556 </v>
   <v>       0.01388889 </v>
   <v>       0.00694444 </v>
   <v>       0.02777778 </v>
   <v>       0.02777778 </v>
   <v>       0.01388889 </v>
   <v>       0.02777778 </v>
   <v>       0.05555556 </v>
   <v>       0.02777778 </v>
   <v>       0.02777778 </v>
   <v>       0.02777778 </v>
   <v>       0.00694444 </v>
  </varray>
 </kpoints>
 <parameters>
  <separator name="general" >
   <i type="string" name="SYSTEM">CaNi2</i>
   <i type="logical" name="LCOMPAT"> F  </i>
  </separator>
  <separator name="electronic" >
   <i type="string" name="PREC">n</i>
   <i name="ENMAX">    520.00000000</i>
   <i name="ENAUG">    490.69000000</i>
   <i name="EDIFF">      0.00001000</i>
   <i type="int" name="IALGO">    38</i>
   <i type="int" name="IWAVPR">    11</i>
   <i type="int" name="NBANDS">   128</i>
   <i type="int" name="NBANDSLOW">    -1</i>
   <i type="int" name="NBANDSHIGH">    -1</i>
   <i name="NELECT">    133.00000000</i>
   <i type="int" name="TURBO">     0</i>
   <i type="int" name="IRESTART">     0</i>
   <i type="int" name="NREBOOT">     0</i>
   <i type="int" name="NMIN">     0</i>
   <i name="EREF">      0.00000000</i>
   <separator name="electronic smearing" >
    <i type="int" name="ISMEAR">     0</i>
    <i name="SIGMA">      0.10000000</i>
    <i name="KSPACING">      0.50000000</i>
    <i type="logical" name="KGAMMA"> T  </i>
    <i type="logical" name="KBLOWUP"> T  </i>
   </separator>
   <separator name="electronic projectors" >
    <i type="logical" name="LREAL"> F  </i>
    <v name="ROPT">      0.00000000      0.00000000      0.00000000</v>
    <i type="int" name="LMAXPAW">  -100</i>
    <i type="int" name="LMAXMIX">     2</i>
    <i type="logical" name="NLSPLINE"> F  </i>
   </separator>
   <separator name="electronic startup" >
    <i type="int" name="ISTART">     0</i>
    <i type="int" name="ICHARG">     2</i>
    <i type="int" name="INIWAV">     1</i>
   </separator>
   <separator name="electronic spin" >
    <i type="int" name="ISPIN">     1</i>
    <i type="logical" name="LNONCOLLINEAR"> F  </i>
    <v name="MAGMOM">      1.00000000      1.00000000      1.00000000      1.00000000      1.00000000      1.00000000      1.00000000      1.00000000      1.00000000      1.00000000      1.00000000      1.00000000      1.00000000      1.00000000      1.00000000      1.00000000      1.00000000</v>
    <i name="NUPDOWN">     -1.00000000</i>
    <i type="logical" name="LSORBIT"> F  </i>
    <v name="SAXIS">      0.00000000      0.00000000      1.00000000</v>
    <i type="logical" name="LSPIRAL"> F  </i>
    <v name="QSPIRAL">      0.00000000      0.00000000      0.00000000</v>
    <i type="logical" name="LZEROZ"> F  </i>
   </separator>
   <separator name="electronic exchange-correlation" >
    <i type="logical" name="LASPH"> F  </i>
   </separator>
   <separator name="electronic convergence" >
    <i type="int" name="NELM">   500</i>
    <i type="int" name="NELMDL">    -5</i>
    <i type="int" name="NELMIN">     2</i>
    <i name="ENINI">    520.00000000</i>
    <separator name="electronic convergence detail" >
     <i type="logical" name="LDIAG"> T  </i>
     <i type="logical" name="LSUBROT"> F  </i>
     <i name="WEIMIN">      0.00100000</i>
     <i name="EBREAK">      0.00000002</i>
     <i name="DEPER">      0.30000000</i>
     <i type="int" name="NRMM">     4</i>
     <i name="TIME">      0.40000000</i>
    </separator>
   </separator>
   <separator name="electronic mixer" >
    <i name="AMIX">      0.40000000</i>
    <i name="BMIX">      1.00000000</i>
    <i name="AMIN">      0.10000000</i>
    <i name="AMIX_MAG">      1.60000000</i>
    <i name="BMIX_MAG">      1.00000000</i>
    <separator name="electronic mixer details" >
     <i type="int" name="IMIX">     4</i>
     <i type="logical" name="MIXFIRST"> F  </i>
     <i type="int" name="MAXMIX">   -45</i>
     <i name="WC">    100.00000000</i>
     <i type="int" name="INIMIX">     1</i>
     <i type="int" name="MIXPRE">     1</i>
     <i type="int" name="MREMOVE">     5</i>
    </separator>
   </separator>
   <separator name="electronic dipolcorrection" >
    <i type="logical" name="LDIPOL"> F  </i>
    <i type="logical" name="LMONO"> F  </i>
    <i type="int" name="IDIPOL">     0</i>
    <i name="EPSILON">      1.00000000</i>
    <v name="DIPOL">   -100.00000000   -100.00000000   -100.00000000</v>
    <i name="EFIELD">      0.00000000</i>
    <i type="logical" name="LVACPOTAV"> F  </i>
   </separator>
  </separator>
  <separator name="grids" >
   <i type="int" name="NGX">    32</i>
   <i type="int" name="NGY">    32</i>
   <i type="int" name="NGZ">    48</i>
   <i type="int" name="NGXF">    64</i>
   <i type="int" name="NGYF">    64</i>
   <i type="int" name="NGZF">    96</i>
   <i type="logical" name="ADDGRID"> F  </i>
  </separator>
  <separator name="ionic" >
   <i type="int" name="NSW">   300</i>
   <i type="int" name="IBRION">     1</i>
   <i type="int" name="MDALGO">     0</i>
   <i type="int" name="ISIF">     3</i>
   <i name="PSTRESS">      0.00000000</i>
   <i name="EDIFFG">     -0.01000000</i>
   <i type="int" name="NFREE">     0</i>
   <i name="POTIM">      0.50000000</i>
   <i name="SMASS">     -3.00000000</i>
   <i name="SCALEE">      1.00000000</i>
  </separator>
  <separator name="ionic md" >
   <i name="TEBEG">      0.00010000</i>
   <i name="TEEND">      0.00010000</i>
   <i type="int" name="NBLOCK">     1</i>
   <i type="int" name="KBLOCK">   300</i>
   <i type="int" name="NPACO">   256</i>
   <i name="APACO">     10.00000000</i>
  </separator>
  <separator name="symmetry" >
   <i type="int" name="ISYM">     2</i>
   <i name="SYMPREC">      0.00001000</i>
  </separator>
  <separator name="dos" >
   <i type="int" name="LORBIT">     0</i>
   <v name="RWIGS">     -1.00000000     -1.00000000     -1.00000000</v>
   <i type="int" name="NEDOS">   301</i>
   <i name="EMIN">     10.00000000</i>
   <i name="EMAX">    -10.00000000</i>
   <i name="EFERMI">      0.00000000</i>
  </separator>
  <separator name="writing" >
   <i type="int" name="NWRITE">     2</i>
   <i type="logical" name="LWAVE"> T  </i>
   <i type="logical" name="LDOWNSAMPLE"> F  </i>
   <i type="logical" name="LCHARG"> T  </i>
   <i type="logical" name="LPARD"> F  </i>
   <i type="logical" name="LVTOT"> F  </i>
   <i type="logical" name="LVHAR"> F  </i>
   <i type="logical" name="LELF"> F  </i>
   <i type="logical" name="LOPTICS"> F  </i>
   <v name="STM">      0.00000000      0.00000000      0.00000000      0.00000000      0.00000000      0.00000000      0.00000000</v>
  </separator>
  <separator name="performance" >
   <i type="int" name="NPAR">    64</i>
   <i type="int" name="NSIM">     4</i>
   <i type="int" name="NBLK">    -1</i>
   <i type="logical" name="LPLANE"> T  </i>
   <i type="logical" name="LSCALAPACK"> T  </i>
   <i type="logical" name="LSCAAWARE"> T  </i>
   <i type="logical" name="LSCALU"> F  </i>
   <i type="logical" name="LASYNC"> F  </i>
   <i type="logical" name="LORBITALREAL"> F  </i>
  </separator>
  <separator name="miscellaneous" >
   <i type="int" name="IDIOT">     3</i>
   <i type="int" name="PHON_NSTRUCT">    -1</i>
   <i type="logical" name="LMUSIC"> F  </i>
   <v name="POMASS">     47.88000000     26.98100000     69.72300000</v>
   <v name="DARWINR">      0.00000000      0.00000000      0.00000000</v>
   <v name="DARWINV">      1.00000000      1.00000000      1.00000000</v>
   <i type="logical" name="LCORR"> T  </i>
  </separator>
  <i type="logical" name="GGA_COMPAT"> T  </i>
  <i type="logical" name="LBERRY"> F  </i>
  <i type="int" name="ICORELEVEL">     0</i>
  <i type="logical" name="LDAU"> F  </i>
  <i type="int" name="I_CONSTRAINED_M">     0</i>
  <separator name="electronic exchange-correlation" >
   <i type="string" name="GGA    ">PE</i>
   <i type="string" name="XC_C">1</i>
   <i type="int" name="VOSKOWN">     0</i>
   <i type="logical" name="LHFCALC"> F  </i>
   <i type="string" name="PRECFOCK"></i>
   <i type="logical" name="LSYMGRAD"> F  </i>
   <i type="logical" name="LHFONE"> F  </i>
   <i type="logical" name="LRHFCALC"> F  </i>
   <i type="logical" name="LTHOMAS"> F  </i>
   <i type="logical" name="LMODELHF"> F  </i>
   <i type="logical" name="LFOCKACE"> F  </i>
   <i name="ENCUT4O">     -1.00000000</i>
   <i type="int" name="EXXOEP">     0</i>
   <i type="int" name="FOURORBIT">     0</i>
   <i name="AEXX">      0.00000000</i>
   <i name="HFALPHA">      0.00000000</i>
   <i name="MCALPHA">      0.00000000</i>
   <i name="ALDAX">      1.00000000</i>
   <i name="AGGAX">      1.00000000</i>
   <i name="AMGGAX">      1.00000000</i>
   <i name="ALDAC">      1.00000000</i>
   <i name="AGGAC">      1.00000000</i>
   <i name="AMGGAC">      1.00000000</i>
   <i type="int" name="NKREDX">     1</i>
   <i type="int" name="NKREDY">     1</i>
   <i type="int" name="NKREDZ">     1</i>
   <i type="logical" name="SHIFTRED"> F  </i>
   <i type="logical" name="ODDONLY"> F  </i>
   <i type="logical" name="EVENONLY"> F  </i>
   <i type="int" name="LMAXFOCK">     0</i>
   <i type="int" name="NMAXFOCKAE">     0</i>
   <i type="logical" name="LFOCKAEDFT"> F  </i>
   <i name="HFSCREEN">      0.00000000</i>
   <i name="HFSCREENC">      0.00000000</i>
   <i type="int" name="NBANDSGWLOW">     0</i>
  </separator>
  <separator name="vdW DFT" >
   <i type="logical" name="LUSE_VDW"> F  </i>
   <i type="int" name="IVDW_NL">    -1</i>
   <i type="logical" name="LSPIN_VDW"> F  </i>
   <i name="ZAB_VDW">     -0.84910000</i>
   <i name="GAMMA_VDW">      1.39626340</i>
   <i name="ALPHA_VDW">      0.00000000</i>
   <i name="PARAM1">      0.12340000</i>
   <i name="PARAM2">      1.00000000</i>
   <i name="BPARAM">      6.30000000</i>
   <i name="CPARAM">      0.00930000</i>
  </separator>
  <separator name="model GW" >
   <i type="int" name="MODEL_GW">     0</i>
   <i name="MODEL_EPS0">      9.16422772</i>
   <i name="MODEL_ALPHA">      1.00000000</i>
  </separator>
  <separator name="linear response parameters" >
   <i type="logical" name="LEPSILON"> F  </i>
   <i type="logical" name="LRPA"> F  </i>
   <i type="logical" name="LNABLA"> F  </i>
   <i type="logical" name="LVEL"> F  </i>
   <i name="CSHIFT">      0.10000000</i>
   <i name="OMEGAMAX">     -1.00000000</i>
   <i name="DEG_THRESHOLD">      0.00200000</i>
   <i name="RTIME">     -0.10000000</i>
   <i name="WPLASMAI">      0.00000000</i>
   <v name="DFIELD">      0.00000000      0.00000000      0.00000000</v>
   <v name="WPLASMA">      0.00000000      0.00000000      0.00000000      0.00000000      0.00000000      0.00000000      0.00000000      0.00000000      0.00000000</v>
  </separator>
  <separator name="orbital magnetization" >
   <i type="logical" name="NUCIND"> F  </i>
   <v name="MAGPOS">      0.00000000      0.00000000      0.00000000</v>
   <i type="logical" name="LNICSALL"> T  </i>
   <i type="logical" name="ORBITALMAG"> F  </i>
   <i type="logical" name="LMAGBLOCH"> F  </i>
   <i type="logical" name="LCHIMAG"> F  </i>
   <i type="logical" name="LGAUGE"> T  </i>
   <i type="int" name="MAGATOM">     0</i>
   <v name="MAGDIPOL">      0.00000000      0.00000000      0.00000000</v>
   <v name="AVECCONST">      0.00000000      0.00000000      0.00000000</v>
  </separator>
  <separator name="response functions" >
   <i type="logical" name="LALL_IN_ONE"> F  </i>
   <i type="int" name="IALL_IN_ONE">    -1</i>
   <i type="int" name="NBANDS_WAVE">    -1</i>
   <i type="logical" name="LFINITE_TEMPERATURE"> F  </i>
   <i type="logical" name="LADDER"> F  </i>
   <i type="logical" name="LRPAFORCE"> F  </i>
   <i type="logical" name="LFXC"> F  </i>
   <i type="logical" name="LHARTREE"> T  </i>
   <i type="int" name="IBSE">     2</i>
   <v type="int" name="KPOINT">    -1     0     0     0</v>
   <i type="logical" name="LTCTC"> F  </i>
   <i type="logical" name="LTCTE"> F  </i>
   <i type="logical" name="LTETE"> F  </i>
   <i type="logical" name="LTRIPLET"> F  </i>
   <i type="logical" name="LFXCEPS"> F  </i>
   <i type="logical" name="LFXHEG"> F  </i>
   <i type="int" name="NATURALO">     2</i>
   <i type="logical" name="LHOLEGF"> F  </i>
   <i type="logical" name="L2ORDER"> F  </i>
   <i type="logical" name="LDMP1"> F  </i>
   <i type="logical" name="LMP2LT"> F  </i>
   <i type="logical" name="LSMP2LT"> F  </i>
   <i type="logical" name="LGWLF"> F  </i>
   <i name="ENCUTGW">     -1.60000002</i>
   <i name="ENCUTGWSOFT">     -1.60000002</i>
   <i name="ENCUTLF">     -1.00000000</i>
   <i type="logical" name="ESF_SPLINES"> F  </i>
   <i name="ESF_CONV">      0.01000000</i>
   <i type="int" name="ESF_NINTER">    15</i>
   <i type="int" name="LMAXMP2">    -1</i>
   <i name="SCISSOR">      0.00000000</i>
   <i type="int" name="NOMEGA">     0</i>
   <i type="int" name="NOMEGAR">     0</i>
   <i type="int" name="NBANDSGW">    -1</i>
   <i type="int" name="NBANDSO">    -1</i>
   <i type="int" name="NBANDSV">    -1</i>
   <i type="int" name="NELMGW">     1</i>
   <i type="int" name="NELMHF">     1</i>
   <i type="int" name="DIM">     3</i>
   <i type="int" name="IESPILON">     4</i>
   <i type="int" name="ANTIRES">     0</i>
   <i name="OMEGAMAX">    -30.00000000</i>
   <i name="OMEGAMIN">    -30.00000000</i>
   <i name="OMEGATL">   -200.00000000</i>
   <i type="int" name="OMEGAGRID">     0</i>
   <i name="CSHIFT">     -0.10000000</i>
   <i type="logical" name="LSELFENERGY"> F  </i>
   <i type="logical" name="LSPECTRAL"> F  </i>
   <i type="logical" name="LSPECTRALGW"> F  </i>
   <i type="logical" name="LSINGLES"> F  </i>
   <i type="logical" name="LFERMIGW"> F  </i>
   <i type="logical" name="ODDONLYGW"> F  </i>
   <i type="logical" name="EVENONLYGW"> F  </i>
   <i type="int" name="NKREDLFX">     1</i>
   <i type="int" name="NKREDLFY">     1</i>
   <i type="int" name="NKREDLFZ">     1</i>
   <i type="int" name="MAXMEM">  2800</i>
   <i type="int" name="TELESCOPE">     0</i>
   <i type="int" name="NTAUPAR">    -1</i>
   <i type="int" name="NOMEGAPAR">    -1</i>
   <i name="DAMP_NEWTON">      0.80000001</i>
   <i name="LAMBDA">      1.00000000</i>
  </separator>
  <separator name="External order field" >
   <i name="OFIELD_KAPPA">      0.00000000</i>
   <v name="OFIELD_K">      0.00000000      0.00000000      0.00000000</v>
   <i name="OFIELD_Q6_NEAR">      0.00000000</i>
   <i name="OFIELD_Q6_FAR">      0.00000000</i>
   <i name="OFIELD_A">      0.00000000</i>
  </separator>
  <separator name="optional k-points parameters" >
   <i type="int" name="KPOINTS_OPT_MODE">     1</i>
   <i type="logical" name="LKPOINTS_OPT"> F  </i>
  </separator>
 </parameters>
 <atominfo>
  <atoms>      17 </atoms>
  <types>       3 </types>
  <array name="atoms" >
   <dimension dim="1">ion</dimension>
   <field type="string">element</field>
   <field type="int">atomtype</field>
   <set>
    <rc><c>Ti</c><c>   1</c></rc>
    <rc><c>Ti</c><c>   1</c></rc>
    <rc><c>Ti</c><c>   1</c></rc>
    <rc><c>Ti</c><c>   1</c></rc>
    <rc><c>Ti</c><c>   1</c></rc>
    <rc><c>Ti</c><c>   1</c></rc>
    <rc><c>Ti</c><c>   1</c></rc>
    <rc><c>Ti</c><c>   1</c></rc>
    <rc><c>Al</c><c>   2</c></rc>
    <rc><c>Al</c><c>   2</c></rc>
    <rc><c>Al</c><c>   2</c></rc>
    <rc><c>Al</c><c>   2</c></rc>
    <rc><c>Al</c><c>   2</c></rc>
    <rc><c>Al</c><c>   2</c></rc>
    <rc><c>Al</c><c>   2</c></rc>
    <rc><c>Al</c><c>   2</c></rc>
    <rc><c>Ga</c><c>   3</c></rc>
   </set>
  </array>
  <array name="atomtypes" >
   <dimension dim="1">type</dimension>
   <field type="int">atomspertype</field>
   <field type="string">element</field>
   <field>mass</field>
   <field>valence</field>
   <field type="string">pseudopotential</field>
   <set>
    <rc><c>   8</c><c>Ti</c><c>     47.88000000</c><c>     12.00000000</c><c>  PAW_PBE Ti_sv 26Sep2005               </c></rc>
    <rc><c>   8</c><c>Al</c><c>     26.98100000</c><c>      3.00000000</c><c>  PAW_PBE Al 04Jan2001                  </c></rc>
    <rc><c>   1</c><c>Ga</c><c>     69.72300000</c><c>     13.00000000</c><c>  PAW_PBE Ga_d 06Jul2010                </c></rc>
   </set>
  </array>
 </atominfo>
 <structure name="initialpos" >
  <crystal>
   <varray name="basis" >
    <v>       5.64763737       0.00000000       0.00000000 </v>
    <v>       0.00000000       5.64763737       0.00000000 </v>
    <v>       0.00000000       0.00000000       8.14066601 </v>
   </varray>
   <i name="volume">    259.65311861 </i>
   <varray name="rec_basis" >
    <v>       0.17706519       0.00000000       0.00000000 </v>
    <v>       0.00000000       0.17706519       0.00000000 </v>
    <v>       0.00000000       0.00000000       0.12284007 </v>
   </varray>
  </crystal>
  <varray name="positions" >
   <v>       0.00000000       0.00000000       0.00000000 </v>
   <v>       0.00000000       0.00000000       0.50000000 </v>
   <v>       0.00000000       0.50000000       0.00000000 </v>
   <v>       0.00000000       0.50000000       0.50000000 </v>
   <v>       0.50000000       0.00000000       0.00000000 </v>
   <v>       0.50000000       0.00000000       0.50000000 </v>
   <v>       0.50000000       0.50000000       0.00000000 </v>
   <v>       0.50000000       0.50000000       0.50000000 </v>
   <v>       0.25000000       0.25000000       0.25000000 </v>
   <v>       0.25000000       0.25000000       0.75000000 </v>
   <v>       0.25000000       0.75000000       0.25000000 </v>
   <v>       0.25000000       0.75000000       0.75000000 </v>
   <v>       0.75000000       0.25000000       0.25000000 </v>
   <v>       0.75000000       0.25000000       0.75000000 </v>
   <v>       0.75000000       0.75000000       0.25000000 </v>
   <v>       0.75000000       0.75000000       0.75000000 </v>
   <v>       0.50000000       0.50000000       0.75000000 </v>
  </varray>
 </structure>
 <calculation>
  <scstep>
   <time name="dav">    3.80    3.80</time>
   <time name="total">    3.81    3.81</time>
   <energy>
    <i name="alphaZ">    388.12325785 </i>
    <i name="ewald">  -9739.40454642 </i>
    <i name="hartreedc">  -5005.67217426 </i>
    <i name="XCdc">    336.06389462 </i>
    <i name="pawpsdc">  12249.27850793 </i>
    <i name="pawaedc"> -12170.51614461 </i>
    <i name="eentropy">     -0.03220228 </i>
    <i name="bandstr">   -328.83743767 </i>
    <i name="atom">  15281.81476201 </i>
    <i name="e_fr_energy">   1010.81791717 </i>
    <i name="e_wo_entrp">   1010.85011945 </i>
    <i name="e_0_energy">   1010.83401831 </i>
   </energy>
  </scstep>
  <scstep>
   <time name="dav">    3.89    3.89</time>
   <time name="total">    3.89    3.89</time>
   <energy>
    <i name="e_fr_energy">    -19.73482316 </i>
    <i name="e_wo_entrp">    -19.66660384 </i>
    <i name="e_0_energy">    -19.70071350 </i>
   </energy>
  </scstep>
  <scstep>
   <time name="dav">   11.48   11.48</time>
   <time name="total">   11.48   11.48</time>
   <energy>
    <i name="e_fr_energy">   -103.13113793 </i>
    <i name="e_wo_entrp">   -103.06171362 </i>
    <i name="e_0_energy">   -103.09642578 </i>
   </energy>
  </scstep>
  <scstep>
   <time name="dav">    3.78    3.78</time>
   <time name="total">    3.79    3.79</time>
   <energy>
    <i name="e_fr_energy">   -105.48988765 </i>
    <i name="e_wo_entrp">   -105.42086171 </i>
    <i name="e_0_energy">   -105.45537468 </i>
   </energy>
  </scstep>
  <scstep>
   <time name="dav">    8.41    8.41</time>
   <time name="total">    8.45    8.45</time>
   <energy>
    <i name="e_fr_energy">   -105.55578889 </i>
    <i name="e_wo_entrp">   -105.48677348 </i>
    <i name="e_0_energy">   -105.52128119 </i>
   </energy>
  </scstep>
  <scstep>
   <time name="dav">    6.95    6.95</time>
   <time name="total">    6.99    6.99</time>
   <energy>
    <i name="e_fr_energy">    -97.76866676 </i>
    <i name="e_wo_entrp">    -97.69647350 </i>
    <i name="e_0_energy">    -97.73257013 </i>
   </energy>
  </scstep>
  <scstep>
   <time name="dav">    5.94    5.94</time>
   <time name="total">    5.98    5.98</time>
   <energy>
    <i name="e_fr_energy">    -97.36546836 </i>
    <i name="e_wo_entrp">    -97.29832312 </i>
    <i name="e_0_energy">    -97.33189574 </i>
   </energy>
  </scstep>
  <scstep>
   <time name="dav">    5.24    5.24</time>
   <time name="total">    5.28    5.28</time>
   <energy>
    <i name="e_fr_energy">    -91.80511319 </i>
    <i name="e_wo_entrp">    -91.74107027 </i>
    <i name="e_0_energy">    -91.77309173 </i>
   </energy>
  </scstep>
  <scstep>
   <time name="dav">    5.77    5.77</time>
   <time name="total">    5.82    5.82</time>
   <energy>
    <i name="e_fr_energy">    -91.71895373 </i>
    <i name="e_wo_entrp">    -91.65509601 </i>
    <i name="e_0_energy">    -91.68702487 </i>
   </energy>
  </scstep>
  <scstep>
   <time name="dav">    5.61    5.61</time>
   <time name="total">    5.65    5.65</time>
   <energy>
    <i name="e_fr_energy">    -91.40199445 </i>
    <i name="e_wo_entrp">    -91.33657120 </i>
    <i name="e_0_energy">    -91.36928282 </i>
   </energy>
  </scstep>
  <scstep>
   <time name="dav">    6.08    6.08</time>
   <time name="total">    6.13    6.13</time>
   <energy>
    <i name="e_fr_energy">    -91.37491196 </i>
    <i name="e_wo_entrp">    -91.30976245 </i>
    <i name="e_0_energy">    -91.34233721 </i>
   </energy>
  </scstep>
  <scstep>
   <time name="dav">    6.67    6.67</time>
   <time name="total">    6.71    6.71</time>
   <energy>
    <i name="e_fr_energy">    -91.36985280 </i>
    <i name="e_wo_entrp">    -91.30518477 </i>
    <i name="e_0_energy">    -91.33751879 </i>
   </energy>
  </scstep>
  <scstep>
   <time name="dav">    4.96    4.96</time>
   <time name="total">    5.00    5.00</time>
   <energy>
    <i name="e_fr_energy">    -91.37048433 </i>
    <i name="e_wo_entrp">    -91.30599103 </i>
    <i name="e_0_energy">    -91.33823768 </i>
   </energy>
  </scstep>
  <scstep>
   <time name="dav">    7.41    7.41</time>
   <time name="total">    7.45    7.46</time>
   <energy>
    <i name="e_fr_energy">    -91.37045657 </i>
    <i name="e_wo_entrp">    -91.30589596 </i>
    <i name="e_0_energy">    -91.33817626 </i>
   </energy>
  </scstep>
  <scstep>
   <time name="dav">    5.67    5.67</time>
   <time name="total">    5.68    5.68</time>
   <energy>
    <i name="alphaZ">    388.12325785 </i>
    <i name="ewald">  -9739.40454642 </i>
    <i name="hartreedc">  -4813.99692948 </i>
    <i name="XCdc">    328.50244494 </i>
    <i name="pawpsdc">  16472.91879557 </i>
    <i name="pawaedc"> -16367.52824686 </i>
    <i name="eentropy">     -0.06456491 </i>
    <i name="bandstr">  -1641.73543733 </i>
    <i name="atom">  15281.81476201 </i>
    <i name="e_fr_energy">    -91.37046463 </i>
    <i name="e_wo_entrp">    -91.30589972 </i>
    <i name="e_0_energy">    -91.33818218 </i>
   </energy>
  </scstep>
  <structure>
   <crystal>
    <varray name="basis" >
     <v>       5.64763737       0.00000000       0.00000000 </v>
     <v>       0.00000000       5.64763737       0.00000000 </v>
     <v>       0.00000000       0.00000000       8.14066601 </v>
    </varray>
    <i name="volume">    259.65311861 </i>
    <varray name="rec_basis" >
     <v>       0.17706519       0.00000000       0.00000000 </v>
     <v>       0.00000000       0.17706519       0.00000000 </v>
     <v>       0.00000000       0.00000000       0.12284007 </v>
    </varray>
   </crystal>
   <varray name="positions" >
    <v>       0.00000000       0.00000000       0.00000000 </v>
    <v>       0.00000000       0.00000000       0.50000000 </v>
    <v>       0.00000000       0.50000000       0.00000000 </v>
    <v>       0.00000000       0.50000000       0.50000000 </v>
    <v>       0.50000000       0.00000000       0.00000000 </v>
    <v>       0.50000000       0.00000000       0.50000000 </v>
    <v>       0.50000000       0.50000000       0.00000000 </v>
    <v>       0.50000000       0.50000000       0.50000000 </v>
    <v>       0.25000000       0.25000000       0.25000000 </v>
    <v>       0.25000000       0.25000000       0.75000000 </v>
    <v>       0.25000000       0.75000000       0.25000000 </v>
    <v>       0.25000000       0.75000000       0.75000000 </v>
    <v>       0.75000000       0.25000000       0.25000000 </v>
    <v>       0.75000000       0.25000000       0.75000000 </v>
    <v>       0.75000000       0.75000000       0.25000000 </v>
    <v>       0.75000000       0.75000000       0.75000000 </v>
    <v>       0.50000000       0.50000000       0.75000000 </v>
   </varray>
  </structure>
  <varray name="forces" >
   <v>       0.00000000       0.00000000       0.03917618 </v>
   <v>       0.00000000       0.00000000      -0.03917618 </v>
   <v>       0.00000000      -0.00000000       0.19813885 </v>
   <v>       0.00000000       0.00000000      -0.19813885 </v>
   <v>       0.00000000       0.00000000       0.19813885 </v>
   <v>       0.00000000       0.00000000      -0.19813885 </v>
   <v>       0.00000000       0.00000000       8.93847964 </v>
   <v>       0.00000000       0.00000000      -8.93847964 </v>
   <v>      -0.00509995      -0.00509995      -0.00000000 </v>
   <v>      -5.01475757      -5.01475757      -0.00000000 </v>
   <v>      -0.00509995       0.00509995      -0.00000000 </v>
   <v>      -5.01475757       5.01475757      -0.00000000 </v>
   <v>       0.00509995      -0.00509995      -0.00000000 </v>
   <v>       5.01475757      -5.01475757      -0.00000000 </v>
   <v>       0.00509995       0.00509995      -0.00000000 </v>
   <v>       5.01475757       5.01475757      -0.00000000 </v>
   <v>       0.00000000      -0.00000000      -0.00000000 </v>
  </varray>
  <varray name="stress" >
   <v>     178.21376947       0.00000000       0.00000000 </v>
   <v>       0.00000000     178.21376947      -0.00000000 </v>
   <v>       0.00000000      -0.00000000     236.72357397 </v>
  </varray>
  <energy>
   <i name="e_fr_energy">    -91.37046463 </i>
   <i name="e_wo_entrp">    -91.30589972 </i>
   <i name="e_0_energy">    -91.33818218 </i>
  </energy>
  <time name="totalsc">   95.82   95.82</time>
 </calculation>
 <calculation>
  <scstep>
   <time name="dav">    5.98    5.98</time>
   <time name="total">    6.03    6.03</time>
   <energy>
    <i name="alphaZ">    298.99648414 </i>
    <i name="ewald">  -9283.93709719 </i>
    <i name="hartreedc">  -4168.96463286 </i>
    <i name="XCdc">    284.30922347 </i>
    <i name="pawpsdc">  16473.96638387 </i>
    <i name="pawaedc"> -16368.59412787 </i>
    <i name="eentropy">     -0.41363483 </i>
    <i name="bandstr">  -2769.87336657 </i>
    <i name="atom">  15281.81476201 </i>
    <i name="e_fr_energy">   -252.69600582 </i>
    <i name="e_wo_entrp">   -252.28237099 </i>
    <i name="e_0_energy">   -252.48918840 </i>
   </energy>
  </scstep>
  <scstep>
   <time name="dav">    9.98    9.98</time>
   <time name="total">   10.03   10.03</time>
   <energy>
    <i name="e_fr_energy">   -466.56084794 </i>
    <i name="e_wo_entrp">   -466.52125991 </i>
    <i name="e_0_energy">   -466.54105392 </i>
   </energy>
  </scstep>
  <scstep>
   <time name="dav">    7.05    7.05</time>
   <time name="total">    7.10    7.10</time>
   <energy>
    <i name="e_fr_energy">   -203.31918665 </i>
    <i name="e_wo_entrp">   -203.28450938 </i>
    <i name="e_0_energy">   -203.30184801 </i>
   </energy>
  </scstep>
  <scstep>
   <time name="dav">    8.19    8.19</time>
   <time name="total">    8.24    8.24</time>
   <energy>
    <i name="e_fr_energy">   -120.00378581 </i>
    <i name="e_wo_entrp">   -119.96015989 </i>
    <i name="e_0_energy">   -119.98197285 </i>
   </energy>
  </scstep>
  <scstep>
   <time name="dav">    7.25    7.25</time>
   <time name="total">    7.30    7.30</time>
   <energy>
    <i name="e_fr_energy">    -95.16045152 </i>
    <i name="e_wo_entrp">    -95.07300231 </i>
    <i name="e_0_energy">    -95.11672691 </i>
   </energy>
  </scstep>
  <scstep>
   <time name="dav">    4.82    4.82</time>
   <time name="total">    4.87    4.87</time>
   <energy>
    <i name="e_fr_energy">    -95.55981127 </i>
    <i name="e_wo_entrp">    -95.47871003 </i>
    <i name="e_0_energy">    -95.51926065 </i>
   </energy>
  </scstep>
  <scstep>
   <time name="dav">    6.73    6.73</time>
   <time name="total">    6.78    6.78</time>
   <energy>
    <i name="e_fr_energy">    -95.91816478 </i>
    <i name="e_wo_entrp">    -95.82554563 </i>
    <i name="e_0_energy">    -95.87185521 </i>
   </energy>
  </scstep>
  <scstep>
   <time name="dav">    8.69    8.69</time>
   <time name="total">    8.74    8.74</time>
   <energy>
    <i name="e_fr_energy">    -95.85486641 </i>
    <i name="e_wo_entrp">    -95.76838676 </i>
    <i name="e_0_energy">    -95.81162659 </i>
   </energy>
  </scstep>
  <scstep>
   <time name="dav">    6.34    6.34</time>
   <time name="total">    6.39    6.39</time>
   <energy>
    <i name="e_fr_energy">    -95.90989140 </i>
    <i name="e_wo_entrp">    -95.82174117 </i>
    <i name="e_0_energy">    -95.86581629 </i>
   </energy>
  </scstep>
  <scstep>
   <time name="dav">    5.37    5.37</time>
   <time name="total">    5.42    5.42</time>
   <energy>
    <i name="e_fr_energy">    -95.84058720 </i>
    <i name="e_wo_entrp">    -95.75493879 </i>
    <i name="e_0_energy">    -95.79776299 </i>
   </energy>
  </scstep>
  <scstep>
   <time name="dav">    5.03    5.03</time>
   <time name="total">    5.08    5.08</time>
   <energy>
    <i name="e_fr_energy">    -95.85079519 </i>
    <i name="e_wo_entrp">    -95.76576708 </i>
    <i name="e_0_energy">    -95.80828113 </i>
   </energy>
  </scstep>
  <scstep>
   <time name="dav">    6.07    6.07</time>
   <time name="total">    6.12    6.12</time>
   <energy>
    <i name="e_fr_energy">    -95.84845272 </i>
    <i name="e_wo_entrp">    -95.76346992 </i>
    <i name="e_0_energy">    -95.80596132 </i>
   </energy>
  </scstep>
  <scstep>
   <time name="dav">    5.88    5.88</time>
   <time name="total">    5.94    5.94</time>
   <energy>
    <i name="e_fr_energy">    -95.84444592 </i>
    <i name="e_wo_entrp">    -95.76039015 </i>
    <i name="e_0_energy">    -95.80241803 </i>
   </energy>
  </scstep>
  <scstep>
   <time name="dav">    5.24    5.24</time>
   <time name="total">    5.28    5.28</time>
   <energy>
    <i name="e_fr_energy">    -95.84409578 </i>
    <i name="e_wo_entrp">    -95.75989277 </i>
    <i name="e_0_energy">    -95.80199427 </i>
   </energy>
  </scstep>
  <scstep>
   <time name="dav">    7.60    7.60</time>
   <time name="total">    7.65    7.65</time>
   <energy>
    <i name="e_fr_energy">    -95.84407399 </i>
    <i name="e_wo_entrp">    -95.75988144 </i>
    <i name="e_0_energy">    -95.80197772 </i>
   </energy>
  </scstep>
  <scstep>
   <time name="dav">    6.24    6.24</time>
   <time name="total">    6.29    6.29</time>
   <energy>
    <i name="e_fr_energy">    -95.84403888 </i>
    <i name="e_wo_entrp">    -95.75987451 </i>
    <i name="e_0_energy">    -95.80195670 </i>
   </energy>
  </scstep>
  <scstep>
   <time name="dav">    6.91    6.91</time>
   <time name="total">    6.96    6.96</time>
   <energy>
    <i name="e_fr_energy">    -95.84401659 </i>
    <i name="e_wo_entrp">    -95.75990140 </i>
    <i name="e_0_energy">    -95.80195900 </i>
   </energy>
  </scstep>
  <scstep>
   <time name="dav">    2.75    2.75</time>
   <time name="total">    2.76    2.76</time>
   <energy>
    <i name="alphaZ">    298.99648414 </i>
    <i name="ewald">  -9283.93709719 </i>
    <i name="hartreedc">  -4823.84877690 </i>
    <i name="XCdc">    314.57181926 </i>
    <i name="pawpsdc">  13599.31499415 </i>
    <i name="pawaedc"> -13509.74110605 </i>
    <i name="eentropy">     -0.08411663 </i>
    <i name="bandstr">  -1972.93097948 </i>
    <i name="atom">  15281.81476201 </i>
    <i name="e_fr_energy">    -95.84401669 </i>
    <i name="e_wo_entrp">    -95.75990005 </i>
    <i name="e_0_energy">    -95.80195837 </i>
   </energy>
  </scstep>
  <structure>
   <crystal>
    <varray name="basis" >
     <v>       6.11052256       0.00000000       0.00000000 </v>
     <v>       0.00000000       6.11052256      -0.00000000 </v>
     <v>       0.00000000      -0.00000000       9.02693729 </v>
    </varray>
    <i name="volume">    337.05217169 </i>
    <varray name="rec_basis" >
     <v>       0.16365212       0.00000000       0.00000000 </v>
     <v>       0.00000000       0.16365212       0.00000000 </v>
     <v>       0.00000000       0.00000000       0.11077954 </v>
    </varray>
   </crystal>
   <varray name="positions" >
    <v>       0.00000000       0.00000000       0.00023216 </v>
    <v>       0.00000000       0.00000000       0.49976784 </v>
    <v>       0.00000000       0.50000000       0.00117420 </v>
    <v>       0.00000000       0.50000000       0.49882580 </v>
    <v>       0.50000000       0.00000000       0.00117420 </v>
    <v>       0.50000000       0.00000000       0.49882580 </v>
    <v>       0.50000000       0.50000000       0.05297060 </v>
    <v>       0.50000000       0.50000000       0.44702940 </v>
    <v>       0.24995644       0.24995644       0.25000000 </v>
    <v>       0.20716347       0.20716347       0.75000000 </v>
    <v>       0.24995644       0.75004356       0.25000000 </v>
    <v>       0.20716347       0.79283653       0.75000000 </v>
    <v>       0.75004356       0.24995644       0.25000000 </v>
    <v>       0.79283653       0.20716347       0.75000000 </v>
    <v>       0.75004356       0.75004356       0.25000000 </v>
    <v>       0.79283653       0.79283653       0.75000000 </v>
    <v>       0.50000000       0.50000000       0.75000000 </v>
   </varray>
  </structure>
  <varray name="forces" >
   <v>       0.00000000      -0.00000000       0.99296285 </v>
   <v>       0.00000000       0.00000000      -0.99296285 </v>
   <v>       0.00000000       0.00000000      -0.06675602 </v>
   <v>       0.00000000      -0.00000000       0.06675602 </v>
   <v>       0.00000000       0.00000000      -0.06675602 </v>
   <v>       0.00000000      -0.00000000       0.06675602 </v>
   <v>       0.00000000       0.00000000      -0.88694593 </v>
   <v>       0.00000000      -0.00000000       0.88694593 </v>
   <v>      -0.34302775      -0.34302775       0.00000000 </v>
   <v>       0.50616833       0.50616833       0.00000000 </v>
   <v>      -0.34302775       0.34302775       0.00000000 </v>
   <v>       0.50616833      -0.50616833       0.00000000 </v>
   <v>       0.34302775      -0.34302775       0.00000000 </v>
   <v>      -0.50616833       0.50616833       0.00000000 </v>
   <v>       0.34302775       0.34302775       0.00000000 </v>
   <v>      -0.50616833      -0.50616833       0.00000000 </v>
   <v>       0.00000000       0.00000000       0.00000000 </v>
  </varray>
  <varray name="stress" >
   <v>    -104.22816263       0.00000000       0.00000000 </v>
   <v>       0.00000000    -104.22816263      -0.00000000 </v>
   <v>       0.00000000       0.00000000    -141.36183386 </v>
  </varray>
  <energy>
   <i name="e_fr_energy">    -95.84401669 </i>
   <i name="e_wo_entrp">    -95.75990005 </i>
   <i name="e_0_energy">    -95.80195837 </i>
  </energy>
  <time name="totalsc">  120.34  120.36</time>
 </calculation>
 <calculation>
  <scstep>
   <time name="dav">    7.45    7.45</time>
   <time name="total">    7.49    7.49</time>
   <energy>
    <i name="alphaZ">    340.88096606 </i>
    <i name="ewald">  -9699.76384960 </i>
    <i name="hartreedc">  -5037.82386149 </i>
    <i name="XCdc">    339.45630354 </i>
    <i name="pawpsdc">  13599.29919622 </i>
    <i name="pawaedc"> -13509.73084131 </i>
    <i name="eentropy">     -0.07808714 </i>
    <i name="bandstr">  -1444.92846454 </i>
    <i name="atom">  15281.81476201 </i>
    <i name="e_fr_energy">   -130.87387623 </i>
    <i name="e_wo_entrp">   -130.79578909 </i>
    <i name="e_0_energy">   -130.83483266 </i>
   </energy>
  </scstep>
  <scstep>
   <time name="dav">    5.99    5.99</time>
   <time name="total">    6.03    6.04</time>
   <energy>
    <i name="e_fr_energy">   -103.16900686 </i>
    <i name="e_wo_entrp">   -103.11672054 </i>
    <i name="e_0_energy">   -103.14286370 </i>
   </energy>
  </scstep>
  <scstep>
   <time name="dav">    6.03    6.03</time>
   <time name="total">    6.08    6.08</time>
   <energy>
    <i name="e_fr_energy">   -100.80247363 </i>
    <i name="e_wo_entrp">   -100.70982188 </i>
    <i name="e_0_energy">   -100.75614775 </i>
   </energy>
  </scstep>
  <scstep>
   <time name="dav">    5.75    5.75</time>
   <time name="total">    5.80    5.80</time>
   <energy>
    <i name="e_fr_energy">    -99.04879590 </i>
    <i name="e_wo_entrp">    -98.97438278 </i>
    <i name="e_0_energy">    -99.01158934 </i>
   </energy>
  </scstep>
  <scstep>
   <time name="dav">    7.99    7.99</time>
   <time name="total">    8.04    8.04</time>
   <energy>
    <i name="e_fr_energy">    -98.45382597 </i>
    <i name="e_wo_entrp">    -98.38475803 </i>
    <i name="e_0_energy">    -98.41929200 </i>
   </energy>
  </scstep>
  <scstep>
   <time name="dav">    6.64    6.64</time>
   <time name="total">    6.69    6.69</time>
   <energy>
    <i name="e_fr_energy">    -97.88381248 </i>
    <i name="e_wo_entrp">    -97.81303295 </i>
    <i name="e_0_energy">    -97.84842272 </i>
   </energy>
  </scstep>
  <scstep>
   <time name="dav">    6.37    6.37</time>
   <time name="total">    6.42    6.42</time>
   <energy>
    <i name="e_fr_energy">    -97.95038245 </i>
    <i name="e_wo_entrp">    -97.87689481 </i>
    <i name="e_0_energy">    -97.91363863 </i>
   </energy>
  </scstep>
  <scstep>
   <time name="dav">    8.93    8.93</time>
   <time name="total">    8.98    8.98</time>
   <energy>
    <i name="e_fr_energy">    -98.12731920 </i>
    <i name="e_wo_entrp">    -98.05174166 </i>
    <i name="e_0_energy">    -98.08953043 </i>
   </energy>
  </scstep>
  <scstep>
   <time name="dav">    6.59    6.59</time>
   <time name="total">    6.64    6.64</time>
   <energy>
    <i name="e_fr_energy">    -98.13569639 </i>
    <i name="e_wo_entrp">    -98.05976230 </i>
    <i name="e_0_energy">    -98.09772934 </i>
   </energy>
  </scstep>
  <scstep>
   <time name="dav">    6.86    6.87</time>
   <time name="total">    6.92    6.92</time>
   <energy>
    <i name="e_fr_energy">    -98.13655680 </i>
    <i name="e_wo_entrp">    -98.06111737 </i>
    <i name="e_0_energy">    -98.09883708 </i>
   </energy>
  </scstep>
  <scstep>
   <time name="dav">    7.20    7.20</time>
   <time name="total">    7.25    7.25</time>
   <energy>
    <i name="e_fr_energy">    -98.13668172 </i>
    <i name="e_wo_entrp">    -98.06103739 </i>
    <i name="e_0_energy">    -98.09885955 </i>
   </energy>
  </scstep>
  <scstep>
   <time name="dav">    6.38    6.38</time>
   <time name="total">    6.43    6.43</time>
   <energy>
    <i name="e_fr_energy">    -98.13670128 </i>
    <i name="e_wo_entrp">    -98.06105842 </i>
    <i name="e_0_energy">    -98.09887985 </i>
   </energy>
  </scstep>
  <scstep>
   <time name="dav">    6.51    6.51</time>
   <time name="total">    6.52    6.52</time>
   <energy>
    <i name="alphaZ">    340.88096606 </i>
    <i name="ewald">  -9699.76384960 </i>
    <i name="hartreedc">  -4632.65611078 </i>
    <i name="XCdc">    320.39787357 </i>
    <i name="pawpsdc">  14559.76133673 </i>
    <i name="pawaedc"> -14460.85096051 </i>
    <i name="eentropy">     -0.07566784 </i>
    <i name="bandstr">  -1807.64506053 </i>
    <i name="atom">  15281.81476201 </i>
    <i name="e_fr_energy">    -98.13671088 </i>
    <i name="e_wo_entrp">    -98.06104304 </i>
    <i name="e_0_energy">    -98.09887696 </i>
   </energy>
  </scstep>
  <structure>
   <crystal>
    <varray name="basis" >
     <v>       5.87709355       0.00000000       0.00000000 </v>
     <v>       0.00000000       5.87709355      -0.00000000 </v>
     <v>       0.00000000      -0.00000000       8.55924093 </v>
    </varray>
    <i name="volume">    295.63813865 </i>
    <varray name="rec_basis" >
     <v>       0.17015213       0.00000000       0.00000000 </v>
     <v>       0.00000000       0.17015213       0.00000000 </v>
     <v>       0.00000000       0.00000000       0.11683279 </v>
    </varray>
   </crystal>
   <varray name="positions" >
    <v>       0.00000000       0.00000000       0.00349013 </v>
    <v>       0.00000000       0.00000000       0.49650987 </v>
    <v>       0.00000000       0.50000000       0.00095517 </v>
    <v>       0.00000000       0.50000000       0.49904483 </v>
    <v>       0.50000000       0.00000000       0.00095517 </v>
    <v>       0.50000000       0.00000000       0.49904483 </v>
    <v>       0.50000000       0.50000000       0.05006049 </v>
    <v>       0.50000000       0.50000000       0.44993951 </v>
    <v>       0.24829377       0.24829377       0.25000000 </v>
    <v>       0.20961688       0.20961688       0.75000000 </v>
    <v>       0.24829377       0.75170623       0.25000000 </v>
    <v>       0.20961688       0.79038312       0.75000000 </v>
    <v>       0.75170623       0.24829377       0.25000000 </v>
    <v>       0.79038312       0.20961688       0.75000000 </v>
    <v>       0.75170623       0.75170623       0.25000000 </v>
    <v>       0.79038312       0.79038312       0.75000000 </v>
    <v>       0.50000000       0.50000000       0.75000000 </v>
   </varray>
  </structure>
  <varray name="forces" >
   <v>       0.00000000      -0.00000000       1.23583859 </v>
   <v>       0.00000000      -0.00000000      -1.23583859 </v>
   <v>       0.00000000      -0.00000000      -0.18136699 </v>
   <v>       0.00000000      -0.00000000       0.18136699 </v>
   <v>       0.00000000      -0.00000000      -0.18136699 </v>
   <v>       0.00000000      -0.00000000       0.18136699 </v>
   <v>       0.00000000      -0.00000000      -0.95814426 </v>
   <v>       0.00000000      -0.00000000       0.95814426 </v>
   <v>      -0.43492235      -0.43492235      -0.00000000 </v>
   <v>       0.57624209       0.57624209      -0.00000000 </v>
   <v>      -0.43492235       0.43492235      -0.00000000 </v>
   <v>       0.57624209      -0.57624209      -0.00000000 </v>
   <v>       0.43492235      -0.43492235      -0.00000000 </v>
   <v>      -0.57624209       0.57624209      -0.00000000 </v>
   <v>       0.43492235       0.43492235      -0.00000000 </v>
   <v>      -0.57624209      -0.57624209      -0.00000000 </v>
   <v>       0.00000000      -0.00000000      -0.00000000 </v>
  </varray>
  <varray name="stress" >
   <v>     -17.55748864       0.00000000       0.00000000 </v>
   <v>       0.00000000     -17.55748864      -0.00000000 </v>
   <v>       0.00000000       0.00000000     -50.31185179 </v>
  </varray>
  <energy>
   <i name="e_fr_energy">    -98.13671088 </i>
   <i name="e_wo_entrp">    -98.06104304 </i>
   <i name="e_0_energy">    -98.09887696 </i>
  </energy>
  <time name="totalsc">   92.61   92.62</time>
 </calculation>
 <calculation>
  <scstep>
   <time name="dav">    5.20    5.20</time>
   <time name="total">    5.25    5.25</time>
   <energy>
    <i name="alphaZ">    352.32298109 </i>
    <i name="ewald">  -9795.47505363 </i>
    <i name="hartreedc">  -4693.17317705 </i>
    <i name="XCdc">    326.61094500 </i>
    <i name="pawpsdc">  14559.58481938 </i>
    <i name="pawaedc"> -14460.68969340 </i>
    <i name="eentropy">     -0.09119383 </i>
    <i name="bandstr">  -1671.24976088 </i>
    <i name="atom">  15281.81476201 </i>
    <i name="e_fr_energy">   -100.34537132 </i>
    <i name="e_wo_entrp">   -100.25417749 </i>
    <i name="e_0_energy">   -100.29977440 </i>
   </energy>
  </scstep>
  <scstep>
   <time name="dav">    4.06    4.06</time>
   <time name="total">    4.11    4.11</time>
   <energy>
    <i name="e_fr_energy">    -99.07328997 </i>
    <i name="e_wo_entrp">    -99.00622108 </i>
    <i name="e_0_energy">    -99.03975553 </i>
   </energy>
  </scstep>
  <scstep>
   <time name="dav">    6.97    6.97</time>
   <time name="total">    7.02    7.02</time>
   <energy>
    <i name="e_fr_energy">    -98.70182544 </i>
    <i name="e_wo_entrp">    -98.62725068 </i>
    <i name="e_0_energy">    -98.66453806 </i>
   </energy>
  </scstep>
  <scstep>
   <time name="dav">    6.93    6.93</time>
   <time name="total">    6.99    6.99</time>
   <energy>
    <i name="e_fr_energy">    -98.71956454 </i>
    <i name="e_wo_entrp">    -98.64802773 </i>
    <i name="e_0_energy">    -98.68379613 </i>
   </energy>
  </scstep>
  <scstep>
   <time name="dav">    8.38    8.38</time>
   <time name="total">    8.44    8.44</time>
   <energy>
    <i name="e_fr_energy">    -98.57274842 </i>
    <i name="e_wo_entrp">    -98.50003893 </i>
    <i name="e_0_energy">    -98.53639367 </i>
   </energy>
  </scstep>
  <scstep>
   <time name="dav">    5.98    5.98</time>
   <time name="total">    6.03    6.03</time>
   <energy>
    <i name="e_fr_energy">    -98.56714651 </i>
    <i name="e_wo_entrp">    -98.49513429 </i>
    <i name="e_0_energy">    -98.53114040 </i>
   </energy>
  </scstep>
  <scstep>
   <time name="dav">    7.27    7.27</time>
   <time name="total">    7.33    7.33</time>
   <energy>
    <i name="e_fr_energy">    -98.57522800 </i>
    <i name="e_wo_entrp">    -98.50259320 </i>
    <i name="e_0_energy">    -98.53891060 </i>
   </energy>
  </scstep>
  <scstep>
   <time name="dav">    8.37    8.37</time>
   <time name="total">    8.42    8.42</time>
   <energy>
    <i name="e_fr_energy">    -98.58448464 </i>
    <i name="e_wo_entrp">    -98.51148290 </i>
    <i name="e_0_energy">    -98.54798377 </i>
   </energy>
  </scstep>
  <scstep>
   <time name="dav">    5.42    5.42</time>
   <time name="total">    5.46    5.46</time>
   <energy>
    <i name="e_fr_energy">    -98.58472596 </i>
    <i name="e_wo_entrp">    -98.51166177 </i>
    <i name="e_0_energy">    -98.54819386 </i>
   </energy>
  </scstep>
  <scstep>
   <time name="dav">    6.15    6.15</time>
   <time name="total">    6.20    6.20</time>
   <energy>
    <i name="e_fr_energy">    -98.58476464 </i>
    <i name="e_wo_entrp">    -98.51167339 </i>
    <i name="e_0_energy">    -98.54821902 </i>
   </energy>
  </scstep>
  <scstep>
   <time name="dav">    4.75    4.75</time>
   <time name="total">    4.76    4.76</time>
   <energy>
    <i name="alphaZ">    352.32298109 </i>
    <i name="ewald">  -9795.47505363 </i>
    <i name="hartreedc">  -4596.06721932 </i>
    <i name="XCdc">    321.86864779 </i>
    <i name="pawpsdc">  14824.07912964 </i>
    <i name="pawaedc"> -14723.84464279 </i>
    <i name="eentropy">     -0.07308708 </i>
    <i name="bandstr">  -1763.21027826 </i>
    <i name="atom">  15281.81476201 </i>
    <i name="e_fr_energy">    -98.58476055 </i>
    <i name="e_wo_entrp">    -98.51167347 </i>
    <i name="e_0_energy">    -98.54821701 </i>
   </energy>
  </scstep>
  <structure>
   <crystal>
    <varray name="basis" >
     <v>       5.85124711       0.00000000       0.00000000 </v>
     <v>       0.00000000       5.85124711      -0.00000000 </v>
     <v>       0.00000000      -0.00000000       8.35459419 </v>
    </varray>
    <i name="volume">    286.03701636 </i>
    <varray name="rec_basis" >
     <v>       0.17090374       0.00000000       0.00000000 </v>
     <v>       0.00000000       0.17090374       0.00000000 </v>
     <v>       0.00000000       0.00000000       0.11969462 </v>
    </varray>
   </crystal>
   <varray name="positions" >
    <v>       0.00000000      -0.00000000       0.01194983 </v>
    <v>       0.00000000      -0.00000000       0.48805017 </v>
    <v>       0.00000000       0.50000000      -0.00033586 </v>
    <v>       0.00000000       0.50000000       0.50033586 </v>
    <v>       0.50000000      -0.00000000      -0.00033586 </v>
    <v>       0.50000000      -0.00000000       0.50033586 </v>
    <v>       0.50000000       0.50000000       0.04357511 </v>
    <v>       0.50000000       0.50000000       0.45642489 </v>
    <v>       0.24395652       0.24395652       0.25000000 </v>
    <v>       0.21531557       0.21531557       0.75000000 </v>
    <v>       0.24395652       0.75604348       0.25000000 </v>
    <v>       0.21531557       0.78468443       0.75000000 </v>
    <v>       0.75604348       0.24395652       0.25000000 </v>
    <v>       0.78468443       0.21531557       0.75000000 </v>
    <v>       0.75604348       0.75604348       0.25000000 </v>
    <v>       0.78468443       0.78468443       0.75000000 </v>
    <v>       0.50000000       0.50000000       0.75000000 </v>
   </varray>
  </structure>
  <varray name="forces" >
   <v>       0.00000000       0.00000000       0.44630363 </v>
   <v>       0.00000000       0.00000000      -0.44630363 </v>
   <v>       0.00000000       0.00000000      -0.08888244 </v>
   <v>       0.00000000       0.00000000       0.08888244 </v>
   <v>       0.00000000       0.00000000      -0.08888244 </v>
   <v>       0.00000000       0.00000000       0.08888244 </v>
   <v>       0.00000000       0.00000000       0.08032284 </v>
   <v>       0.00000000       0.00000000      -0.08032284 </v>
   <v>      -0.10122899      -0.10122899      -0.00000000 </v>
   <v>      -0.07293212      -0.07293212      -0.00000000 </v>
   <v>      -0.10122899       0.10122899      -0.00000000 </v>
   <v>      -0.07293212       0.07293212      -0.00000000 </v>
   <v>       0.10122899      -0.10122899      -0.00000000 </v>
   <v>       0.07293212      -0.07293212      -0.00000000 </v>
   <v>       0.10122899       0.10122899      -0.00000000 </v>
   <v>       0.07293212       0.07293212      -0.00000000 </v>
   <v>       0.00000000       0.00000000      -0.00000000 </v>
  </varray>
  <varray name="stress" >
   <v>      -0.77743714       0.00000000       0.00000000 </v>
   <v>       0.00000000      -0.77743714       0.00000000 </v>
   <v>       0.00000000       0.00000000      -7.36558100 </v>
  </varray>
  <energy>
   <i name="e_fr_energy">    -98.58476055 </i>
   <i name="e_wo_entrp">    -98.51167347 </i>
   <i name="e_0_energy">    -98.54821701 </i>
  </energy>
  <time name="totalsc">   73.33   73.34</time>
 </calculation>
 <calculation>
  <scstep>
   <time name="dav">    4.90    4.90</time>
   <time name="total">    4.95    4.95</time>
   <energy>
    <i name="alphaZ">    353.54907921 </i>
    <i name="ewald">  -9812.53056391 </i>
    <i name="hartreedc">  -4595.92439415 </i>
    <i name="XCdc">    322.51045479 </i>
    <i name="pawpsdc">  14824.42043014 </i>
    <i name="pawaedc"> -14724.17463719 </i>
    <i name="eentropy">     -0.07476021 </i>
    <i name="bandstr">  -1748.20564524 </i>
    <i name="atom">  15281.81476201 </i>
    <i name="e_fr_energy">    -98.61527453 </i>
    <i name="e_wo_entrp">    -98.54051433 </i>
    <i name="e_0_energy">    -98.57789443 </i>
   </energy>
  </scstep>
  <scstep>
   <time name="dav">    3.90    3.91</time>
   <time name="total">    3.95    3.95</time>
   <energy>
    <i name="e_fr_energy">    -98.63437727 </i>
    <i name="e_wo_entrp">    -98.56333175 </i>
    <i name="e_0_energy">    -98.59885451 </i>
   </energy>
  </scstep>
  <scstep>
   <time name="dav">    6.26    6.26</time>
   <time name="total">    6.31    6.31</time>
   <energy>
    <i name="e_fr_energy">    -98.63018665 </i>
    <i name="e_wo_entrp">    -98.55774300 </i>
    <i name="e_0_energy">    -98.59396482 </i>
   </energy>
  </scstep>
  <scstep>
   <time name="dav">    6.24    6.24</time>
   <time name="total">    6.29    6.29</time>
   <energy>
    <i name="e_fr_energy">    -98.61318037 </i>
    <i name="e_wo_entrp">    -98.54108436 </i>
    <i name="e_0_energy">    -98.57713236 </i>
   </energy>
  </scstep>
  <scstep>
   <time name="dav">    7.70    7.70</time>
   <time name="total">    7.75    7.75</time>
   <energy>
    <i name="e_fr_energy">    -98.61403942 </i>
    <i name="e_wo_entrp">    -98.54127237 </i>
    <i name="e_0_energy">    -98.57765589 </i>
   </energy>
  </scstep>
  <scstep>
   <time name="dav">    7.17    7.17</time>
   <time name="total">    7.22    7.22</time>
   <energy>
    <i name="e_fr_energy">    -98.61169408 </i>
    <i name="e_wo_entrp">    -98.53963094 </i>
    <i name="e_0_energy">    -98.57566251 </i>
   </energy>
  </scstep>
  <scstep>
   <time name="dav">    6.05    6.05</time>
   <time name="total">    6.10    6.10</time>
   <energy>
    <i name="e_fr_energy">    -98.61181952 </i>
    <i name="e_wo_entrp">    -98.53969218 </i>
    <i name="e_0_energy">    -98.57575585 </i>
   </energy>
  </scstep>
  <scstep>
   <time name="dav">    7.86    7.86</time>
   <time name="total">    7.91    7.91</time>
   <energy>
    <i name="e_fr_energy">    -98.61193508 </i>
    <i name="e_wo_entrp">    -98.53976973 </i>
    <i name="e_0_energy">    -98.57585241 </i>
   </energy>
  </scstep>
  <scstep>
   <time name="dav">    5.53    5.53</time>
   <time name="total">    5.54    5.54</time>
   <energy>
    <i name="alphaZ">    353.54907921 </i>
    <i name="ewald">  -9812.53056391 </i>
    <i name="hartreedc">  -4585.13247095 </i>
    <i name="XCdc">    322.01037484 </i>
    <i name="pawpsdc">  14850.65867687 </i>
    <i name="pawaedc"> -14750.39854856 </i>
    <i name="eentropy">     -0.07216859 </i>
    <i name="bandstr">  -1758.51108054 </i>
    <i name="atom">  15281.81476201 </i>
    <i name="e_fr_energy">    -98.61193962 </i>
    <i name="e_wo_entrp">    -98.53977102 </i>
    <i name="e_0_energy">    -98.57585532 </i>
   </energy>
  </scstep>
  <structure>
   <crystal>
    <varray name="basis" >
     <v>       5.85229071       0.00000000       0.00000000 </v>
     <v>       0.00000000       5.85229071      -0.00000000 </v>
     <v>       0.00000000      -0.00000000       8.32265168 </v>
    </varray>
    <i name="volume">    285.04504815 </i>
    <varray name="rec_basis" >
     <v>       0.17087326       0.00000000       0.00000000 </v>
     <v>       0.00000000       0.17087326       0.00000000 </v>
     <v>       0.00000000       0.00000000       0.12015401 </v>
    </varray>
   </crystal>
   <varray name="positions" >
    <v>       0.00000000      -0.00000000       0.01500144 </v>
    <v>       0.00000000      -0.00000000       0.48499856 </v>
    <v>       0.00000000       0.50000000      -0.00093992 </v>
    <v>       0.00000000       0.50000000       0.50093992 </v>
    <v>       0.50000000      -0.00000000      -0.00093992 </v>
    <v>       0.50000000      -0.00000000       0.50093992 </v>
    <v>       0.50000000       0.50000000       0.04395131 </v>
    <v>       0.50000000       0.50000000       0.45604869 </v>
    <v>       0.24293204       0.24293204       0.25000000 </v>
    <v>       0.21477186       0.21477186       0.75000000 </v>
    <v>       0.24293204       0.75706796       0.25000000 </v>
    <v>       0.21477186       0.78522814       0.75000000 </v>
    <v>       0.75706796       0.24293204       0.25000000 </v>
    <v>       0.78522814       0.21477186       0.75000000 </v>
    <v>       0.75706796       0.75706796       0.25000000 </v>
    <v>       0.78522814       0.78522814       0.75000000 </v>
    <v>       0.50000000       0.50000000       0.75000000 </v>
   </varray>
  </structure>
  <varray name="forces" >
   <v>       0.00000000       0.00000000       0.22827901 </v>
   <v>       0.00000000       0.00000000      -0.22827901 </v>
   <v>       0.00000000       0.00000000      -0.08126741 </v>
   <v>       0.00000000       0.00000000       0.08126741 </v>
   <v>       0.00000000       0.00000000      -0.08126741 </v>
   <v>       0.00000000       0.00000000       0.08126741 </v>
   <v>       0.00000000       0.00000000       0.16593190 </v>
   <v>       0.00000000       0.00000000      -0.16593190 </v>
   <v>      -0.02611139      -0.02611139      -0.00000000 </v>
   <v>      -0.03802040      -0.03802040      -0.00000000 </v>
   <v>      -0.02611139       0.02611139      -0.00000000 </v>
   <v>      -0.03802040       0.03802040      -0.00000000 </v>
   <v>       0.02611139      -0.02611139      -0.00000000 </v>
   <v>       0.03802040      -0.03802040      -0.00000000 </v>
   <v>       0.02611139       0.02611139      -0.00000000 </v>
   <v>       0.03802040       0.03802040      -0.00000000 </v>
   <v>       0.00000000       0.00000000      -0.00000000 </v>
  </varray>
  <varray name="stress" >
   <v>       0.81013346       0.00000000       0.00000000 </v>
   <v>       0.00000000       0.81013346       0.00000000 </v>
   <v>       0.00000000       0.00000000      -1.38649174 </v>
  </varray>
  <energy>
   <i name="e_fr_energy">    -98.61193962 </i>
   <i name="e_wo_entrp">    -98.53977102 </i>
   <i name="e_0_energy">    -98.57585532 </i>
  </energy>
  <time name="totalsc">   59.38   59.38</time>
 </calculation>
 <calculation>
  <scstep>
   <time name="dav">    5.57    5.58</time>
   <time name="total">    5.62    5.62</time>
   <energy>
    <i name="alphaZ">    353.37191294 </i>
    <i name="ewald">  -9817.22828207 </i>
    <i name="hartreedc">  -4578.44259569 </i>
    <i name="XCdc">    321.90766742 </i>
    <i name="pawpsdc">  14850.90210972 </i>
    <i name="pawaedc"> -14750.57239443 </i>
    <i name="eentropy">     -0.07202838 </i>
    <i name="bandstr">  -1760.28898857 </i>
    <i name="atom">  15281.81476201 </i>
    <i name="e_fr_energy">    -98.60783705 </i>
    <i name="e_wo_entrp">    -98.53580867 </i>
    <i name="e_0_energy">    -98.57182286 </i>
   </energy>
  </scstep>
  <scstep>
   <time name="dav">    3.88    3.88</time>
   <time name="total">    3.93    3.93</time>
   <energy>
    <i name="e_fr_energy">    -98.62670935 </i>
    <i name="e_wo_entrp">    -98.55465060 </i>
    <i name="e_0_energy">    -98.59067997 </i>
   </energy>
  </scstep>
  <scstep>
   <time name="dav">    6.88    6.88</time>
   <time name="total">    6.92    6.92</time>
   <energy>
    <i name="e_fr_energy">    -98.62349120 </i>
    <i name="e_wo_entrp">    -98.55162172 </i>
    <i name="e_0_energy">    -98.58755646 </i>
   </energy>
  </scstep>
  <scstep>
   <time name="dav">    7.24    7.24</time>
   <time name="total">    7.29    7.29</time>
   <energy>
    <i name="e_fr_energy">    -98.62290077 </i>
    <i name="e_wo_entrp">    -98.55172639 </i>
    <i name="e_0_energy">    -98.58731358 </i>
   </energy>
  </scstep>
  <scstep>
   <time name="dav">    6.02    6.02</time>
   <time name="total">    6.07    6.07</time>
   <energy>
    <i name="e_fr_energy">    -98.62276330 </i>
    <i name="e_wo_entrp">    -98.55116920 </i>
    <i name="e_0_energy">    -98.58696625 </i>
   </energy>
  </scstep>
  <scstep>
   <time name="dav">    6.44    6.45</time>
   <time name="total">    6.49    6.49</time>
   <energy>
    <i name="e_fr_energy">    -98.62261815 </i>
    <i name="e_wo_entrp">    -98.55118791 </i>
    <i name="e_0_energy">    -98.58690303 </i>
   </energy>
  </scstep>
  <scstep>
   <time name="dav">    4.80    4.80</time>
   <time name="total">    4.81    4.81</time>
   <energy>
    <i name="alphaZ">    353.37191294 </i>
    <i name="ewald">  -9817.22828207 </i>
    <i name="hartreedc">  -4579.57128273 </i>
    <i name="XCdc">    321.97472923 </i>
    <i name="pawpsdc">  14841.71655034 </i>
    <i name="pawaedc"> -14741.39461018 </i>
    <i name="eentropy">     -0.07142198 </i>
    <i name="bandstr">  -1759.23497229 </i>
    <i name="atom">  15281.81476201 </i>
    <i name="e_fr_energy">    -98.62261473 </i>
    <i name="e_wo_entrp">    -98.55119275 </i>
    <i name="e_0_energy">    -98.58690374 </i>
   </energy>
  </scstep>
  <structure>
   <crystal>
    <varray name="basis" >
     <v>       5.85656954       0.00000000       0.00000000 </v>
     <v>       0.00000000       5.85656954      -0.00000000 </v>
     <v>       0.00000000      -0.00000000       8.31466153 </v>
    </varray>
    <i name="volume">    285.18795811 </i>
    <varray name="rec_basis" >
     <v>       0.17074842       0.00000000       0.00000000 </v>
     <v>       0.00000000       0.17074842       0.00000000 </v>
     <v>       0.00000000       0.00000000       0.12026948 </v>
    </varray>
   </crystal>
   <varray name="positions" >
    <v>       0.00000000      -0.00000000       0.01691489 </v>
    <v>       0.00000000      -0.00000000       0.48308511 </v>
    <v>       0.00000000       0.50000000      -0.00159546 </v>
    <v>       0.00000000       0.50000000       0.50159546 </v>
    <v>       0.50000000      -0.00000000      -0.00159546 </v>
    <v>       0.50000000      -0.00000000       0.50159546 </v>
    <v>       0.50000000       0.50000000       0.04520016 </v>
    <v>       0.50000000       0.50000000       0.45479984 </v>
    <v>       0.24258379       0.24258379       0.25000000 </v>
    <v>       0.21437446       0.21437446       0.75000000 </v>
    <v>       0.24258379       0.75741621       0.25000000 </v>
    <v>       0.21437446       0.78562554       0.75000000 </v>
    <v>       0.75741621       0.24258379       0.25000000 </v>
    <v>       0.78562554       0.21437446       0.75000000 </v>
    <v>       0.75741621       0.75741621       0.25000000 </v>
    <v>       0.78562554       0.78562554       0.75000000 </v>
    <v>       0.50000000       0.50000000       0.75000000 </v>
   </varray>
  </structure>
  <varray name="forces" >
   <v>      -0.00000000      -0.00000000       0.10064717 </v>
   <v>      -0.00000000       0.00000000      -0.10064717 </v>
   <v>      -0.00000000       0.00000000      -0.07318433 </v>
   <v>      -0.00000000      -0.00000000       0.07318433 </v>
   <v>      -0.00000000       0.00000000      -0.07318433 </v>
   <v>      -0.00000000      -0.00000000       0.07318433 </v>
   <v>      -0.00000000      -0.00000000       0.08024865 </v>
   <v>      -0.00000000       0.00000000      -0.08024865 </v>
   <v>      -0.00486284      -0.00486284       0.00000000 </v>
   <v>      -0.01924055      -0.01924055       0.00000000 </v>
   <v>      -0.00486284       0.00486284       0.00000000 </v>
   <v>      -0.01924055       0.01924055       0.00000000 </v>
   <v>       0.00486284      -0.00486284       0.00000000 </v>
   <v>       0.01924055      -0.01924055       0.00000000 </v>
   <v>       0.00486284       0.00486284       0.00000000 </v>
   <v>       0.01924055       0.01924055       0.00000000 </v>
   <v>      -0.00000000      -0.00000000       0.00000000 </v>
  </varray>
  <varray name="stress" >
   <v>       0.40396567       0.00000000       0.00000000 </v>
   <v>       0.00000000       0.40396567      -0.00000000 </v>
   <v>       0.00000000      -0.00000000      -1.37475674 </v>
  </varray>
  <energy>
   <i name="e_fr_energy">    -98.62261473 </i>
   <i name="e_wo_entrp">    -98.55119275 </i>
   <i name="e_0_energy">    -98.58690374 </i>
  </energy>
  <time name="totalsc">   44.48   44.49</time>
 </calculation>
 <calculation>
  <scstep>
   <time name="dav">    5.77    5.77</time>
   <time name="total">    5.82    5.82</time>
   <energy>
    <i name="alphaZ">    353.39462402 </i>
    <i name="ewald">  -9822.70596125 </i>
    <i name="hartreedc">  -4574.53619958 </i>
    <i name="XCdc">    321.97110747 </i>
    <i name="pawpsdc">  14841.02810392 </i>
    <i name="pawaedc"> -14740.80863894 </i>
    <i name="eentropy">     -0.07204668 </i>
    <i name="bandstr">  -1758.69861844 </i>
    <i name="atom">  15281.81476201 </i>
    <i name="e_fr_energy">    -98.61286747 </i>
    <i name="e_wo_entrp">    -98.54082079 </i>
    <i name="e_0_energy">    -98.57684413 </i>
   </energy>
  </scstep>
  <scstep>
   <time name="dav">    3.92    3.92</time>
   <time name="total">    3.97    3.97</time>
   <energy>
    <i name="e_fr_energy">    -98.63119453 </i>
    <i name="e_wo_entrp">    -98.55952849 </i>
    <i name="e_0_energy">    -98.59536151 </i>
   </energy>
  </scstep>
  <scstep>
   <time name="dav">    7.12    7.12</time>
   <time name="total">    7.16    7.16</time>
   <energy>
    <i name="e_fr_energy">    -98.62825869 </i>
    <i name="e_wo_entrp">    -98.55706155 </i>
    <i name="e_0_energy">    -98.59266012 </i>
   </energy>
  </scstep>
  <scstep>
   <time name="dav">    6.38    6.38</time>
   <time name="total">    6.43    6.43</time>
   <energy>
    <i name="e_fr_energy">    -98.62718446 </i>
    <i name="e_wo_entrp">    -98.55627264 </i>
    <i name="e_0_energy">    -98.59172855 </i>
   </energy>
  </scstep>
  <scstep>
   <time name="dav">    6.79    6.79</time>
   <time name="total">    6.84    6.84</time>
   <energy>
    <i name="e_fr_energy">    -98.62733473 </i>
    <i name="e_wo_entrp">    -98.55613331 </i>
    <i name="e_0_energy">    -98.59173402 </i>
   </energy>
  </scstep>
  <scstep>
   <time name="dav">    5.62    5.62</time>
   <time name="total">    5.67    5.67</time>
   <energy>
    <i name="e_fr_energy">    -98.62709995 </i>
    <i name="e_wo_entrp">    -98.55623565 </i>
    <i name="e_0_energy">    -98.59166780 </i>
   </energy>
  </scstep>
  <scstep>
   <time name="dav">    5.74    5.74</time>
   <time name="total">    5.74    5.75</time>
   <energy>
    <i name="alphaZ">    353.39462402 </i>
    <i name="ewald">  -9822.70596125 </i>
    <i name="hartreedc">  -4573.86467013 </i>
    <i name="XCdc">    321.95165531 </i>
    <i name="pawpsdc">  14836.58752667 </i>
    <i name="pawaedc"> -14736.53573369 </i>
    <i name="eentropy">     -0.07093448 </i>
    <i name="bandstr">  -1759.19836381 </i>
    <i name="atom">  15281.81476201 </i>
    <i name="e_fr_energy">    -98.62709535 </i>
    <i name="e_wo_entrp">    -98.55616087 </i>
    <i name="e_0_energy">    -98.59162811 </i>
   </energy>
  </scstep>
  <structure>
   <crystal>
    <varray name="basis" >
     <v>       5.86074609       0.00000000       0.00000000 </v>
     <v>       0.00000000       5.86074609      -0.00000000 </v>
     <v>       0.00000000      -0.00000000       8.30228160 </v>
    </varray>
    <i name="volume">    285.16963037 </i>
    <varray name="rec_basis" >
     <v>       0.17062674       0.00000000       0.00000000 </v>
     <v>       0.00000000       0.17062674       0.00000000 </v>
     <v>       0.00000000       0.00000000       0.12044882 </v>
    </varray>
   </crystal>
   <varray name="positions" >
    <v>       0.00000000      -0.00000000       0.01858403 </v>
    <v>       0.00000000      -0.00000000       0.48141597 </v>
    <v>       0.00000000       0.50000000      -0.00253433 </v>
    <v>       0.00000000       0.50000000       0.50253433 </v>
    <v>       0.50000000      -0.00000000      -0.00253433 </v>
    <v>       0.50000000      -0.00000000       0.50253433 </v>
    <v>       0.50000000       0.50000000       0.04632483 </v>
    <v>       0.50000000       0.50000000       0.45367517 </v>
    <v>       0.24236538       0.24236538       0.25000000 </v>
    <v>       0.21400703       0.21400703       0.75000000 </v>
    <v>       0.24236538       0.75763462       0.25000000 </v>
    <v>       0.21400703       0.78599297       0.75000000 </v>
    <v>       0.75763462       0.24236538       0.25000000 </v>
    <v>       0.78599297       0.21400703       0.75000000 </v>
    <v>       0.75763462       0.75763462       0.25000000 </v>
    <v>       0.78599297       0.78599297       0.75000000 </v>
    <v>       0.50000000       0.50000000       0.75000000 </v>
   </varray>
  </structure>
  <varray name="forces" >
   <v>       0.00000000      -0.00000000      -0.01096043 </v>
   <v>       0.00000000      -0.00000000       0.01096043 </v>
   <v>       0.00000000      -0.00000000      -0.05611145 </v>
   <v>       0.00000000      -0.00000000       0.05611145 </v>
   <v>       0.00000000      -0.00000000      -0.05611145 </v>
   <v>       0.00000000      -0.00000000       0.05611145 </v>
   <v>       0.00000000      -0.00000000       0.00719602 </v>
   <v>       0.00000000      -0.00000000      -0.00719602 </v>
   <v>       0.01024265       0.01024265       0.00000000 </v>
   <v>       0.00001154       0.00001154       0.00000000 </v>
   <v>       0.01024265      -0.01024265       0.00000000 </v>
   <v>       0.00001154      -0.00001154       0.00000000 </v>
   <v>      -0.01024265       0.01024265       0.00000000 </v>
   <v>      -0.00001154       0.00001154       0.00000000 </v>
   <v>      -0.01024265      -0.01024265       0.00000000 </v>
   <v>      -0.00001154      -0.00001154       0.00000000 </v>
   <v>       0.00000000      -0.00000000       0.00000000 </v>
  </varray>
  <varray name="stress" >
   <v>      -0.60666068       0.00000000       0.00000000 </v>
   <v>       0.00000000      -0.60666068       0.00000000 </v>
   <v>       0.00000000       0.00000000      -0.88574474 </v>
  </varray>
  <energy>
   <i name="e_fr_energy">    -98.62709535 </i>
   <i name="e_wo_entrp">    -98.55616087 </i>
   <i name="e_0_energy">    -98.59162811 </i>
  </energy>
  <time name="totalsc">   44.96   44.97</time>
 </calculation>
 <calculation>
  <scstep>
   <time name="dav">    4.72    4.72</time>
   <time name="total">    4.77    4.77</time>
   <energy>
    <i name="alphaZ">    353.83441054 </i>
    <i name="ewald">  -9826.26090663 </i>
    <i name="hartreedc">  -4576.23117979 </i>
    <i name="XCdc">    322.18425620 </i>
    <i name="pawpsdc">  14836.48900006 </i>
    <i name="pawaedc"> -14736.43606888 </i>
    <i name="eentropy">     -0.07139869 </i>
    <i name="bandstr">  -1753.95282507 </i>
    <i name="atom">  15281.81476201 </i>
    <i name="e_fr_energy">    -98.62995024 </i>
    <i name="e_wo_entrp">    -98.55855155 </i>
    <i name="e_0_energy">    -98.59425090 </i>
   </energy>
  </scstep>
  <scstep>
   <time name="dav">    3.95    3.95</time>
   <time name="total">    4.00    4.00</time>
   <energy>
    <i name="e_fr_energy">    -98.62843003 </i>
    <i name="e_wo_entrp">    -98.55792689 </i>
    <i name="e_0_energy">    -98.59317846 </i>
   </energy>
  </scstep>
  <scstep>
   <time name="dav">    6.24    6.24</time>
   <time name="total">    6.29    6.29</time>
   <energy>
    <i name="e_fr_energy">    -98.62813028 </i>
    <i name="e_wo_entrp">    -98.55762273 </i>
    <i name="e_0_energy">    -98.59287651 </i>
   </energy>
  </scstep>
  <scstep>
   <time name="dav">    6.36    6.36</time>
   <time name="total">    6.41    6.41</time>
   <energy>
    <i name="e_fr_energy">    -98.62778093 </i>
    <i name="e_wo_entrp">    -98.55669595 </i>
    <i name="e_0_energy">    -98.59223844 </i>
   </energy>
  </scstep>
  <scstep>
   <time name="dav">    7.53    7.53</time>
   <time name="total">    7.58    7.58</time>
   <energy>
    <i name="e_fr_energy">    -98.62771421 </i>
    <i name="e_wo_entrp">    -98.55682924 </i>
    <i name="e_0_energy">    -98.59227172 </i>
   </energy>
  </scstep>
  <scstep>
   <time name="dav">    5.92    5.92</time>
   <time name="total">    5.94    5.94</time>
   <energy>
    <i name="alphaZ">    353.83441054 </i>
    <i name="ewald">  -9826.26090663 </i>
    <i name="hartreedc">  -4572.09501405 </i>
    <i name="XCdc">    321.99102152 </i>
    <i name="pawpsdc">  14844.58657619 </i>
    <i name="pawaedc"> -14744.90802428 </i>
    <i name="eentropy">     -0.07087808 </i>
    <i name="bandstr">  -1757.51966235 </i>
    <i name="atom">  15281.81476201 </i>
    <i name="e_fr_energy">    -98.62771512 </i>
    <i name="e_wo_entrp">    -98.55683704 </i>
    <i name="e_0_energy">    -98.59227608 </i>
   </energy>
  </scstep>
  <structure>
   <crystal>
    <varray name="basis" >
     <v>       5.85853331       0.00000000       0.00000000 </v>
     <v>       0.00000000       5.85853331      -0.00000000 </v>
     <v>       0.00000000      -0.00000000       8.29822753 </v>
    </varray>
    <i name="volume">    284.81518842 </i>
    <varray name="rec_basis" >
     <v>       0.17069119       0.00000000       0.00000000 </v>
     <v>       0.00000000       0.17069119       0.00000000 </v>
     <v>       0.00000000       0.00000000       0.12050766 </v>
    </varray>
   </crystal>
   <varray name="positions" >
    <v>       0.00000000      -0.00000000       0.01849588 </v>
    <v>       0.00000000      -0.00000000       0.48150412 </v>
    <v>       0.00000000       0.50000000      -0.00290624 </v>
    <v>       0.00000000       0.50000000       0.50290624 </v>
    <v>       0.50000000      -0.00000000      -0.00290624 </v>
    <v>       0.50000000      -0.00000000       0.50290624 </v>
    <v>       0.50000000       0.50000000       0.04633879 </v>
    <v>       0.50000000       0.50000000       0.45366121 </v>
    <v>       0.24245716       0.24245716       0.25000000 </v>
    <v>       0.21402362       0.21402362       0.75000000 </v>
    <v>       0.24245716       0.75754284       0.25000000 </v>
    <v>       0.21402362       0.78597638       0.75000000 </v>
    <v>       0.75754284       0.24245716       0.25000000 </v>
    <v>       0.78597638       0.21402362       0.75000000 </v>
    <v>       0.75754284       0.75754284       0.25000000 </v>
    <v>       0.78597638       0.78597638       0.75000000 </v>
    <v>       0.50000000       0.50000000       0.75000000 </v>
   </varray>
  </structure>
  <varray name="forces" >
   <v>      -0.00000000       0.00000000       0.00078823 </v>
   <v>      -0.00000000       0.00000000      -0.00078823 </v>
   <v>      -0.00000000       0.00000000      -0.04854532 </v>
   <v>      -0.00000000       0.00000000       0.04854532 </v>
   <v>      -0.00000000       0.00000000      -0.04854532 </v>
   <v>      -0.00000000       0.00000000       0.04854532 </v>
   <v>      -0.00000000       0.00000000       0.00416255 </v>
   <v>      -0.00000000       0.00000000      -0.00416255 </v>
   <v>       0.00505322       0.00505322       0.00000000 </v>
   <v>      -0.00161012      -0.00161012       0.00000000 </v>
   <v>       0.00505322      -0.00505322       0.00000000 </v>
   <v>      -0.00161012       0.00161012       0.00000000 </v>
[...]
       <r>  -25.1616    1.0000 </r>
       <r>  -25.1616    1.0000 </r>
       <r>  -25.1568    1.0000 </r>
       <r>  -25.1564    1.0000 </r>
       <r>  -25.1068    1.0000 </r>
       <r>  -25.1065    1.0000 </r>
       <r>  -25.0254    1.0000 </r>
       <r>  -24.9878    1.0000 </r>
       <r>  -24.9851    1.0000 </r>
       <r>  -24.9777    1.0000 </r>
       <r>  -24.8865    1.0000 </r>
       <r>  -24.8814    1.0000 </r>
       <r>  -24.8377    1.0000 </r>
       <r>  -24.8338    1.0000 </r>
       <r>  -24.8310    1.0000 </r>
       <r>  -24.8296    1.0000 </r>
       <r>  -24.7733    1.0000 </r>
       <r>  -24.7725    1.0000 </r>
       <r>   -7.4257    1.0000 </r>
       <r>   -7.3214    1.0000 </r>
       <r>   -7.2837    1.0000 </r>
       <r>   -7.2339    1.0000 </r>
       <r>   -7.2336    1.0000 </r>
       <r>   -1.0214    1.0000 </r>
       <r>   -0.1033    1.0000 </r>
       <r>    0.8163    1.0000 </r>
       <r>    1.0001    1.0000 </r>
       <r>    2.2568    1.0000 </r>
       <r>    2.5611    1.0000 </r>
       <r>    3.2419    1.0000 </r>
       <r>    3.4171    1.0000 </r>
       <r>    4.5107    1.0000 </r>
       <r>    4.8120    1.0000 </r>
       <r>    4.8608    1.0000 </r>
       <r>    5.0294    1.0000 </r>
       <r>    5.3319    1.0000 </r>
       <r>    5.3422    1.0000 </r>
       <r>    5.5773    1.0000 </r>
       <r>    5.7123    1.0000 </r>
       <r>    6.1951    1.0000 </r>
       <r>    6.2949    1.0000 </r>
       <r>    6.3152    1.0000 </r>
       <r>    6.4616    1.0000 </r>
       <r>    6.5167    1.0000 </r>
       <r>    6.9233    1.0000 </r>
       <r>    7.0774    1.0000 </r>
       <r>    7.3083    1.0000 </r>
       <r>    7.5226    1.0000 </r>
       <r>    7.7486    1.0000 </r>
       <r>    7.7982    0.9994 </r>
       <r>    7.8434    0.9953 </r>
       <r>    7.8474    0.9945 </r>
       <r>    7.9763    0.7635 </r>
       <r>    8.2066    0.0055 </r>
       <r>    8.3073    0.0000 </r>
       <r>    8.6413    0.0000 </r>
       <r>    8.7023    0.0000 </r>
       <r>    8.7184    0.0000 </r>
       <r>    8.7592    0.0000 </r>
       <r>    9.0382    0.0000 </r>
       <r>    9.0754    0.0000 </r>
       <r>    9.2060    0.0000 </r>
       <r>    9.2148    0.0000 </r>
       <r>    9.2201    0.0000 </r>
       <r>    9.3208    0.0000 </r>
       <r>    9.4547    0.0000 </r>
       <r>    9.4772    0.0000 </r>
       <r>    9.7007    0.0000 </r>
       <r>    9.7536    0.0000 </r>
       <r>    9.8507    0.0000 </r>
       <r>    9.9495    0.0000 </r>
       <r>    9.9601    0.0000 </r>
       <r>   10.0017    0.0000 </r>
       <r>   10.1077    0.0000 </r>
       <r>   10.2435    0.0000 </r>
       <r>   10.4041    0.0000 </r>
       <r>   10.7826    0.0000 </r>
       <r>   11.1206    0.0000 </r>
       <r>   11.1235    0.0000 </r>
       <r>   11.1736    0.0000 </r>
       <r>   11.4754    0.0000 </r>
       <r>   11.4829    0.0000 </r>
       <r>   11.7400    0.0000 </r>
       <r>   11.9302    0.0000 </r>
       <r>   11.9972    0.0000 </r>
       <r>   12.0646    0.0000 </r>
       <r>   12.3691    0.0000 </r>
       <r>   12.4108    0.0000 </r>
       <r>   13.0684    0.0000 </r>
       <r>   13.1251    0.0000 </r>
       <r>   13.2706    0.0000 </r>
       <r>   13.9833    0.0000 </r>
       <r>   14.1752    0.0000 </r>
       <r>   14.4736    0.0000 </r>
       <r>   14.5403    0.0000 </r>
       <r>   14.6633    0.0000 </r>
       <r>   14.8323    0.0000 </r>
       <r>   14.9709    0.0000 </r>
       <r>   15.2861    0.0000 </r>
       <r>   15.4065    0.0000 </r>
       <r>   15.4717    0.0000 </r>
       <r>   15.7289    0.0000 </r>
       <r>   15.7597    0.0000 </r>
       <r>   15.9844    0.0000 </r>
       <r>   16.0596    0.0000 </r>
       <r>   16.1543    0.0000 </r>
       <r>   16.3638    0.0000 </r>
       <r>   16.4580    0.0000 </r>
       <r>   16.5120    0.0000 </r>
       <r>   16.5326    0.0000 </r>
       <r>   16.9058    0.0000 </r>
       <r>   17.6275    0.0000 </r>
       <r>   17.7267    0.0000 </r>
       <r>   17.7789    0.0000 </r>
      </set>
      <set comment="kpoint 28">
       <r>  -48.9375    1.0000 </r>
       <r>  -48.9375    1.0000 </r>
       <r>  -48.9365    1.0000 </r>
       <r>  -48.9364    1.0000 </r>
       <r>  -48.6386    1.0000 </r>
       <r>  -48.6353    1.0000 </r>
       <r>  -48.6029    1.0000 </r>
       <r>  -48.6024    1.0000 </r>
       <r>  -25.3335    1.0000 </r>
       <r>  -25.3322    1.0000 </r>
       <r>  -25.3316    1.0000 </r>
       <r>  -25.3303    1.0000 </r>
       <r>  -25.1789    1.0000 </r>
       <r>  -25.1782    1.0000 </r>
       <r>  -25.1686    1.0000 </r>
       <r>  -25.1684    1.0000 </r>
       <r>  -25.1301    1.0000 </r>
       <r>  -25.1298    1.0000 </r>
       <r>  -25.1225    1.0000 </r>
       <r>  -25.1224    1.0000 </r>
       <r>  -25.0256    1.0000 </r>
       <r>  -24.9881    1.0000 </r>
       <r>  -24.9853    1.0000 </r>
       <r>  -24.9780    1.0000 </r>
       <r>  -24.8693    1.0000 </r>
       <r>  -24.8684    1.0000 </r>
       <r>  -24.8644    1.0000 </r>
       <r>  -24.8637    1.0000 </r>
       <r>  -24.8099    1.0000 </r>
       <r>  -24.8097    1.0000 </r>
       <r>  -24.8090    1.0000 </r>
       <r>  -24.8088    1.0000 </r>
       <r>   -7.4260    1.0000 </r>
       <r>   -7.3213    1.0000 </r>
       <r>   -7.2835    1.0000 </r>
       <r>   -7.2338    1.0000 </r>
       <r>   -7.2338    1.0000 </r>
       <r>   -1.0141    1.0000 </r>
       <r>    0.3246    1.0000 </r>
       <r>    0.6754    1.0000 </r>
       <r>    1.3565    1.0000 </r>
       <r>    1.9611    1.0000 </r>
       <r>    2.0091    1.0000 </r>
       <r>    2.2372    1.0000 </r>
       <r>    3.1702    1.0000 </r>
       <r>    4.8235    1.0000 </r>
       <r>    5.0450    1.0000 </r>
       <r>    5.2084    1.0000 </r>
       <r>    5.4677    1.0000 </r>
       <r>    5.7341    1.0000 </r>
       <r>    5.8597    1.0000 </r>
       <r>    6.0314    1.0000 </r>
       <r>    6.0887    1.0000 </r>
       <r>    6.1237    1.0000 </r>
       <r>    6.2160    1.0000 </r>
       <r>    6.3651    1.0000 </r>
       <r>    6.4029    1.0000 </r>
       <r>    6.4715    1.0000 </r>
       <r>    6.6526    1.0000 </r>
       <r>    6.9534    1.0000 </r>
       <r>    7.4331    1.0000 </r>
       <r>    7.5752    1.0000 </r>
       <r>    7.7339    1.0000 </r>
       <r>    7.8901    0.9737 </r>
       <r>    7.9017    0.9619 </r>
       <r>    7.9950    0.6750 </r>
       <r>    8.0508    0.3685 </r>
       <r>    8.1765    0.0173 </r>
       <r>    8.2839    0.0001 </r>
       <r>    8.3827    0.0000 </r>
       <r>    8.4197    0.0000 </r>
       <r>    8.4336    0.0000 </r>
       <r>    8.5007    0.0000 </r>
       <r>    8.8915    0.0000 </r>
       <r>    8.9694    0.0000 </r>
       <r>    9.2134    0.0000 </r>
       <r>    9.3264    0.0000 </r>
       <r>    9.3840    0.0000 </r>
       <r>    9.4288    0.0000 </r>
       <r>    9.4786    0.0000 </r>
       <r>    9.4804    0.0000 </r>
       <r>    9.5323    0.0000 </r>
       <r>    9.5910    0.0000 </r>
       <r>    9.7447    0.0000 </r>
       <r>    9.8467    0.0000 </r>
       <r>    9.8861    0.0000 </r>
       <r>   10.2206    0.0000 </r>
       <r>   10.2264    0.0000 </r>
       <r>   10.2313    0.0000 </r>
       <r>   10.4387    0.0000 </r>
       <r>   10.7726    0.0000 </r>
       <r>   10.7809    0.0000 </r>
       <r>   10.9871    0.0000 </r>
       <r>   11.1468    0.0000 </r>
       <r>   11.2276    0.0000 </r>
       <r>   11.5376    0.0000 </r>
       <r>   11.5556    0.0000 </r>
       <r>   11.7594    0.0000 </r>
       <r>   11.9481    0.0000 </r>
       <r>   12.1627    0.0000 </r>
       <r>   12.3996    0.0000 </r>
       <r>   12.4261    0.0000 </r>
       <r>   13.0826    0.0000 </r>
       <r>   13.1992    0.0000 </r>
       <r>   13.2049    0.0000 </r>
       <r>   14.0998    0.0000 </r>
       <r>   14.1697    0.0000 </r>
       <r>   14.2974    0.0000 </r>
       <r>   14.3700    0.0000 </r>
       <r>   14.5847    0.0000 </r>
       <r>   15.0876    0.0000 </r>
       <r>   15.1189    0.0000 </r>
       <r>   15.2420    0.0000 </r>
       <r>   15.3365    0.0000 </r>
       <r>   15.4429    0.0000 </r>
       <r>   15.5618    0.0000 </r>
       <r>   15.8648    0.0000 </r>
       <r>   15.9776    0.0000 </r>
       <r>   16.1524    0.0000 </r>
       <r>   16.2056    0.0000 </r>
       <r>   16.2326    0.0000 </r>
       <r>   16.4060    0.0000 </r>
       <r>   16.4573    0.0000 </r>
       <r>   16.6777    0.0000 </r>
       <r>   17.0898    0.0000 </r>
       <r>   17.8594    0.0000 </r>
       <r>   18.2157    0.0000 </r>
       <r>   18.2289    0.0000 </r>
      </set>
      <set comment="kpoint 29">
       <r>  -48.9368    1.0000 </r>
       <r>  -48.9368    1.0000 </r>
       <r>  -48.9367    1.0000 </r>
       <r>  -48.9367    1.0000 </r>
       <r>  -48.6388    1.0000 </r>
       <r>  -48.6355    1.0000 </r>
       <r>  -48.6031    1.0000 </r>
       <r>  -48.6026    1.0000 </r>
       <r>  -25.3330    1.0000 </r>
       <r>  -25.3327    1.0000 </r>
       <r>  -25.3310    1.0000 </r>
       <r>  -25.3307    1.0000 </r>
       <r>  -25.1752    1.0000 </r>
       <r>  -25.1745    1.0000 </r>
       <r>  -25.1543    1.0000 </r>
       <r>  -25.1541    1.0000 </r>
       <r>  -25.1276    1.0000 </r>
       <r>  -25.1274    1.0000 </r>
       <r>  -25.1053    1.0000 </r>
       <r>  -25.1050    1.0000 </r>
       <r>  -25.0242    1.0000 </r>
       <r>  -24.9879    1.0000 </r>
       <r>  -24.9841    1.0000 </r>
       <r>  -24.9778    1.0000 </r>
       <r>  -24.8873    1.0000 </r>
       <r>  -24.8822    1.0000 </r>
       <r>  -24.8691    1.0000 </r>
       <r>  -24.8643    1.0000 </r>
       <r>  -24.8318    1.0000 </r>
       <r>  -24.8308    1.0000 </r>
       <r>  -24.8102    1.0000 </r>
       <r>  -24.8092    1.0000 </r>
       <r>   -7.4262    1.0000 </r>
       <r>   -7.3211    1.0000 </r>
       <r>   -7.2832    1.0000 </r>
       <r>   -7.2339    1.0000 </r>
       <r>   -7.2338    1.0000 </r>
       <r>   -0.8409    1.0000 </r>
       <r>    0.2079    1.0000 </r>
       <r>    1.1413    1.0000 </r>
       <r>    1.3318    1.0000 </r>
       <r>    1.4751    1.0000 </r>
       <r>    1.6680    1.0000 </r>
       <r>    2.4111    1.0000 </r>
       <r>    2.5866    1.0000 </r>
       <r>    5.1137    1.0000 </r>
       <r>    5.2784    1.0000 </r>
       <r>    5.4679    1.0000 </r>
       <r>    5.5100    1.0000 </r>
       <r>    5.7860    1.0000 </r>
       <r>    5.9065    1.0000 </r>
       <r>    5.9170    1.0000 </r>
       <r>    5.9538    1.0000 </r>
       <r>    6.2280    1.0000 </r>
       <r>    6.3398    1.0000 </r>
       <r>    6.5288    1.0000 </r>
       <r>    6.5999    1.0000 </r>
       <r>    6.6841    1.0000 </r>
       <r>    7.0432    1.0000 </r>
       <r>    7.1757    1.0000 </r>
       <r>    7.4637    1.0000 </r>
       <r>    7.4875    1.0000 </r>
       <r>    7.6757    1.0000 </r>
       <r>    7.7749    0.9998 </r>
       <r>    7.9600    0.8284 </r>
       <r>    7.9652    0.8092 </r>
       <r>    7.9889    0.7053 </r>
       <r>    8.0950    0.1682 </r>
       <r>    8.2236    0.0027 </r>
       <r>    8.3465    0.0000 </r>
       <r>    8.3709    0.0000 </r>
       <r>    8.4570    0.0000 </r>
       <r>    8.4967    0.0000 </r>
       <r>    8.7722    0.0000 </r>
       <r>    8.9903    0.0000 </r>
       <r>    9.0330    0.0000 </r>
       <r>    9.1199    0.0000 </r>
       <r>    9.3289    0.0000 </r>
       <r>    9.3397    0.0000 </r>
       <r>    9.4605    0.0000 </r>
       <r>    9.4774    0.0000 </r>
       <r>    9.5262    0.0000 </r>
       <r>    9.6266    0.0000 </r>
       <r>    9.6541    0.0000 </r>
       <r>    9.6624    0.0000 </r>
       <r>    9.8478    0.0000 </r>
       <r>   10.0832    0.0000 </r>
       <r>   10.2207    0.0000 </r>
       <r>   10.2873    0.0000 </r>
       <r>   10.5567    0.0000 </r>
       <r>   10.7630    0.0000 </r>
       <r>   11.0652    0.0000 </r>
       <r>   11.1093    0.0000 </r>
       <r>   11.1979    0.0000 </r>
       <r>   11.2037    0.0000 </r>
       <r>   11.2091    0.0000 </r>
       <r>   11.5672    0.0000 </r>
       <r>   11.8135    0.0000 </r>
       <r>   11.9791    0.0000 </r>
       <r>   12.1535    0.0000 </r>
       <r>   12.4516    0.0000 </r>
       <r>   12.4779    0.0000 </r>
       <r>   12.6042    0.0000 </r>
       <r>   13.2688    0.0000 </r>
       <r>   13.2753    0.0000 </r>
       <r>   13.3178    0.0000 </r>
       <r>   13.3606    0.0000 </r>
       <r>   14.2060    0.0000 </r>
       <r>   14.4470    0.0000 </r>
       <r>   15.0827    0.0000 </r>
       <r>   15.1803    0.0000 </r>
       <r>   15.3098    0.0000 </r>
       <r>   15.4567    0.0000 </r>
       <r>   15.5009    0.0000 </r>
       <r>   15.7500    0.0000 </r>
       <r>   15.8914    0.0000 </r>
       <r>   15.9658    0.0000 </r>
       <r>   16.0755    0.0000 </r>
       <r>   16.0838    0.0000 </r>
       <r>   16.3280    0.0000 </r>
       <r>   16.4551    0.0000 </r>
       <r>   16.7551    0.0000 </r>
       <r>   16.8224    0.0000 </r>
       <r>   16.9695    0.0000 </r>
       <r>   17.0968    0.0000 </r>
       <r>   17.5997    0.0000 </r>
       <r>   17.7601    0.0000 </r>
       <r>   17.7843    0.0000 </r>
      </set>
      <set comment="kpoint 30">
       <r>  -48.9365    1.0000 </r>
       <r>  -48.9365    1.0000 </r>
       <r>  -48.9364    1.0000 </r>
       <r>  -48.9364    1.0000 </r>
       <r>  -48.6390    1.0000 </r>
       <r>  -48.6357    1.0000 </r>
       <r>  -48.6034    1.0000 </r>
       <r>  -48.6029    1.0000 </r>
       <r>  -25.3328    1.0000 </r>
       <r>  -25.3328    1.0000 </r>
       <r>  -25.3308    1.0000 </r>
       <r>  -25.3308    1.0000 </r>
       <r>  -25.1641    1.0000 </r>
       <r>  -25.1632    1.0000 </r>
       <r>  -25.1484    1.0000 </r>
       <r>  -25.1482    1.0000 </r>
       <r>  -25.1115    1.0000 </r>
       <r>  -25.1110    1.0000 </r>
       <r>  -25.1004    1.0000 </r>
       <r>  -25.1002    1.0000 </r>
       <r>  -25.0229    1.0000 </r>
       <r>  -24.9877    1.0000 </r>
       <r>  -24.9829    1.0000 </r>
       <r>  -24.9775    1.0000 </r>
       <r>  -24.8878    1.0000 </r>
       <r>  -24.8878    1.0000 </r>
       <r>  -24.8826    1.0000 </r>
       <r>  -24.8826    1.0000 </r>
       <r>  -24.8321    1.0000 </r>
       <r>  -24.8321    1.0000 </r>
       <r>  -24.8311    1.0000 </r>
       <r>  -24.8311    1.0000 </r>
       <r>   -7.4264    1.0000 </r>
       <r>   -7.3209    1.0000 </r>
       <r>   -7.2830    1.0000 </r>
       <r>   -7.2339    1.0000 </r>
       <r>   -7.2339    1.0000 </r>
       <r>   -0.7243    1.0000 </r>
       <r>    0.5236    1.0000 </r>
       <r>    1.1547    1.0000 </r>
       <r>    1.1547    1.0000 </r>
       <r>    1.5669    1.0000 </r>
       <r>    1.8072    1.0000 </r>
       <r>    1.8072    1.0000 </r>
       <r>    1.9361    1.0000 </r>
       <r>    5.3422    1.0000 </r>
       <r>    5.5786    1.0000 </r>
       <r>    5.6482    1.0000 </r>
       <r>    5.6580    1.0000 </r>
       <r>    5.6580    1.0000 </r>
       <r>    5.6911    1.0000 </r>
       <r>    6.1442    1.0000 </r>
       <r>    6.1442    1.0000 </r>
       <r>    6.4409    1.0000 </r>
       <r>    6.4409    1.0000 </r>
       <r>    6.9632    1.0000 </r>
       <r>    7.1027    1.0000 </r>
       <r>    7.1102    1.0000 </r>
       <r>    7.2405    1.0000 </r>
       <r>    7.2482    1.0000 </r>
       <r>    7.3450    1.0000 </r>
       <r>    7.3450    1.0000 </r>
       <r>    7.6454    1.0000 </r>
       <r>    7.6454    1.0000 </r>
       <r>    7.6527    1.0000 </r>
       <r>    7.8627    0.9900 </r>
       <r>    7.9048    0.9581 </r>
       <r>    8.0937    0.1728 </r>
       <r>    8.0937    0.1728 </r>
       <r>    8.2645    0.0004 </r>
       <r>    8.2645    0.0004 </r>
       <r>    8.3964    0.0000 </r>
       <r>    8.4177    0.0000 </r>
       <r>    8.7390    0.0000 </r>
       <r>    9.0227    0.0000 </r>
       <r>    9.0227    0.0000 </r>
       <r>    9.2382    0.0000 </r>
       <r>    9.3036    0.0000 </r>
       <r>    9.3036    0.0000 </r>
       <r>    9.3237    0.0000 </r>
       <r>    9.3490    0.0000 </r>
       <r>    9.3490    0.0000 </r>
       <r>    9.4321    0.0000 </r>
       <r>    9.4533    0.0000 </r>
       <r>    9.5423    0.0000 </r>
       <r>    9.9429    0.0000 </r>
       <r>   10.0711    0.0000 </r>
       <r>   10.0711    0.0000 </r>
       <r>   10.4555    0.0000 </r>
       <r>   10.8320    0.0000 </r>
       <r>   10.9177    0.0000 </r>
       <r>   10.9177    0.0000 </r>
       <r>   11.0232    0.0000 </r>
       <r>   11.0232    0.0000 </r>
       <r>   11.0784    0.0000 </r>
       <r>   11.4247    0.0000 </r>
       <r>   11.5338    0.0000 </r>
       <r>   11.9990    0.0000 </r>
       <r>   12.3512    0.0000 </r>
       <r>   12.3988    0.0000 </r>
       <r>   12.5172    0.0000 </r>
       <r>   12.5172    0.0000 </r>
       <r>   12.5214    0.0000 </r>
       <r>   12.5299    0.0000 </r>
       <r>   12.5299    0.0000 </r>
       <r>   13.2770    0.0000 </r>
       <r>   13.2770    0.0000 </r>
       <r>   13.2965    0.0000 </r>
       <r>   13.6151    0.0000 </r>
       <r>   15.3257    0.0000 </r>
       <r>   15.3803    0.0000 </r>
       <r>   15.4330    0.0000 </r>
       <r>   15.9199    0.0000 </r>
       <r>   15.9199    0.0000 </r>
       <r>   16.1074    0.0000 </r>
       <r>   16.1730    0.0000 </r>
       <r>   16.1730    0.0000 </r>
       <r>   16.7682    0.0000 </r>
       <r>   17.0909    0.0000 </r>
       <r>   17.1685    0.0000 </r>
       <r>   17.1685    0.0000 </r>
       <r>   17.1896    0.0000 </r>
       <r>   17.2541    0.0000 </r>
       <r>   17.2541    0.0000 </r>
       <r>   17.3273    0.0000 </r>
       <r>   17.3355    0.0000 </r>
       <r>   17.3864    0.0000 </r>
       <r>   17.3864    0.0000 </r>
      </set>
     </set>
    </set>
   </array>
  </eigenvalues>
  <separator name="orbital magnetization" >
   <v name="MAGDIPOLOUT">      0.00000000      0.00000000      0.00000000</v>
  </separator>
 </calculation>
 <structure name="finalpos" >
  <crystal>
   <varray name="basis" >
    <v>       5.85845550       0.00000000       0.00000000 </v>
    <v>       0.00000000       5.85845550       0.00000000 </v>
    <v>       0.00000000       0.00000000       8.30027397 </v>
   </varray>
   <i name="volume">    284.87786034 </i>
   <varray name="rec_basis" >
    <v>       0.17069345       0.00000000       0.00000000 </v>
    <v>       0.00000000       0.17069345      -0.00000000 </v>
    <v>       0.00000000      -0.00000000       0.12047795 </v>
   </varray>
  </crystal>
  <varray name="positions" >
   <v>       0.00000000      -0.00000000       0.01867368 </v>
   <v>       0.00000000      -0.00000000       0.48132632 </v>
   <v>       0.00000000       0.50000000      -0.00449287 </v>
   <v>       0.00000000       0.50000000       0.50449287 </v>
   <v>       0.50000000      -0.00000000      -0.00449287 </v>
   <v>       0.50000000      -0.00000000       0.50449287 </v>
   <v>       0.50000000       0.50000000       0.04638282 </v>
   <v>       0.50000000       0.50000000       0.45361718 </v>
   <v>       0.24268531       0.24268531       0.25000000 </v>
   <v>       0.21391683       0.21391683       0.75000000 </v>
   <v>       0.24268531       0.75731469       0.25000000 </v>
   <v>       0.21391683       0.78608317       0.75000000 </v>
   <v>       0.75731469       0.24268531       0.25000000 </v>
   <v>       0.78608317       0.21391683       0.75000000 </v>
   <v>       0.75731469       0.75731469       0.25000000 </v>
   <v>       0.78608317       0.78608317       0.75000000 </v>
   <v>       0.50000000       0.50000000       0.75000000 </v>
  </varray>
 </structure>
</modeling>
