CaNi2                                   
           1
     5.647637    0.000000    0.000000
     0.000000    5.647637    0.000000
     0.000000    0.000000    8.140666
   Ti   Al   Ga
     8     8     1
Direct configuration=     1
   0.00000000  0.00000000  0.00000000
   0.00000000  0.00000000  0.50000000
   0.00000000  0.50000000  0.00000000
   0.00000000  0.50000000  0.50000000
   0.50000000  0.00000000  0.00000000
   0.50000000  0.00000000  0.50000000
   0.50000000  0.50000000  0.00000000
   0.50000000  0.50000000  0.50000000
   0.25000000  0.25000000  0.25000000
   0.25000000  0.25000000  0.75000000
   0.25000000  0.75000000  0.25000000
   0.25000000  0.75000000  0.75000000
   0.75000000  0.25000000  0.25000000
   0.75000000  0.25000000  0.75000000
   0.75000000  0.75000000  0.25000000
   0.75000000  0.75000000  0.75000000
   0.50000000  0.50000000  0.75000000
CaNi2                                   
           1
     6.110523    0.000000    0.000000
     0.000000    6.110523   -0.000000
     0.000000   -0.000000    9.026937
   Ti   Al   Ga
     8     8     1
Direct configuration=     2
   0.00000000  0.00000000  0.00023216
   0.00000000  0.00000000  0.49976784
   0.00000000  0.50000000  0.00117420
   0.00000000  0.50000000  0.49882580
   0.50000000  0.00000000  0.00117420
   0.50000000  0.00000000  0.49882580
   0.50000000  0.50000000  0.05297060
   0.50000000  0.50000000  0.44702940
   0.24995644  0.24995644  0.25000000
   0.20716347  0.20716347  0.75000000
   0.24995644  0.75004356  0.25000000
   0.20716347  0.79283653  0.75000000
   0.75004356  0.24995644  0.25000000
   0.79283653  0.20716347  0.75000000
   0.75004356  0.75004356  0.25000000
   0.79283653  0.79283653  0.75000000
   0.50000000  0.50000000  0.75000000
CaNi2                                   
           1
     5.877094    0.000000    0.000000
     0.000000    5.877094   -0.000000
     0.000000   -0.000000    8.559241
   Ti   Al   Ga
     8     8     1
Direct configuration=     3
   0.00000000  0.00000000  0.00349013
   0.00000000  0.00000000  0.49650987
   0.00000000  0.50000000  0.00095517
   0.00000000  0.50000000  0.49904483
   0.50000000  0.00000000  0.00095517
   0.50000000  0.00000000  0.49904483
   0.50000000  0.50000000  0.05006049
   0.50000000  0.50000000  0.44993951
   0.24829377  0.24829377  0.25000000
   0.20961688  0.20961688  0.75000000
   0.24829377  0.75170623  0.25000000
   0.20961688  0.79038312  0.75000000
   0.75170623  0.24829377  0.25000000
   0.79038312  0.20961688  0.75000000
   0.75170623  0.75170623  0.25000000
   0.79038312  0.79038312  0.75000000
   0.50000000  0.50000000  0.75000000
CaNi2                                   
           1
     5.851247    0.000000    0.000000
     0.000000    5.851247   -0.000000
     0.000000   -0.000000    8.354594
   Ti   Al   Ga
     8     8     1
Direct configuration=     4
   0.00000000 -0.00000000  0.01194983
   0.00000000 -0.00000000  0.48805017
   0.00000000  0.50000000 -0.00033586
   0.00000000  0.50000000  0.50033586
   0.50000000 -0.00000000 -0.00033586
   0.50000000 -0.00000000  0.50033586
   0.50000000  0.50000000  0.04357511
   0.50000000  0.50000000  0.45642489
   0.24395652  0.24395652  0.25000000
   0.21531557  0.21531557  0.75000000
   0.24395652  0.75604348  0.25000000
   0.21531557  0.78468443  0.75000000
   0.75604348  0.24395652  0.25000000
   0.78468443  0.21531557  0.75000000
   0.75604348  0.75604348  0.25000000
   0.78468443  0.78468443  0.75000000
   0.50000000  0.50000000  0.75000000
CaNi2                                   
           1
     5.852291    0.000000    0.000000
     0.000000    5.852291   -0.000000
     0.000000   -0.000000    8.322652
   Ti   Al   Ga
     8     8     1
Direct configuration=     5
   0.00000000 -0.00000000  0.01500144
   0.00000000 -0.00000000  0.48499856
   0.00000000  0.50000000 -0.00093992
   0.00000000  0.50000000  0.50093992
   0.50000000 -0.00000000 -0.00093992
   0.50000000 -0.00000000  0.50093992
   0.50000000  0.50000000  0.04395131
   0.50000000  0.50000000  0.45604869
   0.24293204  0.24293204  0.25000000
   0.21477186  0.21477186  0.75000000
   0.24293204  0.75706796  0.25000000
   0.21477186  0.78522814  0.75000000
   0.75706796  0.24293204  0.25000000
   0.78522814  0.21477186  0.75000000
   0.75706796  0.75706796  0.25000000
   0.78522814  0.78522814  0.75000000
   0.50000000  0.50000000  0.75000000
CaNi2                                   
           1
     5.856570    0.000000    0.000000
     0.000000    5.856570   -0.000000
     0.000000   -0.000000    8.314662
   Ti   Al   Ga
     8     8     1
Direct configuration=     6
   0.00000000 -0.00000000  0.01691489
   0.00000000 -0.00000000  0.48308511
   0.00000000  0.50000000 -0.00159546
   0.00000000  0.50000000  0.50159546
   0.50000000 -0.00000000 -0.00159546
   0.50000000 -0.00000000  0.50159546
   0.50000000  0.50000000  0.04520016
   0.50000000  0.50000000  0.45479984
   0.24258379  0.24258379  0.25000000
   0.21437446  0.21437446  0.75000000
   0.24258379  0.75741621  0.25000000
   0.21437446  0.78562554  0.75000000
   0.75741621  0.24258379  0.25000000
   0.78562554  0.21437446  0.75000000
   0.75741621  0.75741621  0.25000000
   0.78562554  0.78562554  0.75000000
   0.50000000  0.50000000  0.75000000
CaNi2                                   
           1
     5.860746    0.000000    0.000000
     0.000000    5.860746   -0.000000
     0.000000   -0.000000    8.302282
   Ti   Al   Ga
     8     8     1
Direct configuration=     7
   0.00000000 -0.00000000  0.01858403
   0.00000000 -0.00000000  0.48141597
   0.00000000  0.50000000 -0.00253433
   0.00000000  0.50000000  0.50253433
   0.50000000 -0.00000000 -0.00253433
   0.50000000 -0.00000000  0.50253433
   0.50000000  0.50000000  0.04632483
   0.50000000  0.50000000  0.45367517
   0.24236538  0.24236538  0.25000000
   0.21400703  0.21400703  0.75000000
   0.24236538  0.75763462  0.25000000
   0.21400703  0.78599297  0.75000000
   0.75763462  0.24236538  0.25000000
   0.78599297  0.21400703  0.75000000
   0.75763462  0.75763462  0.25000000
   0.78599297  0.78599297  0.75000000
   0.50000000  0.50000000  0.75000000
CaNi2                                   
           1
     5.858533    0.000000    0.000000
     0.000000    5.858533   -0.000000
     0.000000   -0.000000    8.298228
   Ti   Al   Ga
     8     8     1
Direct configuration=     8
   0.00000000 -0.00000000  0.01849588
   0.00000000 -0.00000000  0.48150412
   0.00000000  0.50000000 -0.00290624
   0.00000000  0.50000000  0.50290624
   0.50000000 -0.00000000 -0.00290624
   0.50000000 -0.00000000  0.50290624
   0.50000000  0.50000000  0.04633879
   0.50000000  0.50000000  0.45366121
   0.24245716  0.24245716  0.25000000
   0.21402362  0.21402362  0.75000000
   0.24245716  0.75754284  0.25000000
   0.21402362  0.78597638  0.75000000
   0.75754284  0.24245716  0.25000000
   0.78597638  0.21402362  0.75000000
   0.75754284  0.75754284  0.25000000
   0.78597638  0.78597638  0.75000000
   0.50000000  0.50000000  0.75000000
CaNi2                                   
           1
     5.858124    0.000000    0.000000
     0.000000    5.858124   -0.000000
     0.000000   -0.000000    8.295255
   Ti   Al   Ga
     8     8     1
Direct configuration=     9
   0.00000000 -0.00000000  0.01854618
   0.00000000 -0.00000000  0.48145382
   0.00000000  0.50000000 -0.00346712
   0.00000000  0.50000000  0.50346712
   0.50000000 -0.00000000 -0.00346712
   0.50000000 -0.00000000  0.50346712
   0.50000000  0.50000000  0.04641962
   0.50000000  0.50000000  0.45358038
   0.24253449  0.24253449  0.25000000
   0.21400183  0.21400183  0.75000000
   0.24253449  0.75746551  0.25000000
   0.21400183  0.78599817  0.75000000
   0.75746551  0.24253449  0.25000000
   0.78599817  0.21400183  0.75000000
   0.75746551  0.75746551  0.25000000
   0.78599817  0.78599817  0.75000000
   0.50000000  0.50000000  0.75000000
CaNi2                                   
           1
     5.859211    0.000000    0.000000
     0.000000    5.859211   -0.000000
     0.000000   -0.000000    8.298036
   Ti   Al   Ga
     8     8     1
Direct configuration=    10
   0.00000000 -0.00000000  0.01851783
   0.00000000 -0.00000000  0.48148217
   0.00000000  0.50000000 -0.00332884
   0.00000000  0.50000000  0.50332884
   0.50000000 -0.00000000 -0.00332884
   0.50000000 -0.00000000  0.50332884
   0.50000000  0.50000000  0.04637648
   0.50000000  0.50000000  0.45362352
   0.24251410  0.24251410  0.25000000
   0.21400344  0.21400344  0.75000000
   0.24251410  0.75748590  0.25000000
   0.21400344  0.78599656  0.75000000
   0.75748590  0.24251410  0.25000000
   0.78599656  0.21400344  0.75000000
   0.75748590  0.75748590  0.25000000
   0.78599656  0.78599656  0.75000000
   0.50000000  0.50000000  0.75000000
CaNi2                                   
           1
     5.856426    0.000000    0.000000
     0.000000    5.856426   -0.000000
     0.000000   -0.000000    8.289002
   Ti   Al   Ga
     8     8     1
Direct configuration=    11
   0.00000000 -0.00000000  0.01860310
   0.00000000 -0.00000000  0.48139690
   0.00000000  0.50000000 -0.00367868
   0.00000000  0.50000000  0.50367868
   0.50000000 -0.00000000 -0.00367868
   0.50000000 -0.00000000  0.50367868
   0.50000000  0.50000000  0.04644338
   0.50000000  0.50000000  0.45355662
   0.24254247  0.24254247  0.25000000
   0.21400272  0.21400272  0.75000000
   0.24254247  0.75745753  0.25000000
   0.21400272  0.78599728  0.75000000
   0.75745753  0.24254247  0.25000000
   0.78599728  0.21400272  0.75000000
   0.75745753  0.75745753  0.25000000
   0.78599728  0.78599728  0.75000000
   0.50000000  0.50000000  0.75000000
CaNi2                                   
           1
     5.857296    0.000000    0.000000
     0.000000    5.857296   -0.000000
     0.000000   -0.000000    8.291383
   Ti   Al   Ga
     8     8     1
Direct configuration=    12
   0.00000000 -0.00000000  0.01860704
   0.00000000 -0.00000000  0.48139296
   0.00000000  0.50000000 -0.00387147
   0.00000000  0.50000000  0.50387147
   0.50000000 -0.00000000 -0.00387147
   0.50000000 -0.00000000  0.50387147
   0.50000000  0.50000000  0.04644158
   0.50000000  0.50000000  0.45355842
   0.24256979  0.24256979  0.25000000
   0.21398216  0.21398216  0.75000000
   0.24256979  0.75743021  0.25000000
   0.21398216  0.78601784  0.75000000
   0.75743021  0.24256979  0.25000000
   0.78601784  0.21398216  0.75000000
   0.75743021  0.75743021  0.25000000
   0.78601784  0.78601784  0.75000000
   0.50000000  0.50000000  0.75000000
CaNi2                                   
           1
     5.872448    0.000000    0.000000
     0.000000    5.872448    0.000000
     0.000000    0.000000    8.325498
   Ti   Al   Ga
     8     8     1
Direct configuration=    13
   0.00000000 -0.00000000  0.01877817
   0.00000000 -0.00000000  0.48122183
   0.00000000  0.50000000 -0.00605693
   0.00000000  0.50000000  0.50605693
   0.50000000 -0.00000000 -0.00605693
   0.50000000 -0.00000000  0.50605693
   0.50000000  0.50000000  0.04647887
   0.50000000  0.50000000  0.45352113
   0.24316260  0.24316260  0.25000000
   0.21383905  0.21383905  0.75000000
   0.24316260  0.75683740  0.25000000
   0.21383905  0.78616095  0.75000000
   0.75683740  0.24316260  0.25000000
   0.78616095  0.21383905  0.75000000
   0.75683740  0.75683740  0.25000000
   0.78616095  0.78616095  0.75000000
   0.50000000  0.50000000  0.75000000
CaNi2                                   
           1
     5.862071    0.000000    0.000000
     0.000000    5.862071   -0.000000
     0.000000   -0.000000    8.305646
   Ti   Al   Ga
     8     8     1
Direct configuration=    14
   0.00000000 -0.00000000  0.01869228
   0.00000000 -0.00000000  0.48130772
   0.00000000  0.50000000 -0.00481364
   0.00000000  0.50000000  0.50481364
   0.50000000 -0.00000000 -0.00481364
   0.50000000 -0.00000000  0.50481364
   0.50000000  0.50000000  0.04642887
   0.50000000  0.50000000  0.45357113
   0.24280445  0.24280445  0.25000000
   0.21390371  0.21390371  0.75000000
   0.24280445  0.75719555  0.25000000
   0.21390371  0.78609629  0.75000000
   0.75719555  0.24280445  0.25000000
   0.78609629  0.21390371  0.75000000
   0.75719555  0.75719555  0.25000000
   0.78609629  0.78609629  0.75000000
   0.50000000  0.50000000  0.75000000
CaNi2                                   
           1
     5.858456    0.000000    0.000000
     0.000000    5.858456    0.000000
     0.000000    0.000000    8.300274
   Ti   Al   Ga
     8     8     1
Direct configuration=    15
   0.00000000 -0.00000000  0.01867368
   0.00000000 -0.00000000  0.48132632
   0.00000000  0.50000000 -0.00449287
   0.00000000  0.50000000  0.50449287
   0.50000000 -0.00000000 -0.00449287
   0.50000000 -0.00000000  0.50449287
   0.50000000  0.50000000  0.04638282
   0.50000000  0.50000000  0.45361718
   0.24268531  0.24268531  0.25000000
   0.21391683  0.21391683  0.75000000
   0.24268531  0.75731469  0.25000000
   0.21391683  0.78608317  0.75000000
   0.75731469  0.24268531  0.25000000
   0.78608317  0.21391683  0.75000000
   0.75731469  0.75731469  0.25000000
   0.78608317  0.78608317  0.75000000
   0.50000000  0.50000000  0.75000000
