  16  16   0   0
  0.1615369E+02  0.5645286E-09  0.5645286E-09  0.8109983E-09  0.5000000E-15
  1.000000000000000E-004
  CAR 
 unknown system                          
     24.57531692    -51.80946168  301      8.29695752      1.00000000
    -51.809  0.0000E+00  0.0000E+00
    -51.555  0.0000E+00  0.0000E+00
    -51.300  0.0000E+00  0.0000E+00
    -51.046  0.0000E+00  0.0000E+00
    -50.791  0.0000E+00  0.0000E+00
    -50.536  0.0000E+00  0.0000E+00
    -50.282  0.0000E+00  0.0000E+00
    -50.027  0.0000E+00  0.0000E+00
    -49.773  0.0000E+00  0.0000E+00
    -49.518  0.0000E+00  0.0000E+00
    -49.263 -0.2868E-36 -0.7303E-37
    -49.009 -0.1366E-18 -0.3478E-19
    -48.754 -0.1497E-06 -0.3812E-07
    -48.499 -0.3669E+00 -0.9342E-01
    -48.245  0.4722E+02  0.1193E+02
    -47.990  0.1601E+02  0.1601E+02
    -47.736 -0.2461E-01  0.1600E+02
    -47.481 -0.2581E-09  0.1600E+02
    -47.226  0.0000E+00  0.1600E+02
    -46.972  0.0000E+00  0.1600E+02
    -46.717  0.0000E+00  0.1600E+02
    -46.463  0.0000E+00  0.1600E+02
    -46.208  0.0000E+00  0.1600E+02
    -45.953  0.0000E+00  0.1600E+02
    -45.699  0.0000E+00  0.1600E+02
    -45.444  0.0000E+00  0.1600E+02
    -45.189  0.0000E+00  0.1600E+02
    -44.935  0.0000E+00  0.1600E+02
    -44.680  0.0000E+00  0.1600E+02
    -44.426  0.0000E+00  0.1600E+02
    -44.171  0.0000E+00  0.1600E+02
    -43.916  0.0000E+00  0.1600E+02
    -43.662  0.0000E+00  0.1600E+02
    -43.407  0.0000E+00  0.1600E+02
    -43.153  0.0000E+00  0.1600E+02
    -42.898  0.0000E+00  0.1600E+02
    -42.643  0.0000E+00  0.1600E+02
    -42.389  0.0000E+00  0.1600E+02
    -42.134  0.0000E+00  0.1600E+02
    -41.879  0.0000E+00  0.1600E+02
    -41.625  0.0000E+00  0.1600E+02
    -41.370  0.0000E+00  0.1600E+02
    -41.116  0.0000E+00  0.1600E+02
    -40.861  0.0000E+00  0.1600E+02
    -40.606  0.0000E+00  0.1600E+02
    -40.352  0.0000E+00  0.1600E+02
    -40.097  0.0000E+00  0.1600E+02
    -39.843  0.0000E+00  0.1600E+02
    -39.588  0.0000E+00  0.1600E+02
    -39.333  0.0000E+00  0.1600E+02
    -39.079  0.0000E+00  0.1600E+02
    -38.824  0.0000E+00  0.1600E+02
    -38.569  0.0000E+00  0.1600E+02
    -38.315  0.0000E+00  0.1600E+02
    -38.060  0.0000E+00  0.1600E+02
    -37.806  0.0000E+00  0.1600E+02
    -37.551  0.0000E+00  0.1600E+02
    -37.296  0.0000E+00  0.1600E+02
    -37.042  0.0000E+00  0.1600E+02
    -36.787  0.0000E+00  0.1600E+02
    -36.533  0.0000E+00  0.1600E+02
    -36.278  0.0000E+00  0.1600E+02
    -36.023  0.0000E+00  0.1600E+02
    -35.769  0.0000E+00  0.1600E+02
    -35.514  0.0000E+00  0.1600E+02
    -35.259  0.0000E+00  0.1600E+02
    -35.005  0.0000E+00  0.1600E+02
    -34.750  0.0000E+00  0.1600E+02
    -34.496  0.0000E+00  0.1600E+02
    -34.241  0.0000E+00  0.1600E+02
    -33.986  0.0000E+00  0.1600E+02
    -33.732  0.0000E+00  0.1600E+02
    -33.477  0.0000E+00  0.1600E+02
    -33.222  0.0000E+00  0.1600E+02
    -32.968  0.0000E+00  0.1600E+02
    -32.713  0.0000E+00  0.1600E+02
    -32.459  0.0000E+00  0.1600E+02
    -32.204  0.0000E+00  0.1600E+02
    -31.949  0.0000E+00  0.1600E+02
    -31.695  0.0000E+00  0.1600E+02
    -31.440  0.0000E+00  0.1600E+02
    -31.186  0.0000E+00  0.1600E+02
    -30.931  0.0000E+00  0.1600E+02
    -30.676  0.0000E+00  0.1600E+02
    -30.422  0.0000E+00  0.1600E+02
    -30.167  0.0000E+00  0.1600E+02
    -29.912  0.0000E+00  0.1600E+02
    -29.658  0.0000E+00  0.1600E+02
    -29.403  0.0000E+00  0.1600E+02
    -29.149  0.0000E+00  0.1600E+02
    -28.894  0.0000E+00  0.1600E+02
    -28.639  0.0000E+00  0.1600E+02
    -28.385  0.0000E+00  0.1600E+02
    -28.130  0.0000E+00  0.1600E+02
    -27.876  0.0000E+00  0.1600E+02
    -27.621  0.0000E+00  0.1600E+02
    -27.366  0.0000E+00  0.1600E+02
    -27.112  0.0000E+00  0.1600E+02
    -26.857  0.0000E+00  0.1600E+02
    -26.602  0.0000E+00  0.1600E+02
    -26.348  0.0000E+00  0.1600E+02
    -26.093  0.0000E+00  0.1600E+02
    -25.839  0.0000E+00  0.1600E+02
    -25.584 -0.3258E-28  0.1600E+02
    -25.329 -0.5940E-13  0.1600E+02
    -25.075 -0.3120E-03  0.1600E+02
    -24.820 -0.2155E+01  0.1545E+02
    -24.566  0.1176E+03  0.4540E+02
    -24.311  0.5111E+02  0.5842E+02
    -24.056  0.2203E+02  0.6403E+02
    -23.802 -0.1082E+00  0.6400E+02
    -23.547 -0.1333E-07  0.6400E+02
    -23.292  0.0000E+00  0.6400E+02
    -23.038  0.0000E+00  0.6400E+02
    -22.783  0.0000E+00  0.6400E+02
    -22.529  0.0000E+00  0.6400E+02
    -22.274  0.0000E+00  0.6400E+02
    -22.019  0.0000E+00  0.6400E+02
    -21.765  0.0000E+00  0.6400E+02
    -21.510  0.0000E+00  0.6400E+02
    -21.256  0.0000E+00  0.6400E+02
    -21.001  0.0000E+00  0.6400E+02
    -20.746  0.0000E+00  0.6400E+02
    -20.492  0.0000E+00  0.6400E+02
    -20.237  0.0000E+00  0.6400E+02
    -19.982  0.0000E+00  0.6400E+02
    -19.728  0.0000E+00  0.6400E+02
    -19.473  0.0000E+00  0.6400E+02
    -19.219  0.0000E+00  0.6400E+02
    -18.964  0.0000E+00  0.6400E+02
    -18.709  0.0000E+00  0.6400E+02
    -18.455  0.0000E+00  0.6400E+02
    -18.200  0.0000E+00  0.6400E+02
    -17.946  0.0000E+00  0.6400E+02
    -17.691  0.0000E+00  0.6400E+02
    -17.436  0.0000E+00  0.6400E+02
    -17.182  0.0000E+00  0.6400E+02
    -16.927  0.0000E+00  0.6400E+02
    -16.672  0.0000E+00  0.6400E+02
    -16.418  0.0000E+00  0.6400E+02
    -16.163  0.0000E+00  0.6400E+02
    -15.909  0.0000E+00  0.6400E+02
    -15.654  0.0000E+00  0.6400E+02
    -15.399  0.0000E+00  0.6400E+02
    -15.145  0.0000E+00  0.6400E+02
    -14.890  0.0000E+00  0.6400E+02
    -14.636  0.0000E+00  0.6400E+02
    -14.381  0.0000E+00  0.6400E+02
    -14.126  0.0000E+00  0.6400E+02
    -13.872  0.0000E+00  0.6400E+02
    -13.617  0.0000E+00  0.6400E+02
    -13.362  0.0000E+00  0.6400E+02
    -13.108  0.0000E+00  0.6400E+02
    -12.853  0.0000E+00  0.6400E+02
    -12.599  0.0000E+00  0.6400E+02
    -12.344  0.0000E+00  0.6400E+02
    -12.089  0.0000E+00  0.6400E+02
    -11.835  0.0000E+00  0.6400E+02
    -11.580  0.0000E+00  0.6400E+02
    -11.326  0.0000E+00  0.6400E+02
    -11.071  0.0000E+00  0.6400E+02
    -10.816  0.0000E+00  0.6400E+02
    -10.562  0.0000E+00  0.6400E+02
    -10.307  0.0000E+00  0.6400E+02
    -10.052  0.0000E+00  0.6400E+02
     -9.798  0.0000E+00  0.6400E+02
     -9.543  0.0000E+00  0.6400E+02
     -9.289  0.0000E+00  0.6400E+02
     -9.034  0.0000E+00  0.6400E+02
     -8.779  0.0000E+00  0.6400E+02
     -8.525  0.0000E+00  0.6400E+02
     -8.270  0.0000E+00  0.6400E+02
     -8.016  0.0000E+00  0.6400E+02
     -7.761  0.0000E+00  0.6400E+02
     -7.506  0.0000E+00  0.6400E+02
     -7.252  0.0000E+00  0.6400E+02
     -6.997 -0.3552E-31  0.6400E+02
     -6.742 -0.6959E-15  0.6400E+02
     -6.488 -0.2812E-04  0.6400E+02
     -6.233 -0.1138E+01  0.6371E+02
     -5.979  0.4136E+02  0.7424E+02
     -5.724 -0.9495E+00  0.7400E+02
     -5.469 -0.1104E-03  0.7400E+02
     -5.215  0.0000E+00  0.7400E+02
     -4.960  0.0000E+00  0.7400E+02
     -4.706  0.0000E+00  0.7400E+02
     -4.451  0.0000E+00  0.7400E+02
     -4.196  0.0000E+00  0.7400E+02
     -3.942  0.0000E+00  0.7400E+02
     -3.687  0.0000E+00  0.7400E+02
     -3.432  0.0000E+00  0.7400E+02
     -3.178  0.0000E+00  0.7400E+02
     -2.923  0.0000E+00  0.7400E+02
     -2.669  0.0000E+00  0.7400E+02
     -2.414  0.0000E+00  0.7400E+02
     -2.159  0.0000E+00  0.7400E+02
     -1.905 -0.5879E-44  0.7400E+02
     -1.650 -0.8687E-25  0.7400E+02
     -1.396 -0.2544E-11  0.7400E+02
     -1.141 -0.1156E-03  0.7400E+02
     -0.886  0.2362E-01  0.7401E+02
     -0.632  0.7156E+00  0.7419E+02
     -0.377  0.9861E+00  0.7444E+02
     -0.122  0.1886E+01  0.7492E+02
      0.132  0.1492E+01  0.7530E+02
      0.387  0.2355E+01  0.7590E+02
      0.641  0.2464E+01  0.7653E+02
      0.896  0.3038E+01  0.7730E+02
      1.151  0.2782E+01  0.7801E+02
      1.405  0.2419E+01  0.7862E+02
      1.660  0.3516E+01  0.7952E+02
      1.914  0.2976E+01  0.8028E+02
      2.169  0.2638E+01  0.8095E+02
      2.424  0.4344E+01  0.8205E+02
      2.678  0.2187E+01  0.8261E+02
      2.933  0.4827E+01  0.8384E+02
      3.188  0.3072E+01  0.8462E+02
      3.442  0.3947E+01  0.8563E+02
      3.697  0.4074E+01  0.8667E+02
      3.951  0.4558E+01  0.8783E+02
      4.206  0.3755E+01  0.8878E+02
      4.461  0.4933E+01  0.9004E+02
      4.715  0.2877E+01  0.9077E+02
      4.970  0.4643E+01  0.9195E+02
      5.225  0.6542E+01  0.9362E+02
      5.479  0.5747E+01  0.9508E+02
      5.734  0.7418E+01  0.9697E+02
      5.988  0.9111E+01  0.9929E+02
      6.243  0.1051E+02  0.1020E+03
      6.498  0.1286E+02  0.1052E+03
      6.752  0.1476E+02  0.1090E+03
      7.007  0.1713E+02  0.1134E+03
      7.261  0.9326E+01  0.1157E+03
      7.516  0.5527E+01  0.1171E+03
      7.771  0.1248E+02  0.1203E+03
      8.025  0.1882E+02  0.1251E+03
      8.280  0.1832E+02  0.1298E+03
      8.535  0.1164E+02  0.1327E+03
      8.789  0.9304E+01  0.1351E+03
      9.044  0.1179E+02  0.1381E+03
      9.298  0.1372E+02  0.1416E+03
      9.553  0.1357E+02  0.1451E+03
      9.808  0.1724E+02  0.1494E+03
     10.062  0.2129E+02  0.1549E+03
     10.317  0.3189E+02  0.1630E+03
     10.571  0.2084E+02  0.1683E+03
     10.826  0.1714E+02  0.1727E+03
     11.081  0.1042E+02  0.1753E+03
     11.335  0.9116E+01  0.1776E+03
     11.590  0.8085E+01  0.1797E+03
     11.845  0.8224E+01  0.1818E+03
     12.099  0.1115E+02  0.1846E+03
     12.354  0.1819E+02  0.1893E+03
     12.608  0.1055E+02  0.1919E+03
     12.863  0.1045E+02  0.1946E+03
     13.118  0.4606E+01  0.1958E+03
     13.372  0.6659E+01  0.1975E+03
     13.627  0.8648E+01  0.1997E+03
     13.881  0.4838E+01  0.2009E+03
     14.136  0.1030E+02  0.2035E+03
     14.391  0.9567E+01  0.2060E+03
     14.645  0.1107E+02  0.2088E+03
     14.900  0.7550E+01  0.2107E+03
     15.155  0.9899E+01  0.2132E+03
     15.409  0.1092E+02  0.2160E+03
     15.664  0.9822E+01  0.2185E+03
     15.918  0.9903E+01  0.2210E+03
     16.173  0.5409E+01  0.2224E+03
     16.428  0.1025E+02  0.2250E+03
     16.682  0.8575E+01  0.2272E+03
     16.937  0.1093E+02  0.2300E+03
     17.191  0.7742E+01  0.2320E+03
     17.446  0.7183E+01  0.2338E+03
     17.701  0.1144E+02  0.2367E+03
     17.955  0.9572E+01  0.2391E+03
     18.210  0.9028E+01  0.2414E+03
     18.465  0.7410E+01  0.2433E+03
     18.719  0.5923E+01  0.2448E+03
     18.974  0.7143E+01  0.2466E+03
     19.228  0.7009E+01  0.2484E+03
     19.483  0.8247E+01  0.2505E+03
     19.738  0.6415E+01  0.2522E+03
     19.992  0.6096E+01  0.2537E+03
     20.247  0.4827E+01  0.2549E+03
     20.501  0.2096E+01  0.2555E+03
     20.756  0.1734E+01  0.2559E+03
     21.011  0.1004E+00  0.2559E+03
     21.265  0.2253E+00  0.2560E+03
     21.520 -0.4829E-02  0.2560E+03
     21.775 -0.6997E-08  0.2560E+03
     22.029  0.0000E+00  0.2560E+03
     22.284  0.0000E+00  0.2560E+03
     22.538  0.0000E+00  0.2560E+03
     22.793  0.0000E+00  0.2560E+03
     23.048  0.0000E+00  0.2560E+03
     23.302  0.0000E+00  0.2560E+03
     23.557  0.0000E+00  0.2560E+03
     23.811  0.0000E+00  0.2560E+03
     24.066  0.0000E+00  0.2560E+03
     24.321  0.0000E+00  0.2560E+03
     24.575  0.0000E+00  0.2560E+03
