   16   16    1    1
  0.1615369E+02  0.5645286E-09  0.5645286E-09  0.8109982E-09  0.5000000E-15
  1.000000000000000E-004
  CAR 
 unknown system                          
    130     30    128
 
  0.1276756E-14  0.1276756E-14  0.1276756E-14  0.6944444E-02
      1        -48.337426   1.000000
      2        -48.336791   1.000000
      3        -48.279273   1.000000
      4        -48.279273   1.000000
      5        -48.278793   1.000000
      6        -48.278793   1.000000
      7        -48.223298   1.000000
      8        -48.222840   1.000000
      9        -24.770445   1.000000
     10        -24.766753   1.000000
     11        -24.758138   1.000000
     12        -24.755413   1.000000
     13        -24.753338   1.000000
     14        -24.736281   1.000000
     15        -24.697943   1.000000
     16        -24.697943   1.000000
     17        -24.695217   1.000000
     18        -24.695217   1.000000
     19        -24.690065   1.000000
     20        -24.690065   1.000000
     21        -24.678659   1.000000
     22        -24.678659   1.000000
     23        -24.637038   1.000000
     24        -24.626095   1.000000
     25        -24.287757   1.000000
     26        -24.287757   1.000000
     27        -24.287216   1.000000
     28        -24.287216   1.000000
     29        -24.251358   1.000000
     30        -24.250721   1.000000
     31        -24.240481   1.000000
     32        -24.239873   1.000000
     33         -6.130799   1.000000
     34         -6.115258   1.000000
     35         -6.092942   1.000000
     36         -6.092942   1.000000
     37         -6.060521   1.000000
     38         -0.904874   1.000000
     39          0.571443   1.000000
     40          2.918148   1.000000
     41          3.020576   1.000000
     42          3.428870   1.000000
     43          3.608415   1.000000
     44          3.745838   1.000000
     45          3.745838   1.000000
     46          3.783309   1.000000
     47          5.066246   1.000000
     48          5.346991   1.000000
     49          5.346991   1.000000
     50          5.767725   1.000000
     51          6.006437   1.000000
     52          6.006437   1.000000
     53          6.476716   1.000000
     54          6.580478   1.000000
     55          6.602175   1.000000
     56          7.116536   1.000000
     57          7.146867   1.000000
     58          7.147404   1.000000
     59          7.147404   1.000000
     60          7.471810   1.000000
     61          7.626280   1.000000
     62          7.800660   1.000000
     63          7.800660   1.000000
     64          7.955262   1.000008
     65          7.981075   1.000037
     66          8.045198   1.001070
     67          8.045198   1.001070
     68          8.143517   1.026095
     69          8.143517   1.026095
     70          8.946257  -0.000000
     71          9.709084  -0.000000
     72          9.709084  -0.000000
     73          9.781254  -0.000000
     74         10.024493  -0.000000
     75         10.024493  -0.000000
     76         10.084098  -0.000000
     77         10.084098  -0.000000
     78         10.091820  -0.000000
     79         10.091820  -0.000000
     80         10.426984   0.000000
     81         10.462704   0.000000
     82         10.462704   0.000000
     83         10.576170   0.000000
     84         10.595182   0.000000
     85         10.801999   0.000000
     86         10.803837   0.000000
     87         11.222456   0.000000
     88         11.590081   0.000000
     89         11.600868   0.000000
     90         11.976587   0.000000
     91         12.141903   0.000000
     92         12.496777   0.000000
     93         12.499099   0.000000
     94         12.590440   0.000000
     95         12.590440   0.000000
     96         12.621493   0.000000
     97         12.621493   0.000000
     98         13.077790   0.000000
     99         13.320274   0.000000
    100         13.320274   0.000000
    101         13.627844   0.000000
    102         13.627844   0.000000
    103         13.707930   0.000000
    104         13.780984   0.000000
    105         14.056111   0.000000
    106         14.056111   0.000000
    107         14.264796   0.000000
    108         14.545265   0.000000
    109         14.744127   0.000000
    110         16.253996   0.000000
    111         16.312299   0.000000
    112         16.480255   0.000000
    113         16.572741   0.000000
    114         16.625773   0.000000
    115         16.625773   0.000000
    116         17.827872   0.000000
    117         17.951244   0.000000
    118         18.667755   0.000000
    119         18.667755   0.000000
    120         19.017096   0.000000
    121         19.017096   0.000000
    122         19.409301   0.000000
    123         19.409302   0.000000
    124         19.965769   0.000000
    125         20.519619   0.000000
    126         20.519619   0.000000
    127         20.687232   0.000000
    128         20.687234   0.000000
 
  0.1666667E+00  0.1276756E-14  0.1276756E-14  0.2777778E-01
      1        -48.333560   1.000000
      2        -48.332939   1.000000
      3        -48.283198   1.000000
      4        -48.282701   1.000000
      5        -48.275548   1.000000
      6        -48.275071   1.000000
      7        -48.227071   1.000000
      8        -48.226611   1.000000
      9        -24.761636   1.000000
     10        -24.757933   1.000000
     11        -24.749585   1.000000
     12        -24.733982   1.000000
     13        -24.731012   1.000000
     14        -24.727346   1.000000
     15        -24.702439   1.000000
     16        -24.699669   1.000000
     17        -24.694379   1.000000
     18        -24.689114   1.000000
     19        -24.682577   1.000000
     20        -24.677000   1.000000
     21        -24.665815   1.000000
     22        -24.663958   1.000000
     23        -24.640746   1.000000
     24        -24.629712   1.000000
     25        -24.320496   1.000000
     26        -24.319789   1.000000
     27        -24.284963   1.000000
     28        -24.284435   1.000000
     29        -24.277798   1.000000
     30        -24.277148   1.000000
     31        -24.247728   1.000000
     32        -24.247069   1.000000
     33         -6.130123   1.000000
     34         -6.115384   1.000000
     35         -6.093054   1.000000
     36         -6.092885   1.000000
     37         -6.060184   1.000000
     38         -0.770416   1.000000
     39          0.667354   1.000000
     40          2.303630   1.000000
     41          2.825149   1.000000
     42          3.174249   1.000000
     43          3.395206   1.000000
     44          3.742179   1.000000
     45          3.882500   1.000000
     46          4.930400   1.000000
     47          5.117894   1.000000
     48          5.396420   1.000000
     49          5.660890   1.000000
     50          5.843464   1.000000
     51          5.884713   1.000000
     52          5.974078   1.000000
     53          6.187256   1.000000
     54          6.587008   1.000000
     55          6.657233   1.000000
     56          6.679383   1.000000
     57          6.787061   1.000000
     58          7.016008   1.000000
     59          7.356819   1.000000
     60          7.522466   1.000000
     61          7.700557   1.000000
     62          7.823719   1.000000
     63          7.848969   1.000000
     64          7.883141   1.000000
     65          7.945744   1.000004
     66          8.006223   1.000155
     67          8.196664   1.025429
     68          8.256195   0.815235
     69          8.901832  -0.000000
     70          8.999745  -0.000000
     71          9.692571  -0.000000
     72          9.753179  -0.000000
     73          9.760423  -0.000000
     74          9.812599  -0.000000
     75         10.108654  -0.000000
     76         10.116800  -0.000000
     77         10.175328  -0.000000
     78         10.227740  -0.000000
     79         10.254141  -0.000000
     80         10.369685   0.000000
     81         10.446938   0.000000
     82         10.494221   0.000000
     83         10.529726   0.000000
     84         10.552658   0.000000
     85         10.620651   0.000000
     86         10.779088   0.000000
     87         10.944986   0.000000
     88         11.410762   0.000000
     89         11.455070   0.000000
     90         11.479129   0.000000
     91         12.025697   0.000000
     92         12.233666   0.000000
     93         12.268780   0.000000
     94         12.321933   0.000000
     95         12.348765   0.000000
     96         12.596196   0.000000
     97         13.203143   0.000000
     98         13.339825   0.000000
     99         13.376283   0.000000
    100         13.432000   0.000000
    101         13.927643   0.000000
    102         13.951966   0.000000
    103         13.992938   0.000000
    104         14.097462   0.000000
    105         14.183012   0.000000
    106         14.253610   0.000000
    107         14.470565   0.000000
    108         14.517659   0.000000
    109         14.855214   0.000000
    110         15.097984   0.000000
    111         15.904016   0.000000
    112         16.203619   0.000000
    113         16.806617   0.000000
    114         16.906306   0.000000
    115         17.013987   0.000000
    116         17.895601   0.000000
    117         18.151756   0.000000
    118         18.609281   0.000000
    119         18.824787   0.000000
    120         18.889404   0.000000
    121         19.067960   0.000000
    122         19.253491   0.000000
    123         19.278074   0.000000
    124         19.475008   0.000000
    125         19.584225   0.000000
    126         19.919460   0.000000
    127         20.058035   0.000000
    128         20.075560   0.000000
 
  0.3333333E+00  0.1276756E-14  0.1276756E-14  0.2777778E-01
      1        -48.322969   1.000000
      2        -48.322378   1.000000
      3        -48.293893   1.000000
      4        -48.293369   1.000000
      5        -48.265354   1.000000
      6        -48.264884   1.000000
      7        -48.237362   1.000000
      8        -48.236900   1.000000
      9        -24.748447   1.000000
     10        -24.745052   1.000000
     11        -24.737945   1.000000
     12        -24.722283   1.000000
     13        -24.714709   1.000000
     14        -24.711818   1.000000
     15        -24.706127   1.000000
     16        -24.693257   1.000000
     17        -24.678646   1.000000
     18        -24.666351   1.000000
     19        -24.650897   1.000000
     20        -24.646721   1.000000
     21        -24.644388   1.000000
     22        -24.639523   1.000000
     23        -24.585400   1.000000
     24        -24.584180   1.000000
     25        -24.409217   1.000000
     26        -24.408065   1.000000
     27        -24.360844   1.000000
     28        -24.360044   1.000000
     29        -24.277297   1.000000
     30        -24.276752   1.000000
     31        -24.256154   1.000000
     32        -24.255534   1.000000
     33         -6.128789   1.000000
     34         -6.115640   1.000000
     35         -6.093276   1.000000
     36         -6.092774   1.000000
     37         -6.059491   1.000000
     38         -0.375692   1.000000
     39          0.908136   1.000000
     40          1.287411   1.000000
     41          2.136901   1.000000
     42          3.620038   1.000000
     43          3.653203   1.000000
     44          3.972797   1.000000
     45          4.282900   1.000000
     46          4.629252   1.000000
     47          4.976510   1.000000
     48          5.201519   1.000000
     49          5.526600   1.000000
     50          5.775969   1.000000
     51          5.878554   1.000000
     52          6.059047   1.000000
     53          6.445636   1.000000
     54          6.724225   1.000000
     55          6.867163   1.000000
     56          6.871102   1.000000
     57          6.904872   1.000000
     58          6.937050   1.000000
     59          7.534626   1.000000
     60          7.607213   1.000000
     61          7.653041   1.000000
     62          7.684356   1.000000
     63          7.889836   1.000000
     64          7.964448   1.000014
     65          8.139235   1.024120
     66          8.152020   1.029838
     67          8.586078  -0.000169
     68          8.614018  -0.000035
     69          9.077553  -0.000000
     70          9.154760  -0.000000
     71          9.202236  -0.000000
     72          9.401599  -0.000000
     73          9.594302  -0.000000
     74          9.760779  -0.000000
     75          9.878625  -0.000000
     76         10.084124  -0.000000
     77         10.202854  -0.000000
     78         10.288956  -0.000000
     79         10.352698   0.000000
     80         10.418516   0.000000
     81         10.420845   0.000000
     82         10.447820   0.000000
     83         10.549391   0.000000
     84         10.594053   0.000000
     85         10.596506   0.000000
     86         10.716372   0.000000
     87         11.040164   0.000000
     88         11.118857   0.000000
     89         11.150593   0.000000
     90         11.163713   0.000000
     91         11.744221   0.000000
     92         11.745562   0.000000
     93         12.040545   0.000000
     94         12.193832   0.000000
     95         12.417283   0.000000
     96         12.507166   0.000000
     97         12.761661   0.000000
     98         13.170517   0.000000
     99         13.742204   0.000000
    100         13.757538   0.000000
    101         14.006992   0.000000
    102         14.265749   0.000000
    103         14.381940   0.000000
    104         14.588984   0.000000
    105         14.686121   0.000000
    106         14.942479   0.000000
    107         14.966443   0.000000
    108         15.014868   0.000000
    109         15.123537   0.000000
    110         15.204443   0.000000
    111         15.396344   0.000000
    112         15.953894   0.000000
    113         16.551156   0.000000
    114         17.146905   0.000000
    115         17.297397   0.000000
    116         17.621299   0.000000
    117         17.762255   0.000000
    118         18.044667   0.000000
    119         18.051973   0.000000
    120         18.125425   0.000000
    121         18.214514   0.000000
    122         18.356871   0.000000
    123         18.916612   0.000000
    124         19.066439   0.000000
    125         19.132518   0.000000
    126         19.295022   0.000000
    127         19.470644   0.000000
    128         19.622215   0.000000
 
  0.5000000E+00  0.1276756E-14  0.1276756E-14  0.1388889E-01
      1        -48.308753   1.000000
      2        -48.308193   1.000000
      3        -48.308164   1.000000
      4        -48.307602   1.000000
      5        -48.251670   1.000000
      6        -48.251198   1.000000
      7        -48.251095   1.000000
      8        -48.250631   1.000000
      9        -24.731861   1.000000
     10        -24.731173   1.000000
     11        -24.728633   1.000000
     12        -24.728190   1.000000
     13        -24.722372   1.000000
     14        -24.721792   1.000000
     15        -24.707996   1.000000
     16        -24.707573   1.000000
     17        -24.664959   1.000000
     18        -24.664574   1.000000
     19        -24.653177   1.000000
     20        -24.652657   1.000000
     21        -24.530802   1.000000
     22        -24.528967   1.000000
     23        -24.526995   1.000000
     24        -24.525266   1.000000
     25        -24.475628   1.000000
     26        -24.474656   1.000000
     27        -24.472033   1.000000
     28        -24.470988   1.000000
     29        -24.266988   1.000000
     30        -24.266614   1.000000
     31        -24.266406   1.000000
     32        -24.265997   1.000000
     33         -6.128132   1.000000
     34         -6.115767   1.000000
     35         -6.093387   1.000000
     36         -6.092718   1.000000
     37         -6.059136   1.000000
     38          0.130919   1.000000
     39          0.452956   1.000000
     40          1.369279   1.000000
     41          1.615047   1.000000
     42          3.972692   1.000000
     43          4.291357   1.000000
     44          4.318942   1.000000
     45          4.342369   1.000000
     46          4.369605   1.000000
     47          4.369800   1.000000
     48          4.884248   1.000000
     49          4.964021   1.000000
     50          5.684999   1.000000
     51          5.739996   1.000000
     52          6.358404   1.000000
     53          6.391622   1.000000
     54          7.132599   1.000000
     55          7.157572   1.000000
     56          7.204767   1.000000
     57          7.206109   1.000000
     58          7.224525   1.000000
     59          7.281153   1.000000
     60          7.470629   1.000000
     61          7.501227   1.000000
     62          8.020169   1.000322
     63          8.080746   1.004574
     64          8.092589   1.006924
     65          8.098098   1.008293
     66          8.590379  -0.000134
     67          8.644849  -0.000005
     68          8.871284  -0.000000
     69          8.924769  -0.000000
     70          9.066105  -0.000000
     71          9.131044  -0.000000
     72          9.166077  -0.000000
     73          9.191364  -0.000000
     74          9.368169  -0.000000
     75          9.396895  -0.000000
     76         10.050855  -0.000000
     77         10.074232  -0.000000
     78         10.317747   0.000000
     79         10.327506   0.000000
     80         10.349818   0.000000
     81         10.476985   0.000000
     82         10.621656   0.000000
     83         10.636955   0.000000
     84         10.708286   0.000000
     85         10.719739   0.000000
     86         10.768680   0.000000
     87         10.781171   0.000000
     88         11.072883   0.000000
     89         11.165384   0.000000
     90         11.590429   0.000000
     91         11.591457   0.000000
     92         11.743149   0.000000
     93         11.928322   0.000000
     94         11.961282   0.000000
     95         12.014164   0.000000
     96         12.322661   0.000000
     97         12.344732   0.000000
     98         13.573635   0.000000
     99         13.610462   0.000000
    100         13.892338   0.000000
    101         13.992632   0.000000
    102         14.445269   0.000000
    103         14.453982   0.000000
    104         14.762259   0.000000
    105         14.913989   0.000000
    106         15.482855   0.000000
    107         15.507873   0.000000
    108         15.557410   0.000000
    109         15.627372   0.000000
    110         16.184164   0.000000
    111         16.234871   0.000000
    112         16.274775   0.000000
    113         16.277414   0.000000
    114         16.374425   0.000000
    115         16.474304   0.000000
    116         16.492826   0.000000
    117         16.508695   0.000000
    118         16.868760   0.000000
    119         17.217869   0.000000
    120         17.971343   0.000000
    121         18.177067   0.000000
    122         18.623938   0.000000
    123         19.020056   0.000000
    124         19.369803   0.000000
    125         19.413518   0.000000
    126         19.482332   0.000000
    127         19.501174   0.000000
    128         19.589273   0.000000
 
  0.1666667E+00  0.1666667E+00  0.1276756E-14  0.2777778E-01
      1        -48.329705   1.000000
      2        -48.329085   1.000000
      3        -48.279461   1.000000
      4        -48.279461   1.000000
      5        -48.278976   1.000000
      6        -48.278974   1.000000
      7        -48.230856   1.000000
      8        -48.230394   1.000000
      9        -24.748331   1.000000
     10        -24.735038   1.000000
     11        -24.731736   1.000000
     12        -24.725152   1.000000
     13        -24.722725   1.000000
     14        -24.720182   1.000000
     15        -24.693381   1.000000
     16        -24.693266   1.000000
     17        -24.681069   1.000000
     18        -24.680792   1.000000
     19        -24.672006   1.000000
     20        -24.669810   1.000000
     21        -24.668545   1.000000
     22        -24.666752   1.000000
     23        -24.644505   1.000000
     24        -24.633321   1.000000
     25        -24.319458   1.000000
     26        -24.318639   1.000000
     27        -24.315695   1.000000
     28        -24.315075   1.000000
     29        -24.285145   1.000000
     30        -24.284462   1.000000
     31        -24.274302   1.000000
     32        -24.273635   1.000000
     33         -6.129435   1.000000
     34         -6.115526   1.000000
     35         -6.093006   1.000000
     36         -6.092979   1.000000
     37         -6.059860   1.000000
     38         -0.636954   1.000000
     39          0.763300   1.000000
     40          2.293778   1.000000
     41          2.580197   1.000000
     42          2.910241   1.000000
     43          3.093135   1.000000
     44          3.325589   1.000000
     45          4.632584   1.000000
     46          5.114287   1.000000
     47          5.195662   1.000000
     48          5.258027   1.000000
     49          5.899972   1.000000
     50          5.917053   1.000000
     51          5.951581   1.000000
     52          6.206033   1.000000
     53          6.233824   1.000000
     54          6.262863   1.000000
     55          6.659163   1.000000
     56          6.713385   1.000000
     57          6.731851   1.000000
     58          6.753537   1.000000
     59          7.578617   1.000000
     60          7.748141   1.000000
     61          7.780115   1.000000
     62          7.895147   1.000000
     63          7.906773   1.000000
     64          7.916926   1.000001
     65          7.978717   1.000032
     66          8.078444   1.004202
     67          8.084850   1.005303
     68          8.278991   0.649356
     69          9.051260  -0.000000
     70          9.189885  -0.000000
     71          9.698659  -0.000000
     72          9.703127  -0.000000
     73          9.721268  -0.000000
     74          9.880893  -0.000000
     75          9.887715  -0.000000
     76         10.000611  -0.000000
     77         10.253507  -0.000000
     78         10.263121  -0.000000
     79         10.285199  -0.000000
     80         10.307721   0.000000
     81         10.413579   0.000000
     82         10.431256   0.000000
     83         10.476401   0.000000
     84         10.489269   0.000000
     85         10.603124   0.000000
     86         10.766416   0.000000
     87         10.963801   0.000000
     88         11.189272   0.000000
     89         11.306406   0.000000
     90         11.346455   0.000000
     91         11.558008   0.000000
     92         12.150767   0.000000
     93         12.200553   0.000000
     94         12.253362   0.000000
     95         12.253885   0.000000
     96         12.334636   0.000000
     97         13.403237   0.000000
     98         13.573004   0.000000
     99         13.587671   0.000000
    100         13.597522   0.000000
    101         14.030895   0.000000
    102         14.222974   0.000000
    103         14.284980   0.000000
    104         14.304856   0.000000
    105         14.308531   0.000000
    106         14.481499   0.000000
    107         14.537782   0.000000
    108         14.627629   0.000000
    109         14.793288   0.000000
    110         15.093984   0.000000
    111         15.681212   0.000000
    112         15.903462   0.000000
    113         16.853731   0.000000
    114         16.911127   0.000000
    115         17.137507   0.000000
    116         17.267338   0.000000
    117         17.626048   0.000000
    118         18.299236   0.000000
    119         18.312026   0.000000
    120         18.375848   0.000000
    121         18.397694   0.000000
    122         18.802445   0.000000
    123         19.318916   0.000000
    124         19.416704   0.000000
    125         19.976802   0.000000
    126         20.022237   0.000000
    127         20.038817   0.000000
    128         20.229059   0.000000
 
  0.3333333E+00  0.1666667E+00  0.1276756E-14  0.5555556E-01
      1        -48.319138   1.000000
      2        -48.318547   1.000000
      3        -48.290129   1.000000
      4        -48.289613   1.000000
      5        -48.269242   1.000000
      6        -48.268760   1.000000
      7        -48.241177   1.000000
      8        -48.240704   1.000000
      9        -24.736139   1.000000
     10        -24.721088   1.000000
     11        -24.715703   1.000000
     12        -24.712099   1.000000
     13        -24.704794   1.000000
     14        -24.691611   1.000000
     15        -24.682793   1.000000
     16        -24.682477   1.000000
     17        -24.680182   1.000000
     18        -24.670165   1.000000
     19        -24.654748   1.000000
     20        -24.643199   1.000000
     21        -24.642545   1.000000
     22        -24.640286   1.000000
     23        -24.589467   1.000000
     24        -24.588176   1.000000
     25        -24.406075   1.000000
     26        -24.404903   1.000000
     27        -24.364207   1.000000
     28        -24.363365   1.000000
     29        -24.309456   1.000000
     30        -24.308752   1.000000
     31        -24.287354   1.000000
     32        -24.286682   1.000000
     33         -6.128078   1.000000
     34         -6.115809   1.000000
     35         -6.093208   1.000000
     36         -6.092871   1.000000
     37         -6.059199   1.000000
     38         -0.245511   1.000000
     39          1.005995   1.000000
     40          1.406124   1.000000
     41          2.226894   1.000000
     42          2.824955   1.000000
     43          3.303114   1.000000
     44          3.763690   1.000000
     45          4.014038   1.000000
     46          4.471955   1.000000
     47          5.303550   1.000000
     48          5.460827   1.000000
     49          6.049860   1.000000
     50          6.058121   1.000000
     51          6.286617   1.000000
     52          6.312087   1.000000
     53          6.334493   1.000000
     54          6.522266   1.000000
     55          6.934635   1.000000
     56          6.948463   1.000000
     57          6.968202   1.000000
     58          6.988892   1.000000
     59          7.523958   1.000000
     60          7.672065   1.000000
     61          7.682087   1.000000
     62          7.804891   1.000000
     63          7.984322   1.000045
     64          8.119429   1.015399
     65          8.242394   0.894128
     66          8.247139   0.869101
     67          8.408268  -0.033234
     68          8.564928  -0.000500
     69          9.052322  -0.000000
     70          9.200488  -0.000000
     71          9.445423  -0.000000
     72          9.524233  -0.000000
     73          9.610735  -0.000000
     74          9.719327  -0.000000
     75          9.802953  -0.000000
     76         10.014416  -0.000000
     77         10.052522  -0.000000
     78         10.188917  -0.000000
     79         10.190890  -0.000000
     80         10.248155  -0.000000
     81         10.325030   0.000000
     82         10.333971   0.000000
     83         10.350494   0.000000
     84         10.369429   0.000000
     85         10.463070   0.000000
     86         10.487605   0.000000
     87         10.944584   0.000000
     88         11.016892   0.000000
     89         11.116647   0.000000
     90         11.402903   0.000000
     91         11.483866   0.000000
     92         11.789094   0.000000
     93         12.024400   0.000000
     94         12.231563   0.000000
     95         12.248230   0.000000
     96         12.796713   0.000000
     97         12.822823   0.000000
     98         13.238550   0.000000
     99         13.663073   0.000000
    100         14.006673   0.000000
    101         14.325787   0.000000
    102         14.399480   0.000000
    103         14.466408   0.000000
    104         14.565023   0.000000
    105         14.574827   0.000000
    106         14.728318   0.000000
    107         14.922378   0.000000
    108         14.941376   0.000000
    109         15.139220   0.000000
    110         15.705641   0.000000
    111         15.831845   0.000000
    112         16.002444   0.000000
    113         16.340768   0.000000
    114         16.552652   0.000000
    115         16.854402   0.000000
    116         16.943451   0.000000
    117         17.097246   0.000000
    118         17.414492   0.000000
    119         17.785817   0.000000
    120         17.825800   0.000000
    121         17.875484   0.000000
    122         18.188209   0.000000
    123         18.461737   0.000000
    124         19.345870   0.000000
    125         19.601057   0.000000
    126         19.791970   0.000000
    127         19.918848   0.000000
    128         20.030381   0.000000
 
  0.5000000E+00  0.1666667E+00  0.1276756E-14  0.2777778E-01
      1        -48.304954   1.000000
      2        -48.304402   1.000000
      3        -48.304366   1.000000
      4        -48.303813   1.000000
      5        -48.255522   1.000000
      6        -48.255039   1.000000
      7        -48.254947   1.000000
      8        -48.254470   1.000000
      9        -24.720765   1.000000
     10        -24.720128   1.000000
     11        -24.706428   1.000000
     12        -24.706089   1.000000
     13        -24.699384   1.000000
     14        -24.698780   1.000000
     15        -24.696448   1.000000
     16        -24.695915   1.000000
     17        -24.668932   1.000000
     18        -24.668531   1.000000
     19        -24.656929   1.000000
     20        -24.656419   1.000000
     21        -24.527140   1.000000
     22        -24.525364   1.000000
     23        -24.523350   1.000000
     24        -24.521668   1.000000
     25        -24.479330   1.000000