       N       E                     dE             d eps       ncg     rms          rms(c)
DAV:   1     0.968926743898E+03    0.96893E+03   -0.63336E+04  7680   0.121E+03
DAV:   2    -0.296793538131E+02   -0.99861E+03   -0.95835E+03  7808   0.316E+02
DAV:   3    -0.108738429080E+03   -0.79059E+02   -0.77136E+02 15360   0.735E+01
DAV:   4    -0.110929645917E+03   -0.21912E+01   -0.21908E+01  7680   0.112E+01
DAV:   5    -0.110986855012E+03   -0.57209E-01   -0.57208E-01 12480   0.170E+00    0.272E+01
DAV:   6    -0.997081801796E+02    0.11279E+02   -0.33236E+01 10240   0.265E+01    0.924E+00
DAV:   7    -0.985701473565E+02    0.11380E+01   -0.43423E+00  8832   0.877E+00    0.545E+00
DAV:   8    -0.984738662019E+02    0.96281E-01   -0.92465E-01 10368   0.382E+00    0.207E+00
DAV:   9    -0.984295897246E+02    0.44276E-01   -0.19667E-01  9664   0.219E+00    0.708E-01
DAV:  10    -0.984309633614E+02   -0.13736E-02   -0.10943E-02 10368   0.383E-01    0.177E-01
DAV:  11    -0.984306990871E+02    0.26427E-03   -0.27025E-03 11328   0.207E-01    0.135E-01
DAV:  12    -0.984307114094E+02   -0.12322E-04   -0.22358E-04  8832   0.566E-02    0.290E-02
DAV:  13    -0.984307052102E+02    0.61992E-05   -0.86503E-06  9600   0.149E-02
   1 F= -.98430705E+02 E0= -.98431792E+02  d E =0.325982E-02
