 vasp.6.5.0 16Dec24 (build Apr 17 2025 17:55:45) complex                        
  
 executed on             LinuxIFC date 2025.06.04  10:15:35
 running   64 mpi-ranks, on    1 nodes
 distrk:  each k-point on   64 cores,    1 groups
 distr:  one band on NCORE=   1 cores,   64 groups


--------------------------------------------------------------------------------------------------------


 INCAR:
   ISTART = 0
   ICHARG = 2
   PREC = N
   LREAL = .FALSE.
   ENCUT = 520
   ALGO = N
   NELM = 500
   EDIFF = 1E-05
   IBRION = -1
   ISIF = 3
   NSW = 0
   EDIFFG = -0.01
   ISMEAR = 1
   SIGMA = 0.1

 POTCAR:    PAW_PBE Ti_sv 26Sep2005               
 POTCAR:    PAW_PBE Ga_d 06Jul2010                
 POTCAR:    PAW_PBE Al 04Jan2001                  
 -----------------------------------------------------------------------------
|                                                                             |
|           W    W    AA    RRRRR   N    N  II  N    N   GGGG   !!!           |
|           W    W   A  A   R    R  NN   N  II  NN   N  G    G  !!!           |
|           W    W  A    A  R    R  N N  N  II  N N  N  G       !!!           |
|           W WW W  AAAAAA  RRRRR   N  N N  II  N  N N  G  GGG   !            |
|           WW  WW  A    A  R   R   N   NN  II  N   NN  G    G                |
|           W    W  A    A  R    R  N    N  II  N    N   GGGG   !!!           |
|                                                                             |
|     For optimal performance we recommend to set                             |
|       NCORE = 2 up to number-of-cores-per-socket                            |
|     NCORE specifies how many cores store one orbital (NPAR=cpu/NCORE).      |
|     This setting can greatly improve the performance of VASP for DFT.       |
|     The default, NCORE=1 might be grossly inefficient on modern             |
|     multi-core architectures or massively parallel machines. Do your        |
|     own testing! More info at https://www.vasp.at/wiki/index.php/NCORE      |
|     Unfortunately you need to use the default for GW and RPA                |
|     calculations (for HF NCORE is supported but not extensively tested      |
|     yet).                                                                   |
|                                                                             |
 -----------------------------------------------------------------------------

 POTCAR:    PAW_PBE Ti_sv 26Sep2005               
   SHA256 =  4d747badb5a5ea28d858fbac70885b3f8929d6fd9e5b0dbe1ecb9878dc164da1 Ti_sv/POTCAR          
   COPYR  = (c) Copyright 26Sep2005 Georg Kresse                                                    
   COPYR  = This file is part of the software VASP. Any use, copying, and all other rights are regul
   COPYR  = If you do not have a valid VASP license, you may not use, copy or distribute this file. 
   VRHFIN =Ti: 3p4s3d                                                                               
   LEXCH  = PE                                                                                      
   EATOM  =  1588.0892 eV,  116.7213 Ry                                                             
                                                                                                    
   TITEL  = PAW_PBE Ti_sv 26Sep2005                                                                 
   LULTRA =        F    use ultrasoft PP ?                                                          
   IUNSCR =        1    unscreen: 0-lin 1-nonlin 2-no                                               
   RPACOR =    2.000    partial core radius                                                         
   POMASS =   47.880; ZVAL   =   12.000    mass and valenz                                          
   RCORE  =    2.300    outmost cutoff radius                                                       
   RWIGS  =    2.300; RWIGS  =    1.217    wigner-seitz radius (au A)                               
   ENMAX  =  274.610; ENMIN  =  205.957 eV                                                          
   ICORE  =        3    local potential                                                             
   LCOR   =        T    correct aug charges                                                         
   LPAW   =        T    paw PP                                                                      
   EAUG   =  482.848                                                                                
   RMAX   =    2.348    core radius for proj-oper                                                   
   RAUG   =    1.300    factor for augmentation sphere                                              
   RDEP   =    2.381    radius for radial grids                                                     
   RDEPT  =    1.930    core radius for aug-charge                                                  
                                                                                                    
   Atomic configuration                                                                             
    8 entries                                                                                       
     n  l   j            E        occ.                                                              
     1  0  0.50     -4865.3608   2.0000                                                             
     2  0  0.50      -533.1368   2.0000                                                             
     2  1  1.50      -440.5031   6.0000                                                             
     3  0  0.50       -59.3186   2.0000                                                             
     4  0  0.50        -3.7291   1.0000                                                             
     3  1  1.50       -35.7012   6.0000                                                             
     3  2  2.50        -1.9157   3.0000                                                             
     4  3  2.50        -1.3606   0.0000                                                             
   Description                                                                                      
     l       E           TYP  RCUT    TYP  RCUT                                                     
     0    -59.3185931     23  1.800                                                                 
     0     -3.7290822     23  2.300                                                                 
     1    -35.7012045     23  2.300                                                                 
     1     -1.3605826     23  2.300                                                                 
     2     -1.9156920     23  2.300                                                                 
     2     -0.0236318     23  2.300                                                                 
     3     -1.3605826     23  2.300                                                                 
  local pseudopotential read in
  partial core-charges read in
  partial kinetic energy density read in
  atomic valenz-charges read in
  non local Contribution for L=           0  read in
    real space projection operators read in
  non local Contribution for L=           0  read in
    real space projection operators read in
  non local Contribution for L=           1  read in
    real space projection operators read in
  non local Contribution for L=           1  read in
    real space projection operators read in
  non local Contribution for L=           2  read in
    real space projection operators read in
  non local Contribution for L=           2  read in
    real space projection operators read in
    PAW grid and wavefunctions read in
 
   number of l-projection  operators is LMAX  =           6
   number of lm-projection operators is LMMAX =          18
 
 POTCAR:    PAW_PBE Ga_d 06Jul2010                
   SHA256 =  a60ddf36e14f00ea098d9e3914b3745f1b7105e68786148f49ae384e44b4226c Ga_d/POTCAR           
   COPYR  = (c) Copyright 06Jul2010 Georg Kresse                                                    
   COPYR  = This file is part of the software VASP. Any use, copying, and all other rights are regul
   COPYR  = If you do not have a valid VASP license, you may not use, copy or distribute this file. 
   VRHFIN =Ga: s2p1                                                                                 
   LEXCH  = PE                                                                                      
   EATOM  =  2148.8298 eV,  157.9345 Ry                                                             
                                                                                                    
   TITEL  = PAW_PBE Ga_d 06Jul2010                                                                  
   LULTRA =        F    use ultrasoft PP ?                                                          
   IUNSCR =        1    unscreen: 0-lin 1-nonlin 2-no                                               
   RPACOR =    1.700    partial core radius                                                         
   POMASS =   69.723; ZVAL   =   13.000    mass and valenz                                          
   RCORE  =    2.300    outmost cutoff radius                                                       
   RWIGS  =    2.300; RWIGS  =    1.217    wigner-seitz radius (au A)                               
   ENMAX  =  282.691; ENMIN  =  212.018 eV                                                          
   ICORE  =        3    local potential                                                             
   LCOR   =        T    correct aug charges                                                         
   LPAW   =        T    paw PP                                                                      
   EAUG   =  490.690                                                                                
   DEXC   =    0.000                                                                                
   RMAX   =    2.341    core radius for proj-oper                                                   
   RAUG   =    1.300    factor for augmentation sphere                                              
   RDEP   =    2.413    radius for radial grids                                                     
   RDEPT  =    1.856    core radius for aug-charge                                                  
                                                                                                    
   Atomic configuration                                                                             
    9 entries                                                                                       
     n  l   j            E        occ.                                                              
     1  0  0.50    -10228.7831   2.0000                                                             
     2  0  0.50     -1262.1604   2.0000                                                             
     2  1  1.50     -1098.6333   6.0000                                                             
     3  0  0.50      -148.1110   2.0000                                                             
     3  1  1.50       -98.8436   6.0000                                                             
     3  2  2.50       -19.1549  10.0000                                                             
     4  0  0.50        -8.9483   2.0000                                                             
     4  1  0.50        -2.5791   1.0000                                                             
     4  3  2.50        -2.7416   0.0000                                                             
   Description                                                                                      
     l       E           TYP  RCUT    TYP  RCUT                                                     
     2    -19.1549037     23  2.300                                                                 
     2     -5.4423304     23  2.300                                                                 
     0     -8.9483111     23  2.300                                                                 
     0     68.0291300     23  2.300                                                                 
     1     -2.5790802     23  2.100                                                                 
     1     81.6349560     23  2.300                                                                 
     3      6.8029130     23  2.300                                                                 
  local pseudopotential read in
  partial core-charges read in
  partial kinetic energy density read in
  atomic valenz-charges read in
  non local Contribution for L=           2  read in
    real space projection operators read in
  non local Contribution for L=           2  read in
    real space projection operators read in
  non local Contribution for L=           0  read in
    real space projection operators read in
  non local Contribution for L=           0  read in
    real space projection operators read in
  non local Contribution for L=           1  read in
    real space projection operators read in
  non local Contribution for L=           1  read in
    real space projection operators read in
    PAW grid and wavefunctions read in
 
   number of l-projection  operators is LMAX  =           6
   number of lm-projection operators is LMMAX =          18
 
 POTCAR:    PAW_PBE Al 04Jan2001                  
   SHA256 =  17880443556af62b473fe41b62a467bd001ad55d2cabe504a3f22e34d4e9db96 Al/POTCAR             
   COPYR  = (c) Copyright 04Jan2001 Georg Kresse                                                    
   COPYR  = This file is part of the software VASP. Any use, copying, and all other rights are regul
   COPYR  = If you do not have a valid VASP license, you may not use, copy or distribute this file. 
   VRHFIN =Al: s2p1                                                                                 
   LEXCH  = PE                                                                                      
   EATOM  =    53.5387 eV,    3.9350 Ry                                                             
                                                                                                    
   TITEL  = PAW_PBE Al 04Jan2001                                                                    
   LULTRA =        F    use ultrasoft PP ?                                                          
   IUNSCR =        1    unscreen: 0-lin 1-nonlin 2-no                                               
   RPACOR =    1.500    partial core radius                                                         
   POMASS =   26.981; ZVAL   =    3.000    mass and valenz                                          
   RCORE  =    1.900    outmost cutoff radius                                                       
   RWIGS  =    2.650; RWIGS  =    1.402    wigner-seitz radius (au A)                               
   ENMAX  =  240.300; ENMIN  =  180.225 eV                                                          
   ICORE  =        2    local potential                                                             
   LCOR   =        T    correct aug charges                                                         
   LPAW   =        T    paw PP                                                                      
   EAUG   =  291.052                                                                                
   DEXC   =    0.000                                                                                
   RMAX   =    1.939    core radius for proj-oper                                                   
   RAUG   =    1.300    factor for augmentation sphere                                              
   RDEP   =    1.966    radius for radial grids                                                     
   RDEPT  =    1.856    core radius for aug-charge                                                  
                                                                                                    
   Atomic configuration                                                                             
    6 entries                                                                                       
     n  l   j            E        occ.                                                              
     1  0  0.50     -1511.1048   2.0000                                                             
     2  0  0.50      -108.1629   2.0000                                                             
     2  1  1.50       -69.6402   6.0000                                                             
     3  0  0.50        -7.7528   2.0000                                                             
     3  1  1.50        -2.7121   1.0000                                                             
     3  2  2.50        -2.7212   0.0000                                                             
   Description                                                                                      
     l       E           TYP  RCUT    TYP  RCUT                                                     
     0     -7.7528455     23  1.900                                                                 
     0     -3.3096929     23  1.900                                                                 
     1     -2.7120682     23  1.900                                                                 
     1     13.6058260     23  1.900                                                                 
     2     -2.7211652      7  1.900                                                                 
  local pseudopotential read in
  partial core-charges read in
  partial kinetic energy density read in
  atomic valenz-charges read in
  non local Contribution for L=           0  read in
    real space projection operators read in
  non local Contribution for L=           0  read in
    real space projection operators read in
  non local Contribution for L=           1  read in
    real space projection operators read in
  non local Contribution for L=           1  read in
    real space projection operators read in
    PAW grid and wavefunctions read in
 
   number of l-projection  operators is LMAX  =           4
   number of lm-projection operators is LMMAX =           8
 
  PAW_PBE Ti_sv 26Sep2005               :
 energy of atom  1       EATOM=-1588.0892
 kinetic energy error for atom=    0.0042 (will be added to EATOM!!)
  PAW_PBE Ga_d 06Jul2010                :
 energy of atom  2       EATOM=-2148.8298
 kinetic energy error for atom=    0.0026 (will be added to EATOM!!)
  PAW_PBE Al 04Jan2001                  :
 energy of atom  3       EATOM=  -53.5387
 kinetic energy error for atom=    0.0002 (will be added to EATOM!!)
 
 
 POSCAR: Ti1 Al1
  positions in direct lattice
  velocities in cartesian coordinates


 exchange-correlation table for PE
   RHO(1)=    0.500       N(1)  =     2000
   RHO(2)=  100.500       N(2)  =     4000
 


--------------------------------------------------------------------------------------------------------


 ion  position               nearest neighbor table
   1  0.000  0.000  0.001-   3 2.82   5 2.82   3 2.82   5 2.82   9 2.84  11 2.84  13 2.84  15 2.84
                            10 2.85  14 2.85  12 2.85  16 2.85
   2  0.000  0.000  0.499-   4 2.82   6 2.82   4 2.82   6 2.82   9 2.84  11 2.84  13 2.84  15 2.84
                            10 2.85  14 2.85  12 2.85  16 2.85
   3  0.000  0.500  0.001-   1 2.82   7 2.82   1 2.82   7 2.82   9 2.84  13 2.84  11 2.84  15 2.84
                            10 2.85  12 2.85  14 2.85  16 2.85
   4  0.000  0.500  0.499-   2 2.82   8 2.82   2 2.82   8 2.82   9 2.84  13 2.84  11 2.84  15 2.84
                            10 2.85  12 2.85  14 2.85  16 2.85
   5  0.500  0.000  0.001-   1 2.82   7 2.82   1 2.82   7 2.82   9 2.84  13 2.84  11 2.84  15 2.84
                            10 2.85  12 2.85  14 2.85  16 2.85
   6  0.500  0.000  0.499-   2 2.82   8 2.82   2 2.82   8 2.82   9 2.84  13 2.84  11 2.84  15 2.84
                            10 2.85  12 2.85  14 2.85  16 2.85
   7  0.500  0.500  0.001-   3 2.82   5 2.82   3 2.82   5 2.82   9 2.84  11 2.84  13 2.84  15 2.84
                            10 2.85  14 2.85  12 2.85  16 2.85
   8  0.500  0.500  0.499-   4 2.82   6 2.82   4 2.82   6 2.82   9 2.84  11 2.84  13 2.84  15 2.84
                            10 2.85  14 2.85  12 2.85  16 2.85
   9  0.250  0.250  0.250-  11 2.82  13 2.82  11 2.82  13 2.82   5 2.84   6 2.84   7 2.84   8 2.84
                             1 2.84   2 2.84   3 2.84   4 2.84
  10  0.250  0.250  0.750-  12 2.82  14 2.82  12 2.82  14 2.82   5 2.85   6 2.85   7 2.85   8 2.85
                             1 2.85   2 2.85   3 2.85   4 2.85
  11  0.250  0.750  0.250-   9 2.82  15 2.82   9 2.82  15 2.82   5 2.84   6 2.84   7 2.84   8 2.84
                             1 2.84   2 2.84   3 2.84   4 2.84
  12  0.250  0.750  0.750-  10 2.82  16 2.82  10 2.82  16 2.82   5 2.85   6 2.85   7 2.85   8 2.85
                             1 2.85   2 2.85   3 2.85   4 2.85
  13  0.750  0.250  0.250-   9 2.82  15 2.82  15 2.82   9 2.82   5 2.84   6 2.84   7 2.84   8 2.84
                             1 2.84   2 2.84   3 2.84   4 2.84
  14  0.750  0.250  0.750-  10 2.82  16 2.82  16 2.82  10 2.82   5 2.85   6 2.85   7 2.85   8 2.85
                             1 2.85   2 2.85   3 2.85   4 2.85
  15  0.750  0.750  0.250-  11 2.82  13 2.82  13 2.82  11 2.82   5 2.84   6 2.84   7 2.84   8 2.84
                             1 2.84   2 2.84   3 2.84   4 2.84
  16  0.750  0.750  0.750-  12 2.82  14 2.82  14 2.82  12 2.82   5 2.85   6 2.85   7 2.85   8 2.85
                             1 2.85   2 2.85   3 2.85   4 2.85
 
  LATTYP: Found a simple tetragonal cell.
 ALAT       =     5.6452860611
 C/A-ratio  =     1.4365937127
  
  Lattice vectors:
  
 A1 = (   5.6452860611,   0.0000000000,   0.0000000000)
 A2 = (   0.0000000000,   5.6452860611,   0.0000000000)
 A3 = (   0.0000000000,   0.0000000000,   8.1099824619)


Analysis of symmetry for initial positions (statically):
=====================================================================
 Subroutine PRICEL returns:
 Original cell was already a primitive cell.
 

 Routine SETGRP: Setting up the symmetry group for a 
 simple tetragonal supercell.


 Subroutine GETGRP returns: Found 16 space group operations
 (whereof  2 operations were pure point group operations)
 out of a pool of 16 trial point group operations.


The static configuration has the point symmetry C_1h.
 The point group associated with its full space group is D_4h.


Analysis of symmetry for dynamics (positions and initial velocities):
=====================================================================
 Subroutine PRICEL returns:
 Original cell was already a primitive cell.
 

 Routine SETGRP: Setting up the symmetry group for a 
 simple tetragonal supercell.


 Subroutine GETGRP returns: Found 16 space group operations
 (whereof  2 operations were pure point group operations)
 out of a pool of 16 trial point group operations.


The dynamic configuration has the point symmetry C_1h.
 The point group associated with its full space group is D_4h.


 Subroutine INISYM returns: Found 16 space group operations
 (whereof  2 operations are pure point group operations),
 and found     1 'primitive' translations


----------------------------------------------------------------------------------------

                                     Primitive cell                                     

  volume of cell :     258.4591

  direct lattice vectors                    reciprocal lattice vectors
     5.645286061  0.000000000  0.000000000     0.177138942  0.000000000  0.000000000
     0.000000000  5.645286061  0.000000000     0.000000000  0.177138942  0.000000000
     0.000000000  0.000000000  8.109982462     0.000000000  0.000000000  0.123304829

  length of vectors
     5.645286061  5.645286061  8.109982462     0.177138942  0.177138942  0.123304829

  position of ions in fractional coordinates (direct lattice)
     0.000197156  0.000197156  0.000617192
     0.000197156  0.000197156  0.499382808
     0.000197156  0.499802844  0.000617192
     0.000197156  0.499802844  0.499382808
     0.499802844  0.000197156  0.000617192
     0.499802844  0.000197156  0.499382808
     0.499802844  0.499802844  0.000617192
     0.499802844  0.499802844  0.499382808
     0.250000000  0.250000000  0.250000000
     0.250000000  0.250000000  0.750000000
     0.250000000  0.750000000  0.250000000
     0.250000000  0.750000000  0.750000000
     0.750000000  0.250000000  0.250000000
     0.750000000  0.250000000  0.750000000
     0.750000000  0.750000000  0.250000000
     0.750000000  0.750000000  0.750000000

  ion indices of the primitive-cell ions
   primitive index   ion index
                 1           1
                 2           2
                 3           3
                 4           4
                 5           5
                 6           6
                 7           7
                 8           8
                 9           9
                10          10
                11          11
                12          12
                13          13
                14          14
                15          15
                16          16

----------------------------------------------------------------------------------------

 
 
 KPOINTS: K-Spacing Value to Generate K-Mesh: 0.03

Automatic generation of k-mesh.
 Grid dimensions read from file:
 generate k-points for:    6    6    4

 Generating k-lattice:

  Cartesian coordinates                     Fractional coordinates (reciprocal lattice)
     0.029523157  0.000000000  0.000000000     0.166666667  0.000000000  0.000000000
     0.000000000  0.029523157  0.000000000     0.000000000  0.166666667  0.000000000
     0.000000000  0.000000000  0.030826207     0.000000000  0.000000000  0.250000000

  Length of vectors
     0.029523157  0.029523157  0.030826207

  Shift w.r.t. Gamma in fractional coordinates (k-lattice)
     0.000000000  0.000000000  0.000000000

 
 Subroutine IBZKPT returns following result:
 ===========================================
 
 Found     30 irreducible k-points:
 
 Following reciprocal coordinates:
            Coordinates               Weight
  0.000000  0.000000  0.000000      1.000000
  0.166667  0.000000  0.000000      4.000000
  0.333333  0.000000  0.000000      4.000000
  0.500000  0.000000  0.000000      2.000000
  0.166667  0.166667  0.000000      4.000000
  0.333333  0.166667  0.000000      8.000000
  0.500000  0.166667  0.000000      4.000000
  0.333333  0.333333  0.000000      4.000000
  0.500000  0.333333  0.000000      4.000000
  0.500000  0.500000  0.000000      1.000000
  0.000000  0.000000  0.250000      2.000000
  0.166667  0.000000  0.250000      8.000000
  0.333333  0.000000  0.250000      8.000000
  0.500000  0.000000  0.250000      4.000000
  0.166667  0.166667  0.250000      8.000000
  0.333333  0.166667  0.250000     16.000000
  0.500000  0.166667  0.250000      8.000000
  0.333333  0.333333  0.250000      8.000000
  0.500000  0.333333  0.250000      8.000000
  0.500000  0.500000  0.250000      2.000000
  0.000000  0.000000  0.500000      1.000000
  0.166667  0.000000  0.500000      4.000000
  0.333333  0.000000  0.500000      4.000000
  0.500000  0.000000  0.500000      2.000000
  0.166667  0.166667  0.500000      4.000000
  0.333333  0.166667  0.500000      8.000000
  0.500000  0.166667  0.500000      4.000000
  0.333333  0.333333  0.500000      4.000000
  0.500000  0.333333  0.500000      4.000000
  0.500000  0.500000  0.500000      1.000000
 
 Following cartesian coordinates:
            Coordinates               Weight
  0.000000  0.000000  0.000000      1.000000
  0.029523  0.000000  0.000000      4.000000
  0.059046  0.000000  0.000000      4.000000
  0.088569  0.000000  0.000000      2.000000
  0.029523  0.029523  0.000000      4.000000
  0.059046  0.029523  0.000000      8.000000
  0.088569  0.029523  0.000000      4.000000
  0.059046  0.059046  0.000000      4.000000
  0.088569  0.059046  0.000000      4.000000
  0.088569  0.088569  0.000000      1.000000
  0.000000  0.000000  0.030826      2.000000
  0.029523  0.000000  0.030826      8.000000
  0.059046  0.000000  0.030826      8.000000
  0.088569  0.000000  0.030826      4.000000
  0.029523  0.029523  0.030826      8.000000
  0.059046  0.029523  0.030826     16.000000
  0.088569  0.029523  0.030826      8.000000
  0.059046  0.059046  0.030826      8.000000
  0.088569  0.059046  0.030826      8.000000
  0.088569  0.088569  0.030826      2.000000
  0.000000  0.000000  0.061652      1.000000
  0.029523  0.000000  0.061652      4.000000
  0.059046  0.000000  0.061652      4.000000
  0.088569  0.000000  0.061652      2.000000
  0.029523  0.029523  0.061652      4.000000
  0.059046  0.029523  0.061652      8.000000
  0.088569  0.029523  0.061652      4.000000
  0.059046  0.059046  0.061652      4.000000
  0.088569  0.059046  0.061652      4.000000
  0.088569  0.088569  0.061652      1.000000
 


--------------------------------------------------------------------------------------------------------




 Dimension of arrays:
   k-points           NKPTS =     30   k-points in BZ     NKDIM =     30   number of bands    NBANDS=    128
   number of dos      NEDOS =    301   number of ions     NIONS =     16
   non local maximal  LDIM  =      6   non local SUM 2l+1 LMDIM =     18
   total plane-waves  NPLWV =  49152
   max r-space proj   IRMAX =      1   max aug-charges    IRDMAX=   7600
   dimension x,y,z NGX =    32 NGY =   32 NGZ =   48
   dimension x,y,z NGXF=    64 NGYF=   64 NGZF=   96
   support grid    NGXF=    64 NGYF=   64 NGZF=   96
   ions per type =               8   1   7
   NGX,Y,Z   is equivalent  to a cutoff of   9.42,  9.42,  9.84 a.u.
   NGXF,Y,Z  is equivalent  to a cutoff of  18.85, 18.85, 19.68 a.u.

 SYSTEM =  unknown system                          
 POSCAR =  Ti1 Al1                                 

 Startparameter for this run:
   NWRITE =      2    write-flag & timer
   PREC   = n         normal or accurate (medium, high low for compatibility)
   ISTART =      0    job   : 0-new  1-cont  2-samecut
   ICHARG =      2    charge: 1-file 2-atom 10-const
   ISPIN  =      1    spin polarized calculation?
   LNONCOLLINEAR =      F non collinear calculations
   LSORBIT =      F    spin-orbit coupling
   INIWAV =      1    electr: 0-lowe 1-rand  2-diag
   LASPH  =      F    aspherical Exc in radial PAW
 Electronic Relaxation 1
   ENCUT  =  520.0 eV  38.22 Ry    6.18 a.u.  10.50 10.50 15.08*2*pi/ulx,y,z
   ENINI  =  520.0     initial cutoff
   ENAUG  =  490.7 eV  augmentation charge cutoff
   NELM   =    500;   NELMIN=  2; NELMDL= -5     # of ELM steps 
   EDIFF  = 0.1E-04   stopping-criterion for ELM
   LREAL  =      F    real-space projection
   NLSPLINE    = F    spline interpolate recip. space projectors
   LCOMPAT=      F    compatible to vasp.4.4
   GGA_COMPAT  = T    GGA compatible to vasp.4.4-vasp.4.6
   LMAXPAW     = -100 max onsite density
   LMAXMIX     =    2 max onsite mixed and CHGCAR
   VOSKOWN=      0    Vosko Wilk Nusair interpolation
   ROPT   =    0.00000   0.00000   0.00000
 Ionic relaxation
   EDIFFG = -.1E-01   stopping-criterion for IOM
   NSW    =      0    number of steps for IOM
   NBLOCK =      1;   KBLOCK =      1    inner block; outer block 
   IBRION =     -1    ionic relax: 0-MD 1-quasi-New 2-CG
   NFREE  =      0    steps in history (QN), initial steepest desc. (CG)
   ISIF   =      3    stress and relaxation
   IWAVPR =     10    prediction:  0-non 1-charg 2-wave 3-comb
   ISYM   =      2    0-nonsym 1-usesym 2-fastsym
   LCORR  =      T    Harris-Foulkes like correction to forces

   POTIM  = 0.5000    time-step for ionic-motion
   TEIN   =    0.0    initial temperature
   TEBEG  =    0.0;   TEEND  =   0.0 temperature during run
   SMASS  =  -3.00    Nose mass-parameter (am)
   estimated Nose-frequenzy (Omega)   =  0.10E-29 period in steps = 0.13E+47 mass=  -0.728E-27a.u.
   SCALEE = 1.0000    scale energy and forces
   NPACO  =    256;   APACO  = 10.0  distance and # of slots for P.C.
   PSTRESS=    0.0 pullay stress

  Mass of Ions in am
   POMASS =  47.88 69.72 26.98
  Ionic Valenz
   ZVAL   =  12.00 13.00  3.00
  Atomic Wigner-Seitz radii
   RWIGS  =  -1.00 -1.00 -1.00
  virtual crystal weights 
   VCA    =   1.00  1.00  1.00
   NELECT =     130.0000    total number of electrons
   NUPDOWN=      -1.0000    fix difference up-down

 DOS related values:
   EMIN   =  10.00;   EMAX   =-10.00  energy-range for DOS
   EFERMI =   0.00;   METHOD = LEGACY      
   ISMEAR =     1;   SIGMA  =   0.10  broadening in eV -4-tet -1-fermi 0-gaus
   EFERMI_NEDOS =   21; number of points for ismear=-14 and -15

 Electronic relaxation 2 (details)
   IALGO  =     38    algorithm
   LDIAG  =      T    sub-space diagonalisation (order eigenvalues)
   LSUBROT=      F    optimize rotation matrix (better conditioning)
   TURBO    =      0    0=normal 1=particle mesh
   IRESTART =      0    0=no restart 2=restart with 2 vectors
   NREBOOT  =      0    no. of reboots
   NMIN     =      0    reboot dimension
   EREF     =   0.00    reference energy to select bands
   IMIX   =      4    mixing-type and parameters
     AMIX     =   0.40;   BMIX     =  1.00
     AMIX_MAG =   1.60;   BMIX_MAG =  1.00
     AMIN     =   0.10
     WC   =   100.;   INIMIX=   1;  MIXPRE=   1;  MAXMIX= -45

 Intra band minimization:
   WEIMIN = 0.0000     energy-eigenvalue tresh-hold
   EBREAK =  0.20E-07  absolut break condition
   DEPER  =   0.30     relativ break condition  

   TIME   =   0.40     timestep for ELM

  volume/ion in A,a.u.               =      16.15       109.01
  Fermi-wavevector in a.u.,A,eV,Ry     =   1.301943  2.460316 23.062635  1.695056
  Thomas-Fermi vector in A             =   2.433044
 
 Write flags
   LWAVE        =      T    write WAVECAR
   LDOWNSAMPLE  =      F    k-point downsampling of WAVECAR
   LCHARG       =      T    write CHGCAR
   LVTOT        =      F    write LOCPOT, total local potential
   LVHAR        =      F    write LOCPOT, Hartree potential only
   WRT_POTENTIAL= false  ! write potential to hdf5 file
   LELF         =      F    write electronic localiz. function (ELF)
   LORBIT       =      0    0 simple, 1 ext, 2 COOP (PROOUT), +10 PAW based schemes


 Python interface
   PLUGINS active      =      F    recompile with -DPLUGINS to activate
 
 Dipole corrections
   LMONO      =      F    monopole corrections only (constant potential shift)
   LDIPOL     =      F    correct potential (dipole corrections)
   IDIPOL     =      0    1-x, 2-y, 3-z, 4-all directions 
   EPSILON    =  1.0000000 bulk dielectric constant
   LVACPOTAV  =      F  vacuum potentials using an averaging scheme for the charge density
   VACPOTFLAT =  0.1000000 required flatness to determine vacuum potential
 
Coulomb truncation method
  LTRUNCATE          =      F  Coulomb kernel truncation to be used
  IDIMENSIONALITY    =      3  Dimensionality of cutoff (0 molecules / 2 surfaces)
  ISURFACE           =     -1  Direction of surface normal
  LCOARSEN           =      F  Coarsen the charge grid before padding, preferred

 
 Exchange correlation treatment:
   GGA     = PE    functional components
   XC_C    = 1    coefficients multiplying the functional components
   LIBXC   =     F    Libxc                    
   VOSKOWN =     0    Vosko Wilk Nusair interpolation
   LHFCALC =     F    Hartree Fock is set to
   LHFONE  =     F    Hartree Fock one center treatment
   AEXX    =    0.0000 exact exchange contribution

 Parameters of functionals:
   PE:
     No parameter
 
 Van der Waals corrections
   IVDW    =     0    specifies the selected vdW correction

 Linear response parameters
   LEPSILON=     F    determine dielectric tensor
   LRPA    =     F    only Hartree local field effects (RPA)
   LNABLA  =     F    use nabla operator in PAW spheres
   LVEL    =     F    velocity operator in full k-point grid
   CSHIFT  =0.1000    complex shift for real part using Kramers Kronig
   OMEGAMAX=  -1.0    maximum frequency
   DEG_THRESHOLD= 0.2000000E-02 threshold for treating states as degnerate
   RTIME   =   -0.100 relaxation time in fs
  (WPLASMAI=    0.000 imaginary part of plasma frequency in eV, 0.658/RTIME)
   DFIELD  = 0.0000000 0.0000000 0.0000000 field for delta impulse in time
 
  Optional k-point grid parameters
   LKPOINTS_OPT  =     F    use optional k-point grid
   KPOINTS_OPT_MODE=     1    mode for optional k-point grid
 
 Orbital magnetization related:
   ORBITALMAG=     F  switch on orbital magnetization
   LCHIMAG   =     F  perturbation theory with respect to B field
   DQ        =  0.001000  dq finite difference perturbation B field
   LLRAUG    =     F  two centre corrections for induced B field
   LBONE     =     F  B-component reconstruction in AE one-centre
   LVGVCALC  =     T  calculate vGv susceptibility
   LVGVAPPL  =     F  apply vGv susceptibility instead of pGv for G=0

 Random number generation:
   RANDOM_GENERATOR = DEFAULT
   PCG_SEED         = not used


--------------------------------------------------------------------------------------------------------


 Static calculation
 charge density and potential will be updated during run
 non-spin polarized calculation
 Variant of blocked Davidson
 Davidson routine will perform the subspace rotation
 perform sub-space diagonalisation
    after iterative eigenvector-optimisation
 modified Broyden-mixing scheme, WC =      100.0
 initial mixing is a Kerker type mixing with AMIX =  0.4000 and BMIX =      1.0000
 Hartree-type preconditioning will be used
 using additional bands           63
 reciprocal scheme for non local part
 use partial core corrections
 calculate Harris-corrections to forces 
   (improved forces if not selfconsistent)
 use gradient corrections 
 use of overlap-Matrix (Vanderbilt PP)
 Methfessel and Paxton  Order N= 1 SIGMA  =   0.10


--------------------------------------------------------------------------------------------------------


  energy-cutoff  :      520.00
  volume of cell :      258.46
      direct lattice vectors                 reciprocal lattice vectors
     5.645286061  0.000000000  0.000000000     0.177138942  0.000000000  0.000000000
     0.000000000  5.645286061  0.000000000     0.000000000  0.177138942  0.000000000
     0.000000000  0.000000000  8.109982462     0.000000000  0.000000000  0.123304829

  length of vectors
     5.645286061  5.645286061  8.109982462     0.177138942  0.177138942  0.123304829


 
 k-points in units of 2pi/SCALE and weight: K-Spacing Value to Generate K-Mesh: 0.03
   0.00000000  0.00000000  0.00000000       0.007
   0.02952316  0.00000000  0.00000000       0.028
   0.05904631  0.00000000  0.00000000       0.028
   0.08856947  0.00000000  0.00000000       0.014
   0.02952316  0.02952316  0.00000000       0.028
   0.05904631  0.02952316  0.00000000       0.056
   0.08856947  0.02952316  0.00000000       0.028
   0.05904631  0.05904631  0.00000000       0.028
   0.08856947  0.05904631  0.00000000       0.028
   0.08856947  0.08856947  0.00000000       0.007
   0.00000000  0.00000000  0.03082621       0.014
   0.02952316  0.00000000  0.03082621       0.056
   0.05904631  0.00000000  0.03082621       0.056
   0.08856947  0.00000000  0.03082621       0.028
   0.02952316  0.02952316  0.03082621       0.056
   0.05904631  0.02952316  0.03082621       0.111
   0.08856947  0.02952316  0.03082621       0.056
   0.05904631  0.05904631  0.03082621       0.056
   0.08856947  0.05904631  0.03082621       0.056
   0.08856947  0.08856947  0.03082621       0.014
   0.00000000  0.00000000  0.06165241       0.007
   0.02952316  0.00000000  0.06165241       0.028
   0.05904631  0.00000000  0.06165241       0.028
   0.08856947  0.00000000  0.06165241       0.014
   0.02952316  0.02952316  0.06165241       0.028
   0.05904631  0.02952316  0.06165241       0.056
   0.08856947  0.02952316  0.06165241       0.028
   0.05904631  0.05904631  0.06165241       0.028
   0.08856947  0.05904631  0.06165241       0.028
   0.08856947  0.08856947  0.06165241       0.007
 
 k-points in reciprocal lattice and weights: K-Spacing Value to Generate K-Mesh: 0.03
   0.00000000  0.00000000  0.00000000       0.007
   0.16666667  0.00000000  0.00000000       0.028
   0.33333333  0.00000000  0.00000000       0.028
   0.50000000  0.00000000  0.00000000       0.014
   0.16666667  0.16666667  0.00000000       0.028
   0.33333333  0.16666667  0.00000000       0.056
   0.50000000  0.16666667  0.00000000       0.028
   0.33333333  0.33333333  0.00000000       0.028
   0.50000000  0.33333333  0.00000000       0.028
   0.50000000  0.50000000  0.00000000       0.007
   0.00000000  0.00000000  0.25000000       0.014
   0.16666667  0.00000000  0.25000000       0.056
   0.33333333  0.00000000  0.25000000       0.056
   0.50000000  0.00000000  0.25000000       0.028
   0.16666667  0.16666667  0.25000000       0.056
   0.33333333  0.16666667  0.25000000       0.111
   0.50000000  0.16666667  0.25000000       0.056
   0.33333333  0.33333333  0.25000000       0.056
   0.50000000  0.33333333  0.25000000       0.056
   0.50000000  0.50000000  0.25000000       0.014
   0.00000000  0.00000000  0.50000000       0.007
   0.16666667  0.00000000  0.50000000       0.028
   0.33333333  0.00000000  0.50000000       0.028
   0.50000000  0.00000000  0.50000000       0.014
   0.16666667  0.16666667  0.50000000       0.028
   0.33333333  0.16666667  0.50000000       0.056
   0.50000000  0.16666667  0.50000000       0.028
   0.33333333  0.33333333  0.50000000       0.028
   0.50000000  0.33333333  0.50000000       0.028
   0.50000000  0.50000000  0.50000000       0.007
 
 position of ions in fractional coordinates (direct lattice) 
   0.00019716  0.00019716  0.00061719
   0.00019716  0.00019716  0.49938281
   0.00019716  0.49980284  0.00061719
   0.00019716  0.49980284  0.49938281
   0.49980284  0.00019716  0.00061719
   0.49980284  0.00019716  0.49938281
   0.49980284  0.49980284  0.00061719
   0.49980284  0.49980284  0.49938281
   0.25000000  0.25000000  0.25000000
   0.25000000  0.25000000  0.75000000
   0.25000000  0.75000000  0.25000000
   0.25000000  0.75000000  0.75000000
   0.75000000  0.25000000  0.25000000
   0.75000000  0.25000000  0.75000000
   0.75000000  0.75000000  0.25000000
   0.75000000  0.75000000  0.75000000
 
 position of ions in cartesian coordinates  (Angst):
   0.00111300  0.00111300  0.00500542
   0.00111300  0.00111300  4.04998581
   0.00111300  2.82153003  0.00500542
   0.00111300  2.82153003  4.04998581
   2.82153003  0.00111300  0.00500542
   2.82153003  0.00111300  4.04998581
   2.82153003  2.82153003  0.00500542
   2.82153003  2.82153003  4.04998581
   1.41132152  1.41132152  2.02749562
   1.41132152  1.41132152  6.08248685
   1.41132152  4.23396455  2.02749562
   1.41132152  4.23396455  6.08248685
   4.23396455  1.41132152  2.02749562
   4.23396455  1.41132152  6.08248685
   4.23396455  4.23396455  2.02749562
   4.23396455  4.23396455  6.08248685
 


--------------------------------------------------------------------------------------------------------


 k-point     1 :   0.0000 0.0000 0.0000  plane waves:    6963
 k-point     2 :   0.1667 0.0000 0.0000  plane waves:    6973
 k-point     3 :   0.3333 0.0000 0.0000  plane waves:    6969
 k-point     4 :   0.5000 0.0000 0.0000  plane waves:    6948
 k-point     5 :   0.1667 0.1667 0.0000  plane waves:    6991
 k-point     6 :   0.3333 0.1667 0.0000  plane waves:    6958
 k-point     7 :   0.5000 0.1667 0.0000  plane waves:    6942
 k-point     8 :   0.3333 0.3333 0.0000  plane waves:    6937
 k-point     9 :   0.5000 0.3333 0.0000  plane waves:    6934
 k-point    10 :   0.5000 0.5000 0.0000  plane waves:    6892
 k-point    11 :   0.0000 0.0000 0.2500  plane waves:    6974
 k-point    12 :   0.1667 0.0000 0.2500  plane waves:    6984
 k-point    13 :   0.3333 0.0000 0.2500  plane waves:    6948
 k-point    14 :   0.5000 0.0000 0.2500  plane waves:    6952
 k-point    15 :   0.1667 0.1667 0.2500  plane waves:    6973
 k-point    16 :   0.3333 0.1667 0.2500  plane waves:    6956
 k-point    17 :   0.5000 0.1667 0.2500  plane waves:    6960
 k-point    18 :   0.3333 0.3333 0.2500  plane waves:    6968
 k-point    19 :   0.5000 0.3333 0.2500  plane waves:    6940
 k-point    20 :   0.5000 0.5000 0.2500  plane waves:    6936
 k-point    21 :   0.0000 0.0000 0.5000  plane waves:    7014
 k-point    22 :   0.1667 0.0000 0.5000  plane waves:    6960
 k-point    23 :   0.3333 0.0000 0.5000  plane waves:    6966
 k-point    24 :   0.5000 0.0000 0.5000  plane waves:    6968
 k-point    25 :   0.1667 0.1667 0.5000  plane waves:    6964
 k-point    26 :   0.3333 0.1667 0.5000  plane waves:    6950
 k-point    27 :   0.5000 0.1667 0.5000  plane waves:    6952
 k-point    28 :   0.3333 0.3333 0.5000  plane waves:    6974
 k-point    29 :   0.5000 0.3333 0.5000  plane waves:    6968
 k-point    30 :   0.5000 0.5000 0.5000  plane waves:    6912

 maximum and minimum number of plane-waves per node :      7014     6892

 maximum number of plane-waves:      7014
 maximum index in each direction: 
   IXMAX=   10   IYMAX=   10   IZMAX=   15
   IXMIN=  -10   IYMIN=  -10   IZMIN=  -15


 serial   3D FFT for wavefunctions
 parallel 3D FFT for charge:
    minimum data exchange during FFTs selected (reduces bandwidth)


 total amount of memory used by VASP MPI-rank0   133107. kBytes
=======================================================================

   base                                    :      30000. kBytes
   nonl-proj                               :      93040. kBytes
   fftplans                                :        434. kBytes
   grid                                    :       2381. kBytes
   one-center                              :        248. kBytes
   wavefun                                 :       7004. kBytes
 
     INWAV:  cpu time      0.0000: real time      0.0000
 Broyden mixing: mesh for mixing (old mesh)
   NGX = 21   NGY = 21   NGZ = 31
  (NGX  = 64   NGY  = 64   NGZ  = 96)
  gives a total of  13671 points

 initial charge density was supplied:
 charge density of overlapping atoms calculated
 number of electron     130.0000000 magnetization 
 keeping initial charge density in first step


--------------------------------------------------------------------------------------------------------


 Maximum index for augmentation-charges          454 (set IRDMAX)


--------------------------------------------------------------------------------------------------------


 First call to EWALD:  gamma=   0.278
 Maximum number of real-space cells   3x   3x   2
 Maximum number of reciprocal cells   3x   3x   3

    FEWALD:  cpu time      0.0011: real time      0.0011


--------------------------------------- Ionic step        1  -------------------------------------------




--------------------------------------- Iteration      1(   1)  ---------------------------------------


    POTLOK:  cpu time      0.0086: real time      0.0086
    SETDIJ:  cpu time      0.0024: real time      0.0024
     EDDAV:  cpu time      3.8279: real time      3.8281
       DOS:  cpu time      0.0006: real time      0.0006
    --------------------------------------------
      LOOP:  cpu time      3.8395: real time      3.8397

 eigenvalue-minimisations  :  7680
 total energy-change (2. order) : 0.9689267E+03  (-0.6333637E+04)
 number of electron     130.0000000 magnetization 
 augmentation part      130.0000000 magnetization 

 Free energy of the ion-electron system (eV)
  ---------------------------------------------------
  alpha Z        PSCENC =       381.68433306
  Ewald energy   TEWEN  =     -9869.40651717
  -Hartree energ DENC   =     -4782.87171197
  -exchange      EXHF   =         0.00000000
  -V(xc)+E(xc)   XCENC  =       358.12270575
  PAW double counting   =     12183.07835080   -12136.27052386
  entropy T*S    EENTRO =         0.00175005
  eigenvalues    EBANDS =      -393.68794771
  atomic energy  EATOM  =     15228.27630495
  Solvation  Ediel_sol  =         0.00000000
  ---------------------------------------------------
  free energy    TOTEN  =       968.92674390 eV

  energy without entropy =      968.92499384  energy(sigma->0) =      968.92616055


--------------------------------------------------------------------------------------------------------




--------------------------------------- Iteration      1(   2)  ---------------------------------------


     EDDAV:  cpu time      3.8735: real time      3.8737
       DOS:  cpu time      0.0006: real time      0.0006
    --------------------------------------------
      LOOP:  cpu time      3.8741: real time      3.8743

 eigenvalue-minimisations  :  7808
 total energy-change (2. order) :-0.9986061E+03  (-0.9583462E+03)
 number of electron     130.0000000 magnetization 
 augmentation part      130.0000000 magnetization 

 Free energy of the ion-electron system (eV)
  ---------------------------------------------------
  alpha Z        PSCENC =       381.68433306
  Ewald energy   TEWEN  =     -9869.40651717
  -Hartree energ DENC   =     -4782.87171197
  -exchange      EXHF   =         0.00000000
  -V(xc)+E(xc)   XCENC  =       358.12270575
  PAW double counting   =     12183.07835080   -12136.27052386
  entropy T*S    EENTRO =         0.00372953
  eigenvalues    EBANDS =     -1392.29602490
  atomic energy  EATOM  =     15228.27630495
  Solvation  Ediel_sol  =         0.00000000
  ---------------------------------------------------
  free energy    TOTEN  =       -29.67935381 eV

  energy without entropy =      -29.68308335  energy(sigma->0) =      -29.68059699


--------------------------------------------------------------------------------------------------------




--------------------------------------- Iteration      1(   3)  ---------------------------------------


     EDDAV:  cpu time     11.4898: real time     11.4902
       DOS:  cpu time      0.0006: real time      0.0006
    --------------------------------------------
      LOOP:  cpu time     11.4903: real time     11.4907

 eigenvalue-minimisations  : 15360
 total energy-change (2. order) :-0.7905908E+02  (-0.7713641E+02)
 number of electron     130.0000000 magnetization 
 augmentation part      130.0000000 magnetization 

 Free energy of the ion-electron system (eV)
  ---------------------------------------------------
  alpha Z        PSCENC =       381.68433306
  Ewald energy   TEWEN  =     -9869.40651717
  -Hartree energ DENC   =     -4782.87171197
  -exchange      EXHF   =         0.00000000
  -V(xc)+E(xc)   XCENC  =       358.12270575
  PAW double counting   =     12183.07835080   -12136.27052386
  entropy T*S    EENTRO =        -0.00833357
  eigenvalues    EBANDS =     -1471.34303706
  atomic energy  EATOM  =     15228.27630495
  Solvation  Ediel_sol  =         0.00000000
  ---------------------------------------------------
  free energy    TOTEN  =      -108.73842908 eV

  energy without entropy =     -108.73009551  energy(sigma->0) =     -108.73565122


--------------------------------------------------------------------------------------------------------




--------------------------------------- Iteration      1(   4)  ---------------------------------------


     EDDAV:  cpu time      3.7602: real time      3.7605
       DOS:  cpu time      0.0006: real time      0.0006
    --------------------------------------------
      LOOP:  cpu time      3.7608: real time      3.7611

 eigenvalue-minimisations  :  7680
 total energy-change (2. order) :-0.2191217E+01  (-0.2190835E+01)
 number of electron     130.0000000 magnetization 
 augmentation part      130.0000000 magnetization 

 Free energy of the ion-electron system (eV)
  ---------------------------------------------------
  alpha Z        PSCENC =       381.68433306
  Ewald energy   TEWEN  =     -9869.40651717
  -Hartree energ DENC   =     -4782.87171197
  -exchange      EXHF   =         0.00000000
  -V(xc)+E(xc)   XCENC  =       358.12270575
  PAW double counting   =     12183.07835080   -12136.27052386
  entropy T*S    EENTRO =        -0.00780897
  eigenvalues    EBANDS =     -1473.53477850
  atomic energy  EATOM  =     15228.27630495
  Solvation  Ediel_sol  =         0.00000000
  ---------------------------------------------------
  free energy    TOTEN  =      -110.92964592 eV

  energy without entropy =     -110.92183695  energy(sigma->0) =     -110.92704293


--------------------------------------------------------------------------------------------------------




--------------------------------------- Iteration      1(   5)  ---------------------------------------


     EDDAV:  cpu time      8.3402: real time      8.3407
       DOS:  cpu time      0.0010: real time      0.0010
    CHARGE:  cpu time      0.0376: real time      0.0376
    MIXING:  cpu time      0.0006: real time      0.0006
    --------------------------------------------
      LOOP:  cpu time      8.3794: real time      8.3799

 eigenvalue-minimisations  : 12480
 total energy-change (2. order) :-0.5720910E-01  (-0.5720827E-01)
 number of electron     129.9999777 magnetization 
 augmentation part       35.3662735 magnetization 

 Broyden mixing:
  rms(total) = 0.27212E+01    rms(broyden)= 0.27211E+01
  rms(prec ) = 0.37181E+01
  weight for this iteration     100.00

 Free energy of the ion-electron system (eV)
  ---------------------------------------------------
  alpha Z        PSCENC =       381.68433306
  Ewald energy   TEWEN  =     -9869.40651717
  -Hartree energ DENC   =     -4782.87171197
  -exchange      EXHF   =         0.00000000
  -V(xc)+E(xc)   XCENC  =       358.12270575
  PAW double counting   =     12183.07835080   -12136.27052386
  entropy T*S    EENTRO =        -0.00781274
  eigenvalues    EBANDS =     -1473.59198383
  atomic energy  EATOM  =     15228.27630495
  Solvation  Ediel_sol  =         0.00000000
  ---------------------------------------------------
  free energy    TOTEN  =      -110.98685501 eV

  energy without entropy =     -110.97904227  energy(sigma->0) =     -110.98425077


--------------------------------------------------------------------------------------------------------




--------------------------------------- Iteration      1(   6)  ---------------------------------------


    POTLOK:  cpu time      0.0096: real time      0.0096
    SETDIJ:  cpu time      0.0017: real time      0.0017
     EDDAV:  cpu time      6.0619: real time      6.0621
       DOS:  cpu time      0.0005: real time      0.0005
    CHARGE:  cpu time      0.0342: real time      0.0342
    MIXING:  cpu time      0.0003: real time      0.0003
    --------------------------------------------
      LOOP:  cpu time      6.1082: real time      6.1085

 eigenvalue-minimisations  : 10240
 total energy-change (2. order) : 0.1127867E+02  (-0.3323633E+01)
 number of electron     129.9999731 magnetization 
 augmentation part       39.4127199 magnetization 

 Broyden mixing:
  rms(total) = 0.92409E+00    rms(broyden)= 0.92403E+00
  rms(prec ) = 0.13816E+01
  weight for this iteration     100.00

 eigenvalues of (default mixing * dielectric matrix)
  average eigenvalue GAMMA=   0.8555
  0.8555

 Free energy of the ion-electron system (eV)
  ---------------------------------------------------
  alpha Z        PSCENC =       381.68433306
  Ewald energy   TEWEN  =     -9869.40651717
  -Hartree energ DENC   =     -4496.87325005
  -exchange      EXHF   =         0.00000000
  -V(xc)+E(xc)   XCENC  =       346.74278069
  PAW double counting   =     13164.78516595   -13119.20301377
  entropy T*S    EENTRO =        -0.01216526
  eigenvalues    EBANDS =     -1735.70181858
  atomic energy  EATOM  =     15228.27630495
  Solvation  Ediel_sol  =         0.00000000
  ---------------------------------------------------
  free energy    TOTEN  =       -99.70818018 eV

  energy without entropy =      -99.69601492  energy(sigma->0) =      -99.70412509


--------------------------------------------------------------------------------------------------------




--------------------------------------- Iteration      1(   7)  ---------------------------------------


    POTLOK:  cpu time      0.0064: real time      0.0064
    SETDIJ:  cpu time      0.0017: real time      0.0017
     EDDAV:  cpu time      4.6407: real time      4.6409
       DOS:  cpu time      0.0006: real time      0.0006
    CHARGE:  cpu time      0.0342: real time      0.0342
    MIXING:  cpu time      0.0003: real time      0.0003
    --------------------------------------------
      LOOP:  cpu time      4.6839: real time      4.6841

 eigenvalue-minimisations  :  8832
 total energy-change (2. order) : 0.1138033E+01  (-0.4342277E+00)
 number of electron     129.9999748 magnetization 
 augmentation part       37.8915676 magnetization 

 Broyden mixing:
  rms(total) = 0.54457E+00    rms(broyden)= 0.54456E+00
  rms(prec ) = 0.64244E+00
  weight for this iteration     100.00

 eigenvalues of (default mixing * dielectric matrix)
  average eigenvalue GAMMA=   1.6147
  0.7330  2.4964

 Free energy of the ion-electron system (eV)
  ---------------------------------------------------
  alpha Z        PSCENC =       381.68433306
  Ewald energy   TEWEN  =     -9869.40651717
  -Hartree energ DENC   =     -4562.56813437
  -exchange      EXHF   =         0.00000000
  -V(xc)+E(xc)   XCENC  =       349.32578522
  PAW double counting   =     13724.51117912   -13670.61279450
  entropy T*S    EENTRO =         0.00282456
  eigenvalues    EBANDS =     -1679.78312822
  atomic energy  EATOM  =     15228.27630495
  Solvation  Ediel_sol  =         0.00000000
  ---------------------------------------------------
  free energy    TOTEN  =       -98.57014736 eV

  energy without entropy =      -98.57297191  energy(sigma->0) =      -98.57108888


--------------------------------------------------------------------------------------------------------




--------------------------------------- Iteration      1(   8)  ---------------------------------------


    POTLOK:  cpu time      0.0072: real time      0.0072
    SETDIJ:  cpu time      0.0017: real time      0.0017
     EDDAV:  cpu time      6.2220: real time      6.2225
       DOS:  cpu time      0.0005: real time      0.0005
    CHARGE:  cpu time      0.0346: real time      0.0346
    MIXING:  cpu time      0.0003: real time      0.0003
    --------------------------------------------
      LOOP:  cpu time      6.2663: real time      6.2668

 eigenvalue-minimisations  : 10368
 total energy-change (2. order) : 0.9628115E-01  (-0.9246463E-01)
 number of electron     129.9999748 magnetization 
 augmentation part       38.2904737 magnetization 

 Broyden mixing:
  rms(total) = 0.20748E+00    rms(broyden)= 0.20748E+00
  rms(prec ) = 0.27259E+00
  weight for this iteration     100.00

 eigenvalues of (default mixing * dielectric matrix)
  average eigenvalue GAMMA=   1.3925
  0.6875  1.7450  1.7450

 Free energy of the ion-electron system (eV)
  ---------------------------------------------------
  alpha Z        PSCENC =       381.68433306
  Ewald energy   TEWEN  =     -9869.40651717
  -Hartree energ DENC   =     -4536.02131462
  -exchange      EXHF   =         0.00000000
  -V(xc)+E(xc)   XCENC  =       348.43938311
  PAW double counting   =     14981.76462665   -14916.14183819
  entropy T*S    EENTRO =         0.00374652
  eigenvalues    EBANDS =     -1717.07259051
  atomic energy  EATOM  =     15228.27630495
  Solvation  Ediel_sol  =         0.00000000
  ---------------------------------------------------
  free energy    TOTEN  =       -98.47386620 eV

  energy without entropy =      -98.47761272  energy(sigma->0) =      -98.47511504


--------------------------------------------------------------------------------------------------------




--------------------------------------- Iteration      1(   9)  ---------------------------------------


    POTLOK:  cpu time      0.0063: real time      0.0063
    SETDIJ:  cpu time      0.0016: real time      0.0016
     EDDAV:  cpu time      5.4313: real time      5.4319
       DOS:  cpu time      0.0005: real time      0.0005
    CHARGE:  cpu time      0.0341: real time      0.0341
    MIXING:  cpu time      0.0003: real time      0.0003
    --------------------------------------------
      LOOP:  cpu time      5.4742: real time      5.4747

 eigenvalue-minimisations  :  9664
 total energy-change (2. order) : 0.4427648E-01  (-0.1966692E-01)
 number of electron     129.9999750 magnetization 
 augmentation part       37.8921768 magnetization 

 Broyden mixing:
  rms(total) = 0.70791E-01    rms(broyden)= 0.70784E-01
  rms(prec ) = 0.86215E-01
  weight for this iteration     100.00

 eigenvalues of (default mixing * dielectric matrix)
  average eigenvalue GAMMA=   1.5261
  2.3775  2.1676  0.6677  0.8914

 Free energy of the ion-electron system (eV)
  ---------------------------------------------------
  alpha Z        PSCENC =       381.68433306
  Ewald energy   TEWEN  =     -9869.40651717
  -Hartree energ DENC   =     -4554.71393891
  -exchange      EXHF   =         0.00000000
  -V(xc)+E(xc)   XCENC  =       349.29763881
  PAW double counting   =     14833.94851373   -14767.43913362
  entropy T*S    EENTRO =         0.00253094
  eigenvalues    EBANDS =     -1700.07932150
  atomic energy  EATOM  =     15228.27630495
  Solvation  Ediel_sol  =         0.00000000
  ---------------------------------------------------
  free energy    TOTEN  =       -98.42958972 eV

  energy without entropy =      -98.43212066  energy(sigma->0) =      -98.43043337


--------------------------------------------------------------------------------------------------------




--------------------------------------- Iteration      1(  10)  ---------------------------------------


    POTLOK:  cpu time      0.0065: real time      0.0065
    SETDIJ:  cpu time      0.0016: real time      0.0016
     EDDAV:  cpu time      6.1916: real time      6.1918
       DOS:  cpu time      0.0009: real time      0.0009
    CHARGE:  cpu time      0.0347: real time      0.0347
    MIXING:  cpu time      0.0004: real time      0.0004
    --------------------------------------------
      LOOP:  cpu time      6.2357: real time      6.2359

 eigenvalue-minimisations  : 10368
 total energy-change (2. order) :-0.1373637E-02  (-0.1094313E-02)
 number of electron     129.9999749 magnetization 
 augmentation part       37.8965122 magnetization 

 Broyden mixing:
  rms(total) = 0.17748E-01    rms(broyden)= 0.17743E-01
  rms(prec ) = 0.21092E-01
  weight for this iteration     100.00

 eigenvalues of (default mixing * dielectric matrix)
  average eigenvalue GAMMA=   1.5052
  2.6060  0.6760  1.7660  1.5016  0.9765

 Free energy of the ion-electron system (eV)
  ---------------------------------------------------
  alpha Z        PSCENC =       381.68433306
  Ewald energy   TEWEN  =     -9869.40651717
  -Hartree energ DENC   =     -4555.86689776
  -exchange      EXHF   =         0.00000000
  -V(xc)+E(xc)   XCENC  =       349.46148792
  PAW double counting   =     14910.79265984   -14840.52965033
  entropy T*S    EENTRO =         0.00323747
  eigenvalues    EBANDS =     -1702.84592134
  atomic energy  EATOM  =     15228.27630495
  Solvation  Ediel_sol  =         0.00000000
  ---------------------------------------------------
  free energy    TOTEN  =       -98.43096336 eV

  energy without entropy =      -98.43420083  energy(sigma->0) =      -98.43204252


--------------------------------------------------------------------------------------------------------




--------------------------------------- Iteration      1(  11)  ---------------------------------------


    POTLOK:  cpu time      0.0071: real time      0.0071
    SETDIJ:  cpu time      0.0017: real time      0.0017
     EDDAV:  cpu time      7.1472: real time      7.1474
       DOS:  cpu time      0.0006: real time      0.0006
    CHARGE:  cpu time      0.0343: real time      0.0343
    MIXING:  cpu time      0.0004: real time      0.0004
    --------------------------------------------
      LOOP:  cpu time      7.1913: real time      7.1915

 eigenvalue-minimisations  : 11328
 total energy-change (2. order) : 0.2642743E-03  (-0.2702513E-03)
 number of electron     129.9999749 magnetization 
 augmentation part       37.9086249 magnetization 

 Broyden mixing:
  rms(total) = 0.13506E-01    rms(broyden)= 0.13505E-01
  rms(prec ) = 0.15636E-01
  weight for this iteration     100.00

 eigenvalues of (default mixing * dielectric matrix)
  average eigenvalue GAMMA=   1.5512
  2.8568  2.4143  1.5426  1.0520  0.6775  0.7640

 Free energy of the ion-electron system (eV)
  ---------------------------------------------------
  alpha Z        PSCENC =       381.68433306
  Ewald energy   TEWEN  =     -9869.40651717
  -Hartree energ DENC   =     -4554.97563315
  -exchange      EXHF   =         0.00000000
  -V(xc)+E(xc)   XCENC  =       349.42544958
  PAW double counting   =     14906.71648961   -14835.57558401
  entropy T*S    EENTRO =         0.00333079
  eigenvalues    EBANDS =     -1704.57887274
  atomic energy  EATOM  =     15228.27630495
  Solvation  Ediel_sol  =         0.00000000
  ---------------------------------------------------
  free energy    TOTEN  =       -98.43069909 eV

  energy without entropy =      -98.43402988  energy(sigma->0) =      -98.43180935


--------------------------------------------------------------------------------------------------------




--------------------------------------- Iteration      1(  12)  ---------------------------------------


    POTLOK:  cpu time      0.0070: real time      0.0070
    SETDIJ:  cpu time      0.0016: real time      0.0016
     EDDAV:  cpu time      4.8820: real time      4.8822
       DOS:  cpu time      0.0006: real time      0.0006
    CHARGE:  cpu time      0.0339: real time      0.0339
    MIXING:  cpu time      0.0004: real time      0.0004
    --------------------------------------------
      LOOP:  cpu time      4.9255: real time      4.9258

 eigenvalue-minimisations  :  8832
 total energy-change (2. order) :-0.1232229E-04  (-0.2235798E-04)
 number of electron     129.9999750 magnetization 
 augmentation part       37.8984632 magnetization 

 Broyden mixing:
  rms(total) = 0.28977E-02    rms(broyden)= 0.28966E-02
  rms(prec ) = 0.31309E-02
  weight for this iteration     100.00

 eigenvalues of (default mixing * dielectric matrix)
  average eigenvalue GAMMA=   1.5391
  2.8836  2.3517  1.7658  0.6773  1.1023  1.1023  0.8910

 Free energy of the ion-electron system (eV)
  ---------------------------------------------------
  alpha Z        PSCENC =       381.68433306
  Ewald energy   TEWEN  =     -9869.40651717
  -Hartree energ DENC   =     -4556.17482943
  -exchange      EXHF   =         0.00000000
  -V(xc)+E(xc)   XCENC  =       349.48369142
  PAW double counting   =     14890.17911419   -14818.13543423
  entropy T*S    EENTRO =         0.00326935
  eigenvalues    EBANDS =     -1704.34064356
  atomic energy  EATOM  =     15228.27630495
  Solvation  Ediel_sol  =         0.00000000
  ---------------------------------------------------
  free energy    TOTEN  =       -98.43071141 eV

  energy without entropy =      -98.43398076  energy(sigma->0) =      -98.43180119


--------------------------------------------------------------------------------------------------------




--------------------------------------- Iteration      1(  13)  ---------------------------------------


    POTLOK:  cpu time      0.0071: real time      0.0071
    SETDIJ:  cpu time      0.0017: real time      0.0017
     EDDAV:  cpu time      6.3059: real time      6.3063
       DOS:  cpu time      0.0006: real time      0.0006
    --------------------------------------------
      LOOP:  cpu time      6.3152: real time      6.3156

 eigenvalue-minimisations  :  9600
 total energy-change (2. order) : 0.6199167E-05  (-0.8650345E-06)
 number of electron     129.9999750 magnetization 
 augmentation part       37.8984632 magnetization 

 Free energy of the ion-electron system (eV)
  ---------------------------------------------------
  alpha Z        PSCENC =       381.68433306
  Ewald energy   TEWEN  =     -9869.40651717
  -Hartree energ DENC   =     -4556.25806973
  -exchange      EXHF   =         0.00000000
  -V(xc)+E(xc)   XCENC  =       349.48559990
  PAW double counting   =     14887.45760662   -14815.30433378
  entropy T*S    EENTRO =         0.00325982
  eigenvalues    EBANDS =     -1704.36888887
  atomic energy  EATOM  =     15228.27630495
  Solvation  Ediel_sol  =         0.00000000
  ---------------------------------------------------
  free energy    TOTEN  =       -98.43070521 eV

  energy without entropy =      -98.43396503  energy(sigma->0) =      -98.43179182


--------------------------------------------------------------------------------------------------------




 average (electrostatic) potential at core
  the test charge radii are     1.0397  1.0314  1.0406
  (the norm of the test charge is              1.0000)
       1 -72.3268       2 -72.3268       3 -72.3268       4 -72.3268       5 -72.3268
       6 -72.3268       7 -72.3268       8 -72.3268       9 -61.6145      10 -71.3204
      11 -71.4150      12 -71.3236      13 -71.4150      14 -71.3236      15 -71.3099
      16 -71.3374
 
 
 
 E-fermi :   8.2970     XC(G=0): -11.1518     alpha+bet :-16.1915

 val. band max:        8.2887365852   @ k =   0.5000   0.5000   0.5000
 cond. band min:       8.3148579297   @ k =   0.5000   0.3333   0.2500
 fundamental gap:      0.0261213444
 Fermi energy:         8.2969575243

 k-point     1 :       0.0000    0.0000    0.0000
  band No.  band energies     occupation 
      1     -48.3374      2.00000
      2     -48.3368      2.00000
      3     -48.2793      2.00000
      4     -48.2793      2.00000
      5     -48.2788      2.00000
      6     -48.2788      2.00000
      7     -48.2233      2.00000
      8     -48.2228      2.00000
      9     -24.7704      2.00000
     10     -24.7668      2.00000
     11     -24.7581      2.00000
     12     -24.7554      2.00000
     13     -24.7533      2.00000
     14     -24.7363      2.00000
     15     -24.6979      2.00000
     16     -24.6979      2.00000
     17     -24.6952      2.00000
     18     -24.6952      2.00000
     19     -24.6901      2.00000
     20     -24.6901      2.00000
     21     -24.6787      2.00000
     22     -24.6787      2.00000
     23     -24.6370      2.00000
     24     -24.6261      2.00000
     25     -24.2878      2.00000
     26     -24.2878      2.00000
     27     -24.2872      2.00000
     28     -24.2872      2.00000
     29     -24.2514      2.00000
     30     -24.2507      2.00000
     31     -24.2405      2.00000
     32     -24.2399      2.00000
     33      -6.1308      2.00000
     34      -6.1153      2.00000
     35      -6.0929      2.00000
     36      -6.0929      2.00000
     37      -6.0605      2.00000
     38      -0.9049      2.00000
     39       0.5714      2.00000
     40       2.9181      2.00000
     41       3.0206      2.00000
     42       3.4289      2.00000
     43       3.6084      2.00000
     44       3.7458      2.00000
     45       3.7458      2.00000
     46       3.7833      2.00000
     47       5.0662      2.00000
     48       5.3470      2.00000
     49       5.3470      2.00000
     50       5.7677      2.00000
     51       6.0064      2.00000
     52       6.0064      2.00000
     53       6.4767      2.00000
     54       6.5805      2.00000
     55       6.6022      2.00000
     56       7.1165      2.00000
     57       7.1469      2.00000
     58       7.1474      2.00000
     59       7.1474      2.00000
     60       7.4718      2.00000
     61       7.6263      2.00000
     62       7.8007      2.00000
     63       7.8007      2.00000
     64       7.9553      2.00002
     65       7.9811      2.00007
     66       8.0452      2.00214
     67       8.0452      2.00214
     68       8.1435      2.05219
     69       8.1435      2.05219
     70       8.9463     -0.00000
     71       9.7091     -0.00000
     72       9.7091     -0.00000
     73       9.7813     -0.00000
     74      10.0245     -0.00000
     75      10.0245     -0.00000
     76      10.0841     -0.00000
     77      10.0841     -0.00000
     78      10.0918     -0.00000
     79      10.0918     -0.00000
     80      10.4270      0.00000
     81      10.4627      0.00000
     82      10.4627      0.00000
     83      10.5762      0.00000
     84      10.5952      0.00000
     85      10.8020      0.00000
     86      10.8038      0.00000
     87      11.2225      0.00000
     88      11.5901      0.00000
     89      11.6009      0.00000
     90      11.9766      0.00000
     91      12.1419      0.00000
     92      12.4968      0.00000
     93      12.4991      0.00000
     94      12.5904      0.00000
     95      12.5904      0.00000
     96      12.6215      0.00000
     97      12.6215      0.00000
     98      13.0778      0.00000
     99      13.3203      0.00000
    100      13.3203      0.00000
    101      13.6278      0.00000
    102      13.6278      0.00000
    103      13.7079      0.00000
    104      13.7810      0.00000
    105      14.0561      0.00000
    106      14.0561      0.00000
    107      14.2648      0.00000
    108      14.5453      0.00000
    109      14.7441      0.00000
    110      16.2540      0.00000
    111      16.3123      0.00000
    112      16.4803      0.00000
    113      16.5727      0.00000
    114      16.6258      0.00000
    115      16.6258      0.00000
    116      17.8279      0.00000
    117      17.9512      0.00000
    118      18.6678      0.00000
    119      18.6678      0.00000
    120      19.0171      0.00000
    121      19.0171      0.00000
    122      19.4093      0.00000
    123      19.4093      0.00000
    124      19.9658      0.00000
    125      20.5196      0.00000
    126      20.5196      0.00000
    127      20.6872      0.00000
    128      20.6872      0.00000

 k-point     2 :       0.1667    0.0000    0.0000
  band No.  band energies     occupation 
      1     -48.3336      2.00000
      2     -48.3329      2.00000
      3     -48.2832      2.00000
      4     -48.2827      2.00000
      5     -48.2755      2.00000
      6     -48.2751      2.00000
      7     -48.2271      2.00000
      8     -48.2266      2.00000
      9     -24.7616      2.00000
     10     -24.7579      2.00000
     11     -24.7496      2.00000
     12     -24.7340      2.00000
     13     -24.7310      2.00000
     14     -24.7273      2.00000
     15     -24.7024      2.00000
     16     -24.6997      2.00000
     17     -24.6944      2.00000
     18     -24.6891      2.00000
     19     -24.6826      2.00000
     20     -24.6770      2.00000
     21     -24.6658      2.00000
     22     -24.6640      2.00000
     23     -24.6407      2.00000
     24     -24.6297      2.00000
     25     -24.3205      2.00000
     26     -24.3198      2.00000
     27     -24.2850      2.00000
     28     -24.2844      2.00000
     29     -24.2778      2.00000
     30     -24.2771      2.00000
     31     -24.2477      2.00000
     32     -24.2471      2.00000
     33      -6.1301      2.00000
     34      -6.1154      2.00000
     35      -6.0931      2.00000
     36      -6.0929      2.00000
     37      -6.0602      2.00000
     38      -0.7704      2.00000
     39       0.6674      2.00000
     40       2.3036      2.00000
     41       2.8251      2.00000
     42       3.1742      2.00000
     43       3.3952      2.00000
     44       3.7422      2.00000
     45       3.8825      2.00000
     46       4.9304      2.00000
     47       5.1179      2.00000
     48       5.3964      2.00000
     49       5.6609      2.00000
     50       5.8435      2.00000
     51       5.8847      2.00000
     52       5.9741      2.00000
     53       6.1873      2.00000
     54       6.5870      2.00000
     55       6.6572      2.00000
     56       6.6794      2.00000
     57       6.7871      2.00000
     58       7.0160      2.00000
     59       7.3568      2.00000
     60       7.5225      2.00000
     61       7.7006      2.00000
     62       7.8237      2.00000
     63       7.8490      2.00000
     64       7.8831      2.00000
     65       7.9457      2.00001
     66       8.0062      2.00031
     67       8.1967      2.05086
     68       8.2562      1.63047
     69       8.9018     -0.00000
     70       8.9997     -0.00000
     71       9.6926     -0.00000
     72       9.7532     -0.00000
     73       9.7604     -0.00000
     74       9.8126     -0.00000
     75      10.1087     -0.00000
     76      10.1168     -0.00000
     77      10.1753     -0.00000
     78      10.2277     -0.00000
     79      10.2541     -0.00000
     80      10.3697      0.00000
     81      10.4469      0.00000
     82      10.4942      0.00000
     83      10.5297      0.00000
     84      10.5527      0.00000
     85      10.6207      0.00000
     86      10.7791      0.00000
     87      10.9450      0.00000
     88      11.4108      0.00000
     89      11.4551      0.00000
     90      11.4791      0.00000
     91      12.0257      0.00000
     92      12.2337      0.00000
     93      12.2688      0.00000
     94      12.3219      0.00000
     95      12.3488      0.00000
     96      12.5962      0.00000
     97      13.2031      0.00000
     98      13.3398      0.00000
     99      13.3763      0.00000
    100      13.4320      0.00000
    101      13.9276      0.00000
    102      13.9520      0.00000
    103      13.9929      0.00000
    104      14.0975      0.00000
    105      14.1830      0.00000
    106      14.2536      0.00000
    107      14.4706      0.00000
    108      14.5177      0.00000
    109      14.8552      0.00000
    110      15.0980      0.00000
    111      15.9040      0.00000
    112      16.2036      0.00000
    113      16.8066      0.00000
    114      16.9063      0.00000
    115      17.0140      0.00000
    116      17.8956      0.00000
    117      18.1518      0.00000
    118      18.6093      0.00000
    119      18.8248      0.00000
    120      18.8894      0.00000
    121      19.0680      0.00000
    122      19.2535      0.00000
    123      19.2781      0.00000
    124      19.4750      0.00000
    125      19.5842      0.00000
    126      19.9195      0.00000
    127      20.0580      0.00000
    128      20.0756      0.00000

 k-point     3 :       0.3333    0.0000    0.0000
  band No.  band energies     occupation 
      1     -48.3230      2.00000
      2     -48.3224      2.00000
      3     -48.2939      2.00000
      4     -48.2934      2.00000
      5     -48.2654      2.00000
      6     -48.2649      2.00000
      7     -48.2374      2.00000
      8     -48.2369      2.00000
      9     -24.7484      2.00000
     10     -24.7451      2.00000
     11     -24.7379      2.00000
     12     -24.7223      2.00000
     13     -24.7147      2.00000
     14     -24.7118      2.00000
     15     -24.7061      2.00000
     16     -24.6933      2.00000
     17     -24.6786      2.00000
     18     -24.6664      2.00000
     19     -24.6509      2.00000
     20     -24.6467      2.00000
     21     -24.6444      2.00000
     22     -24.6395      2.00000
     23     -24.5854      2.00000
     24     -24.5842      2.00000
     25     -24.4092      2.00000
     26     -24.4081      2.00000
     27     -24.3608      2.00000
     28     -24.3600      2.00000
[...]
     39       1.3808      2.00000
     40       1.4118      2.00000
     41       1.4157      2.00000
     42       2.4143      2.00000
     43       2.7352      2.00000
     44       2.7592      2.00000
     45       2.7607      2.00000
     46       5.8637      2.00000
     47       5.9087      2.00000
     48       5.9180      2.00000
     49       5.9281      2.00000
     50       6.4407      2.00000
     51       6.4737      2.00000
     52       6.4856      2.00000
     53       6.4877      2.00000
     54       7.0803      2.00000
     55       7.1023      2.00000
     56       7.1216      2.00000
     57       7.1369      2.00000
     58       7.7272      2.00000
     59       7.7782      2.00000
     60       7.7839      2.00000
     61       7.8458      2.00000
     62       8.4050     -0.06313
     63       8.4058     -0.06407
     64       8.4121     -0.06909
     65       8.4264     -0.06956
     66       8.5289     -0.00500
     67       8.5307     -0.00463
     68       8.5410     -0.00301
     69       8.5645     -0.00102
     70       9.1255     -0.00000
     71       9.1340     -0.00000
     72       9.1416     -0.00000
     73       9.1612     -0.00000
     74       9.1782     -0.00000
     75       9.1876     -0.00000
     76       9.2222     -0.00000
     77       9.2597     -0.00000
     78       9.9888     -0.00000
     79       9.9890     -0.00000
     80      10.0051     -0.00000
     81      10.0409     -0.00000
     82      10.2188     -0.00000
     83      10.2305     -0.00000
     84      10.2348     -0.00000
     85      10.2381     -0.00000
     86      11.2829      0.00000
     87      11.3051      0.00000
     88      11.3130      0.00000
     89      11.3406      0.00000
     90      11.9869      0.00000
     91      12.0190      0.00000
     92      12.0366      0.00000
     93      12.0416      0.00000
     94      12.2060      0.00000
     95      12.4522      0.00000
     96      12.4557      0.00000
     97      12.4843      0.00000
     98      12.8908      0.00000
     99      12.9298      0.00000
    100      12.9457      0.00000
    101      13.0300      0.00000
    102      13.7348      0.00000
    103      14.0700      0.00000
    104      14.0953      0.00000
    105      14.1080      0.00000
    106      15.0910      0.00000
    107      15.2538      0.00000
    108      15.2567      0.00000
    109      15.3281      0.00000
    110      17.0564      0.00000
    111      17.0622      0.00000
    112      17.0650      0.00000
    113      17.1644      0.00000
    114      17.3024      0.00000
    115      17.3327      0.00000
    116      17.3407      0.00000
    117      17.3568      0.00000
    118      17.4215      0.00000
    119      17.4937      0.00000
    120      17.6174      0.00000
    121      17.9421      0.00000
    122      18.1392      0.00000
    123      18.1669      0.00000
    124      18.1982      0.00000
    125      18.4588      0.00000
    126      19.2624      0.00000
    127      19.2631      0.00000
    128      19.3813      0.00000

 k-point    30 :       0.5000    0.5000    0.5000
  band No.  band energies     occupation 
      1     -48.2804      2.00000
      2     -48.2803      2.00000
      3     -48.2798      2.00000
      4     -48.2798      2.00000
      5     -48.2798      2.00000
      6     -48.2798      2.00000
      7     -48.2792      2.00000
      8     -48.2792      2.00000
      9     -24.6885      2.00000
     10     -24.6878      2.00000
     11     -24.6878      2.00000
     12     -24.6878      2.00000
     13     -24.6874      2.00000
     14     -24.6874      2.00000
     15     -24.6873      2.00000
     16     -24.6870      2.00000
     17     -24.5153      2.00000
     18     -24.5152      2.00000
     19     -24.5112      2.00000
     20     -24.5110      2.00000
     21     -24.5032      2.00000
     22     -24.5032      2.00000
     23     -24.5031      2.00000
     24     -24.5031      2.00000
     25     -24.4983      2.00000
     26     -24.4983      2.00000
     27     -24.4983      2.00000
     28     -24.4983      2.00000
     29     -24.4904      2.00000
     30     -24.4904      2.00000
     31     -24.4862      2.00000
     32     -24.4862      2.00000
     33      -6.1253      2.00000
     34      -6.1164      2.00000
     35      -6.0931      2.00000
     36      -6.0931      2.00000
     37      -6.0580      2.00000
     38       1.0609      2.00000
     39       1.9336      2.00000
     40       1.9336      2.00000
     41       1.9849      2.00000
     42       1.9897      2.00000
     43       1.9903      2.00000
     44       1.9928      2.00000
     45       1.9928      2.00000
     46       6.1245      2.00000
     47       6.2226      2.00000
     48       6.2226      2.00000
     49       6.2269      2.00000
     50       6.2272      2.00000
     51       6.2347      2.00000
     52       6.2435      2.00000
     53       6.2435      2.00000
     54       7.8254      2.00000
     55       7.8254      2.00000
     56       7.8737      2.00000
     57       7.9027      2.00000
     58       7.9068      2.00000
     59       7.9068      2.00000
     60       7.9092      2.00000
     61       8.0831      2.00997
     62       8.2523      1.67898
     63       8.2523      1.67898
     64       8.2666      1.48864
     65       8.2887      1.13862
     66       8.3195      0.62897
     67       8.3195      0.62897
     68       8.3219      0.59145
     69       8.3613      0.12275
     70       9.0159     -0.00000
     71       9.0267     -0.00000
     72       9.0286     -0.00000
     73       9.0286     -0.00000
     74       9.0343     -0.00000
     75       9.0361     -0.00000
     76       9.1153     -0.00000
     77       9.1153     -0.00000
     78       9.9543     -0.00000
     79       9.9567     -0.00000
     80       9.9567     -0.00000
     81       9.9570     -0.00000
     82       9.9766     -0.00000
     83       9.9830     -0.00000
     84       9.9835     -0.00000
     85       9.9835     -0.00000
     86      11.6293      0.00000
     87      11.6616      0.00000
     88      11.6780      0.00000
     89      11.6780      0.00000
     90      11.6887      0.00000
     91      11.7279      0.00000
     92      11.7550      0.00000
     93      11.7550      0.00000
     94      12.8055      0.00000
     95      12.8055      0.00000
     96      12.8716      0.00000
     97      12.8735      0.00000
     98      12.8855      0.00000
     99      12.9123      0.00000
    100      12.9123      0.00000
    101      13.2004      0.00000
    102      13.2060      0.00000
    103      14.0768      0.00000
    104      14.0768      0.00000
    105      14.1080      0.00000
    106      14.1110      0.00000
    107      14.1146      0.00000
    108      14.1146      0.00000
    109      14.3114      0.00000
    110      17.3815      0.00000
    111      17.4945      0.00000
    112      17.4945      0.00000
    113      17.5081      0.00000
    114      17.5081      0.00000
    115      17.5166      0.00000
    116      17.6405      0.00000
    117      18.0408      0.00000
    118      18.6497      0.00000
    119      18.7002      0.00000
    120      18.7002      0.00000
    121      18.7079      0.00000
    122      18.7205      0.00000
    123      18.7483      0.00000
    124      18.7483      0.00000
    125      18.7934      0.00000
    126      18.7967      0.00000
    127      18.8029      0.00000
    128      18.8182      0.00000


--------------------------------------------------------------------------------------------------------


 soft charge-density along one line, spin component           1
         0         1         2         3         4         5         6         7         8         9
 total charge-density along one line
 
 pseudopotential strength for first ion, spin component:           1
 -3.763 -19.482  -0.001  -0.000  -0.001   0.001   0.001   0.001
-19.482   7.525  -0.001  -0.001  -0.001  -0.000  -0.000  -0.000
 -0.001  -0.001 -22.386  -0.002  -0.004   7.048   0.002   0.002
 -0.000  -0.001  -0.002 -22.499  -0.002   0.002   7.125   0.002
 -0.001  -0.001  -0.004  -0.002 -22.386   0.002   0.002   7.048
  0.001  -0.000   7.048   0.002   0.002   6.626  -0.001  -0.001
  0.001  -0.000   0.002   7.125   0.002  -0.001   6.595  -0.001
  0.001  -0.000   0.002   0.002   7.048  -0.001  -0.001   6.626
 -0.003  -0.001  -0.001   0.000  -0.001   0.000  -0.000   0.000
 -0.001  -0.001  -0.001  -0.000   0.000   0.000   0.000  -0.000
 -0.046  -0.013   0.001  -0.001   0.001  -0.001   0.001  -0.001
 -0.001  -0.001   0.000  -0.000  -0.001  -0.000   0.000   0.000
  0.000   0.000   0.001  -0.000  -0.001  -0.001   0.000   0.001
 -0.003  -0.001  -0.001   0.000  -0.001   0.000  -0.000   0.000
 -0.002  -0.001  -0.001  -0.000   0.000   0.000   0.000  -0.000
 -0.057  -0.015   0.001  -0.001   0.001  -0.001   0.001  -0.001
 -0.002  -0.001   0.000  -0.000  -0.001  -0.000   0.000   0.000
  0.000   0.000   0.001  -0.000  -0.001  -0.001   0.000   0.001
 total augmentation occupancy for first ion, spin component:           1
  1.995  -0.057   0.000   0.000   0.000   0.000   0.000   0.000  -0.001  -0.001  -0.020  -0.001   0.000   0.001   0.001   0.021
 -0.057   1.347   0.000   0.001   0.000  -0.003  -0.004  -0.003  -0.010  -0.022  -0.179  -0.022   0.000   0.005   0.009   0.029
  0.000   0.000   1.983   0.000   0.000  -0.035  -0.000  -0.000   0.000   0.001  -0.001  -0.001  -0.001  -0.000  -0.000   0.001
  0.000   0.001   0.000   1.984   0.000  -0.000  -0.036  -0.000  -0.001  -0.000   0.001  -0.000   0.000   0.001   0.000  -0.000
  0.000   0.000   0.000   0.000   1.983  -0.000  -0.000  -0.035   0.000  -0.001  -0.001   0.001   0.001  -0.000   0.001   0.001
  0.000  -0.003  -0.035  -0.000  -0.000   0.109  -0.001  -0.001  -0.002  -0.002   0.000  -0.003   0.001   0.000  -0.000  -0.001
  0.000  -0.004  -0.000  -0.036  -0.000  -0.001   0.100  -0.001  -0.001  -0.003  -0.001  -0.003  -0.000   0.000   0.001   0.000
  0.000  -0.003  -0.000  -0.000  -0.035  -0.001  -0.001   0.109  -0.002  -0.003   0.000  -0.002  -0.001   0.000   0.000  -0.001
 -0.001  -0.010   0.000  -0.001   0.000  -0.002  -0.001  -0.002   1.976  -0.007   0.016  -0.007   0.000  -1.029  -0.001  -0.010
 -0.001  -0.022   0.001  -0.000  -0.001  -0.002  -0.003  -0.003  -0.007   2.512   0.004  -0.003   0.016  -0.000  -1.234  -0.003
 -0.020  -0.179  -0.001   0.001  -0.001   0.000  -0.001   0.000   0.016   0.004   1.714   0.004   0.000  -0.010  -0.003  -0.758
 -0.001  -0.022  -0.001  -0.000   0.001  -0.003  -0.003  -0.002  -0.007  -0.003   0.004   2.512  -0.016  -0.000  -0.004  -0.003
  0.000   0.000  -0.001   0.000   0.001   0.001  -0.000  -0.001   0.000   0.016   0.000  -0.016   2.585  -0.000  -0.010   0.000
  0.001   0.005  -0.000   0.001  -0.000   0.000   0.000   0.000  -1.029  -0.000  -0.010  -0.000  -0.000   0.544   0.002   0.006
  0.001   0.009  -0.000   0.000   0.001  -0.000   0.001   0.000  -0.001  -1.234  -0.003  -0.004  -0.010   0.002   0.633   0.002
  0.021   0.029   0.001  -0.000   0.001  -0.001   0.000  -0.001  -0.010  -0.003  -0.758  -0.003   0.000   0.006   0.002   0.362
  0.001   0.009   0.001   0.000  -0.000   0.000   0.001  -0.000  -0.001  -0.004  -0.003  -1.234   0.010   0.002   0.005   0.002
  0.000   0.000   0.001   0.000  -0.001  -0.001  -0.000   0.001   0.000  -0.009   0.000   0.009  -0.971  -0.000   0.005   0.000


------------------------ aborting loop because EDIFF is reached ----------------------------------------


    CHARGE:  cpu time      0.0376: real time      0.0376
    FORLOC:  cpu time      0.0005: real time      0.0005
    FORNL :  cpu time      0.6085: real time      0.6086
    STRESS:  cpu time      2.0846: real time      2.0847
    FORCOR:  cpu time      0.0088: real time      0.0088
    FORHAR:  cpu time      0.0016: real time      0.0016
    MIXING:  cpu time      0.0003: real time      0.0003
    OFIELD:  cpu time      0.0000: real time      0.0000

  FORCE on cell =-STRESS in cart. coord.  units (eV):
  Direction    XX          YY          ZZ          XY          YZ          ZX
  --------------------------------------------------------------------------------------
  Alpha Z   381.68433   381.68433   381.68433
  Ewald   -2823.08816 -2823.08816 -4223.25302     0.00000     0.00000     0.00000
  Hartree  1931.62255  1931.62255   693.30019    -0.00000    -0.00000    -0.00000
  E(xc)    -646.54207  -646.54207  -648.18645     0.00000    -0.00000     0.00000
  Local    -923.01201  -923.01201  1754.04850    -0.00000    -0.00000    -0.00000
  n-local  -121.21850  -158.14851   -83.36934    -3.53610     0.68981     1.70278
  augment   618.34751   618.34751   595.49229    -0.00000    -0.00000     0.00000
  Kinetic  1581.10607  1620.27391  1530.28569     1.77224    -2.22181    -2.12702
  Fock        0.00000     0.00000     0.00000     0.00000     0.00000     0.00000
  -------------------------------------------------------------------------------------
  Total       0.01864     0.01864     0.00219     0.00000    -0.00000     0.00000
  in kB       0.11553     0.11553     0.01355     0.00000    -0.00000     0.00000
  external pressure =        0.08 kB  Pullay stress =        0.00 kB


 VOLUME and BASIS-vectors are now :
 -----------------------------------------------------------------------------
  energy-cutoff  :      520.00
  volume of cell :      258.46
      direct lattice vectors                 reciprocal lattice vectors
     5.645286061  0.000000000  0.000000000     0.177138942  0.000000000  0.000000000
     0.000000000  5.645286061  0.000000000     0.000000000  0.177138942  0.000000000
     0.000000000  0.000000000  8.109982462     0.000000000  0.000000000  0.123304829

  length of vectors
     5.645286061  5.645286061  8.109982462     0.177138942  0.177138942  0.123304829


 FORCES acting on ions
    electron-ion (+dipol)            ewald-force                    non-local-force                 convergence-correction
 -----------------------------------------------------------------------------------------------
   0.692E+02 0.692E+02 0.163E+03   -.694E+02 -.694E+02 -.163E+03   0.172E+00 0.172E+00 0.198E+00   0.150E-02 0.150E-02 0.160E-02
   0.692E+02 0.692E+02 -.163E+03   -.694E+02 -.694E+02 0.163E+03   0.172E+00 0.172E+00 -.198E+00   0.150E-02 0.150E-02 -.160E-02
   0.692E+02 -.692E+02 0.163E+03   -.694E+02 0.694E+02 -.163E+03   0.172E+00 -.172E+00 0.198E+00   0.150E-02 -.150E-02 0.160E-02
   0.692E+02 -.692E+02 -.163E+03   -.694E+02 0.694E+02 0.163E+03   0.172E+00 -.172E+00 -.198E+00   0.150E-02 -.150E-02 -.160E-02
   -.692E+02 0.692E+02 0.163E+03   0.694E+02 -.694E+02 -.163E+03   -.172E+00 0.172E+00 0.198E+00   -.150E-02 0.150E-02 0.160E-02
   -.692E+02 0.692E+02 -.163E+03   0.694E+02 -.694E+02 0.163E+03   -.172E+00 0.172E+00 -.198E+00   -.150E-02 0.150E-02 -.160E-02
   -.692E+02 -.692E+02 0.163E+03   0.694E+02 0.694E+02 -.163E+03   -.172E+00 -.172E+00 0.198E+00   -.150E-02 -.150E-02 0.160E-02
   -.692E+02 -.692E+02 -.163E+03   0.694E+02 0.694E+02 0.163E+03   -.172E+00 -.172E+00 -.198E+00   -.150E-02 -.150E-02 -.160E-02
   0.188E-12 0.104E-11 -.148E-11   0.127E-12 -.169E-13 0.257E-13   0.199E-22 0.331E-23 0.000E+00   0.684E-13 0.144E-12 0.245E-12
   0.783E-14 -.573E-12 0.643E-13   0.392E-13 0.406E-14 0.296E-14   0.199E-22 0.331E-23 0.000E+00   -.293E-14 0.720E-14 -.448E-13
   0.147E-13 -.644E-13 -.530E-12   -.815E-14 0.515E-15 0.690E-14   0.662E-23 0.000E+00 0.331E-23   0.195E-14 -.107E-13 0.407E-13
   0.101E-13 0.857E-12 0.280E-12   0.155E-13 0.206E-13 -.578E-14   0.000E+00 -.165E-23 0.000E+00   -.780E-15 -.723E-14 -.432E-13
   -.253E-13 0.596E-12 0.236E-12   -.483E-14 -.439E-14 0.228E-13   0.372E-23 -.331E-23 -.331E-23   -.261E-14 0.998E-14 0.456E-13
   0.246E-14 -.142E-12 0.624E-12   0.161E-13 0.347E-14 0.101E-13   0.000E+00 0.000E+00 -.137E-23   0.354E-14 0.550E-14 -.462E-13
   0.272E-16 0.448E-12 -.145E-12   0.393E-13 0.278E-13 -.169E-13   0.331E-23 0.132E-22 0.000E+00   -.167E-14 -.102E-13 0.419E-13
   -.242E-14 0.465E-12 0.254E-12   0.117E-13 0.411E-14 0.177E-13   0.000E+00 0.000E+00 0.000E+00   0.132E-14 -.577E-14 -.429E-13
 -----------------------------------------------------------------------------------------------
   -.188E-11 -.518E-11 0.482E-10   -.344E-13 -.176E-13 0.350E-13   -.111E-15 0.278E-16 0.833E-16   0.930E-13 0.923E-13 0.289E-12
 
 
 POSITION                                       TOTAL-FORCE (eV/Angst)
 -----------------------------------------------------------------------------------
      0.00111      0.00111      0.00501         0.000252      0.000252      0.007041
      0.00111      0.00111      4.04999         0.000252      0.000252     -0.007041
      0.00111      2.82153      0.00501         0.000252     -0.000252      0.007041
      0.00111      2.82153      4.04999         0.000252     -0.000252     -0.007041
      2.82153      0.00111      0.00501        -0.000252      0.000252      0.007041
      2.82153      0.00111      4.04999        -0.000252      0.000252     -0.007041
      2.82153      2.82153      0.00501        -0.000252     -0.000252      0.007041
      2.82153      2.82153      4.04999        -0.000252     -0.000252     -0.007041
      1.41132      1.41132      2.02750        -0.000000      0.000000     -0.000000
      1.41132      1.41132      6.08249        -0.000000     -0.000000     -0.000000
      1.41132      4.23396      2.02750        -0.000000      0.000000     -0.000000
      1.41132      4.23396      6.08249        -0.000000     -0.000000     -0.000000
      4.23396      1.41132      2.02750        -0.000000     -0.000000     -0.000000
      4.23396      1.41132      6.08249        -0.000000     -0.000000     -0.000000
      4.23396      4.23396      2.02750        -0.000000      0.000000     -0.000000
      4.23396      4.23396      6.08249        -0.000000     -0.000000     -0.000000
 -----------------------------------------------------------------------------------
    total drift:                               -0.000000     -0.000000      0.000000


--------------------------------------------------------------------------------------------------------



  FREE ENERGIE OF THE ION-ELECTRON SYSTEM (eV)
  ---------------------------------------------------
  free  energy   TOTEN  =       -98.43070521 eV

  energy  without entropy=      -98.43396503  energy(sigma->0) =      -98.43179182
 


--------------------------------------------------------------------------------------------------------


    POTLOK:  cpu time      0.0083: real time      0.0083


--------------------------------------------------------------------------------------------------------


 writing wavefunctions
     LOOP+:  cpu time     83.0161: real time     83.0204
    4ORBIT:  cpu time      0.0000: real time      0.0000

 total amount of memory used by VASP MPI-rank0   133107. kBytes
=======================================================================

   base                                    :      30000. kBytes
   nonl-proj                               :      93040. kBytes
   fftplans                                :        434. kBytes
   grid                                    :       2381. kBytes
   one-center                              :        248. kBytes
   wavefun                                 :       7004. kBytes
 
  
  
 General timing and accounting informations for this job:
 ========================================================
  
                  Total CPU time used (sec):       85.382
                            User time (sec):       81.421
                          System time (sec):        3.962
                         Elapsed time (sec):       85.647
  
                   Maximum memory used (kb):      309248.
                   Average memory used (kb):          N/A
  
                          Minor page faults:        47572
                          Major page faults:           13
                 Voluntary context switches:           89
