  48  48   0   0
  0.4499073E+02  0.9881350E-09  0.7983640E-09  0.3015919E-08  0.5000000E-15
  1.000000000000000E-004
  CAR 
 unknown system                          
      5.72989116    -59.49696907  301      0.78089121      1.00000000
    -59.497  0.0000E+00  0.0000E+00
    -59.280  0.0000E+00  0.0000E+00
    -59.062  0.0000E+00  0.0000E+00
    -58.845  0.0000E+00  0.0000E+00
    -58.627  0.0000E+00  0.0000E+00
    -58.410  0.0000E+00  0.0000E+00
    -58.192  0.0000E+00  0.0000E+00
    -57.975  0.0000E+00  0.0000E+00
    -57.758  0.0000E+00  0.0000E+00
    -57.540 -0.4253E-42 -0.9247E-43
    -57.323 -0.3407E-25 -0.7407E-26
    -57.105 -0.1937E-12 -0.4213E-13
    -56.888 -0.7488E-04 -0.1628E-04
    -56.670 -0.1044E+01 -0.2271E+00
    -56.453  0.3602E+02  0.7605E+01
    -56.236  0.2265E+01  0.8098E+01
    -56.018  0.3390E+02  0.1547E+02
    -55.801  0.1451E+03  0.4701E+02
    -55.583  0.4564E+01  0.4801E+02
    -55.366 -0.2972E-01  0.4800E+02
    -55.149 -0.4351E-08  0.4800E+02
    -54.931  0.0000E+00  0.4800E+02
    -54.714  0.0000E+00  0.4800E+02
    -54.496  0.0000E+00  0.4800E+02
    -54.279  0.0000E+00  0.4800E+02
    -54.061  0.0000E+00  0.4800E+02
    -53.844  0.0000E+00  0.4800E+02
    -53.627  0.0000E+00  0.4800E+02
    -53.409  0.0000E+00  0.4800E+02
    -53.192  0.0000E+00  0.4800E+02
    -52.974  0.0000E+00  0.4800E+02
    -52.757  0.0000E+00  0.4800E+02
    -52.539  0.0000E+00  0.4800E+02
    -52.322  0.0000E+00  0.4800E+02
    -52.105  0.0000E+00  0.4800E+02
    -51.887  0.0000E+00  0.4800E+02
    -51.670  0.0000E+00  0.4800E+02
    -51.452  0.0000E+00  0.4800E+02
    -51.235  0.0000E+00  0.4800E+02
    -51.017  0.0000E+00  0.4800E+02
    -50.800  0.0000E+00  0.4800E+02
    -50.583  0.0000E+00  0.4800E+02
    -50.365  0.0000E+00  0.4800E+02
    -50.148  0.0000E+00  0.4800E+02
    -49.930  0.0000E+00  0.4800E+02
    -49.713  0.0000E+00  0.4800E+02
    -49.496  0.0000E+00  0.4800E+02
    -49.278  0.0000E+00  0.4800E+02
    -49.061  0.0000E+00  0.4800E+02
    -48.843  0.0000E+00  0.4800E+02
    -48.626  0.0000E+00  0.4800E+02
    -48.408  0.0000E+00  0.4800E+02
    -48.191  0.0000E+00  0.4800E+02
    -47.974  0.0000E+00  0.4800E+02
    -47.756  0.0000E+00  0.4800E+02
    -47.539  0.0000E+00  0.4800E+02
    -47.321  0.0000E+00  0.4800E+02
    -47.104  0.0000E+00  0.4800E+02
    -46.886  0.0000E+00  0.4800E+02
    -46.669  0.0000E+00  0.4800E+02
    -46.452  0.0000E+00  0.4800E+02
    -46.234  0.0000E+00  0.4800E+02
    -46.017  0.0000E+00  0.4800E+02
    -45.799  0.0000E+00  0.4800E+02
    -45.582  0.0000E+00  0.4800E+02
    -45.364  0.0000E+00  0.4800E+02
    -45.147  0.0000E+00  0.4800E+02
    -44.930  0.0000E+00  0.4800E+02
    -44.712  0.0000E+00  0.4800E+02
    -44.495  0.0000E+00  0.4800E+02
    -44.277  0.0000E+00  0.4800E+02
    -44.060  0.0000E+00  0.4800E+02
    -43.843  0.0000E+00  0.4800E+02
    -43.625  0.0000E+00  0.4800E+02
    -43.408  0.0000E+00  0.4800E+02
    -43.190  0.0000E+00  0.4800E+02
    -42.973  0.0000E+00  0.4800E+02
    -42.755  0.0000E+00  0.4800E+02
    -42.538  0.0000E+00  0.4800E+02
    -42.321  0.0000E+00  0.4800E+02
    -42.103  0.0000E+00  0.4800E+02
    -41.886  0.0000E+00  0.4800E+02
    -41.668  0.0000E+00  0.4800E+02
    -41.451  0.0000E+00  0.4800E+02
    -41.233  0.0000E+00  0.4800E+02
    -41.016  0.0000E+00  0.4800E+02
    -40.799  0.0000E+00  0.4800E+02
    -40.581  0.0000E+00  0.4800E+02
    -40.364  0.0000E+00  0.4800E+02
    -40.146  0.0000E+00  0.4800E+02
    -39.929  0.0000E+00  0.4800E+02
    -39.711  0.0000E+00  0.4800E+02
    -39.494  0.0000E+00  0.4800E+02
    -39.277  0.0000E+00  0.4800E+02
    -39.059  0.0000E+00  0.4800E+02
    -38.842  0.0000E+00  0.4800E+02
    -38.624  0.0000E+00  0.4800E+02
    -38.407  0.0000E+00  0.4800E+02
    -38.190  0.0000E+00  0.4800E+02
    -37.972  0.0000E+00  0.4800E+02
    -37.755  0.0000E+00  0.4800E+02
    -37.537  0.0000E+00  0.4800E+02
    -37.320  0.0000E+00  0.4800E+02
    -37.102  0.0000E+00  0.4800E+02
    -36.885  0.0000E+00  0.4800E+02
    -36.668  0.0000E+00  0.4800E+02
    -36.450  0.0000E+00  0.4800E+02
    -36.233  0.0000E+00  0.4800E+02
    -36.015  0.0000E+00  0.4800E+02
    -35.798  0.0000E+00  0.4800E+02
    -35.580  0.0000E+00  0.4800E+02
    -35.363  0.0000E+00  0.4800E+02
    -35.146  0.0000E+00  0.4800E+02
    -34.928  0.0000E+00  0.4800E+02
    -34.711  0.0000E+00  0.4800E+02
    -34.493  0.0000E+00  0.4800E+02
    -34.276  0.0000E+00  0.4800E+02
    -34.058  0.0000E+00  0.4800E+02
    -33.841 -0.2328E-29  0.4800E+02
    -33.624 -0.1610E-15  0.4800E+02
    -33.406 -0.7920E-06  0.4800E+02
    -33.189 -0.2267E+00  0.4795E+02
    -32.971  0.2069E+02  0.5245E+02
    -32.754  0.2425E+02  0.5772E+02
    -32.537  0.8852E+02  0.7697E+02
    -32.319  0.1117E+03  0.1013E+03
    -32.102  0.2752E+03  0.1611E+03
    -31.884  0.1457E+03  0.1928E+03
    -31.667 -0.3544E+01  0.1920E+03
    -31.449 -0.1799E-02  0.1920E+03
    -31.232 -0.2626E-10  0.1920E+03
    -31.015  0.0000E+00  0.1920E+03
    -30.797  0.0000E+00  0.1920E+03
    -30.580  0.0000E+00  0.1920E+03
    -30.362  0.0000E+00  0.1920E+03
    -30.145  0.0000E+00  0.1920E+03
    -29.927  0.0000E+00  0.1920E+03
    -29.710  0.0000E+00  0.1920E+03
    -29.493  0.0000E+00  0.1920E+03
    -29.275  0.0000E+00  0.1920E+03
    -29.058  0.0000E+00  0.1920E+03
    -28.840  0.0000E+00  0.1920E+03
    -28.623  0.0000E+00  0.1920E+03
    -28.405  0.0000E+00  0.1920E+03
    -28.188  0.0000E+00  0.1920E+03
    -27.971  0.0000E+00  0.1920E+03
    -27.753  0.0000E+00  0.1920E+03
    -27.536  0.0000E+00  0.1920E+03
    -27.318  0.0000E+00  0.1920E+03
    -27.101  0.0000E+00  0.1920E+03
    -26.884  0.0000E+00  0.1920E+03
    -26.666  0.0000E+00  0.1920E+03
    -26.449  0.0000E+00  0.1920E+03
    -26.231  0.0000E+00  0.1920E+03
    -26.014  0.0000E+00  0.1920E+03
    -25.796  0.0000E+00  0.1920E+03
    -25.579  0.0000E+00  0.1920E+03
    -25.362  0.0000E+00  0.1920E+03
    -25.144  0.0000E+00  0.1920E+03
    -24.927  0.0000E+00  0.1920E+03
    -24.709  0.0000E+00  0.1920E+03
    -24.492  0.0000E+00  0.1920E+03
    -24.274  0.0000E+00  0.1920E+03
    -24.057  0.0000E+00  0.1920E+03
    -23.840  0.0000E+00  0.1920E+03
    -23.622  0.0000E+00  0.1920E+03
    -23.405  0.0000E+00  0.1920E+03
    -23.187  0.0000E+00  0.1920E+03
    -22.970  0.0000E+00  0.1920E+03
    -22.753  0.0000E+00  0.1920E+03
    -22.535  0.0000E+00  0.1920E+03
    -22.318  0.0000E+00  0.1920E+03
    -22.100  0.0000E+00  0.1920E+03
    -21.883  0.0000E+00  0.1920E+03
    -21.665  0.0000E+00  0.1920E+03
    -21.448  0.0000E+00  0.1920E+03
    -21.231  0.0000E+00  0.1920E+03
    -21.013  0.0000E+00  0.1920E+03
    -20.796  0.0000E+00  0.1920E+03
    -20.578  0.0000E+00  0.1920E+03
    -20.361  0.0000E+00  0.1920E+03
    -20.143  0.0000E+00  0.1920E+03
    -19.926  0.0000E+00  0.1920E+03
    -19.709  0.0000E+00  0.1920E+03
    -19.491  0.0000E+00  0.1920E+03
    -19.274  0.0000E+00  0.1920E+03
    -19.056  0.0000E+00  0.1920E+03
    -18.839  0.0000E+00  0.1920E+03
    -18.621  0.0000E+00  0.1920E+03
    -18.404  0.0000E+00  0.1920E+03
    -18.187  0.0000E+00  0.1920E+03
    -17.969  0.0000E+00  0.1920E+03
    -17.752  0.0000E+00  0.1920E+03
    -17.534  0.0000E+00  0.1920E+03
    -17.317  0.0000E+00  0.1920E+03
    -17.100  0.0000E+00  0.1920E+03
    -16.882  0.0000E+00  0.1920E+03
    -16.665  0.0000E+00  0.1920E+03
    -16.447  0.0000E+00  0.1920E+03
    -16.230  0.0000E+00  0.1920E+03
    -16.012  0.0000E+00  0.1920E+03
    -15.795  0.0000E+00  0.1920E+03
    -15.578  0.0000E+00  0.1920E+03
    -15.360  0.0000E+00  0.1920E+03
    -15.143  0.0000E+00  0.1920E+03
    -14.925  0.0000E+00  0.1920E+03
    -14.708 -0.3994E-42  0.1920E+03
    -14.490 -0.3323E-25  0.1920E+03
    -14.273 -0.1964E-12  0.1920E+03
    -14.056 -0.8639E-04  0.1920E+03
    -13.838 -0.1878E+01  0.1916E+03
    -13.621  0.7972E+02  0.2089E+03
    -13.403  0.2599E+02  0.2146E+03
    -13.186  0.3481E+02  0.2221E+03
    -12.968 -0.6555E+00  0.2220E+03
    -12.751 -0.2709E-04  0.2220E+03
    -12.534 -0.6618E-13  0.2220E+03
    -12.316  0.0000E+00  0.2220E+03
    -12.099  0.0000E+00  0.2220E+03
    -11.881  0.0000E+00  0.2220E+03
    -11.664  0.0000E+00  0.2220E+03
    -11.447  0.0000E+00  0.2220E+03
    -11.229  0.0000E+00  0.2220E+03
    -11.012  0.0000E+00  0.2220E+03
    -10.794  0.0000E+00  0.2220E+03
    -10.577  0.0000E+00  0.2220E+03
    -10.359  0.0000E+00  0.2220E+03
    -10.142  0.0000E+00  0.2220E+03
     -9.925  0.0000E+00  0.2220E+03
     -9.707  0.0000E+00  0.2220E+03
     -9.490  0.0000E+00  0.2220E+03
     -9.272  0.0000E+00  0.2220E+03
     -9.055 -0.1026E-41  0.2220E+03
     -8.837 -0.2771E-25  0.2220E+03
     -8.620 -0.5213E-13  0.2220E+03
     -8.403 -0.6329E-05  0.2220E+03
     -8.185 -0.2240E-01  0.2220E+03
     -7.968  0.1468E+01  0.2223E+03
     -7.750  0.2637E+01  0.2229E+03
     -7.533  0.4089E+01  0.2238E+03
     -7.315  0.2335E+01  0.2243E+03
     -7.098  0.7221E+01  0.2259E+03
     -6.881  0.4481E+01  0.2268E+03
     -6.663  0.4539E+01  0.2278E+03
     -6.446  0.8373E+01  0.2296E+03
     -6.228  0.7909E+01  0.2314E+03
     -6.011  0.7882E+01  0.2331E+03
     -5.794  0.8510E+01  0.2349E+03
     -5.576  0.1013E+02  0.2371E+03
     -5.359  0.1204E+02  0.2397E+03
     -5.141  0.1026E+02  0.2420E+03
     -4.924  0.8538E+01  0.2438E+03
     -4.706  0.1258E+02  0.2466E+03
     -4.489  0.1245E+02  0.2493E+03
     -4.272  0.1746E+02  0.2531E+03
     -4.054  0.8163E+01  0.2548E+03
     -3.837  0.1599E+02  0.2583E+03
     -3.619  0.1620E+02  0.2618E+03
     -3.402  0.9739E+01  0.2640E+03
     -3.184  0.1691E+02  0.2676E+03
     -2.967  0.8937E+01  0.2696E+03
     -2.750  0.1195E+02  0.2722E+03
     -2.532  0.1073E+02  0.2745E+03
     -2.315  0.1365E+02  0.2775E+03
     -2.097  0.1524E+02  0.2808E+03
     -1.880  0.1638E+02  0.2844E+03
     -1.662  0.2965E+02  0.2908E+03
     -1.445  0.2446E+02  0.2961E+03
     -1.228  0.3354E+02  0.3034E+03
     -1.010  0.3263E+02  0.3105E+03
     -0.793  0.3992E+02  0.3192E+03
     -0.575  0.3294E+02  0.3263E+03
     -0.358  0.3974E+02  0.3350E+03
     -0.141  0.3740E+02  0.3431E+03
      0.077  0.4242E+02  0.3523E+03
      0.294  0.4824E+02  0.3628E+03
      0.512  0.5509E+02  0.3748E+03
      0.729  0.5552E+02  0.3869E+03
      0.947  0.5380E+02  0.3986E+03
      1.164  0.6011E+02  0.4116E+03
      1.381  0.5020E+02  0.4226E+03
      1.599  0.6950E+02  0.4377E+03
      1.816  0.5124E+02  0.4488E+03
      2.034  0.6303E+02  0.4625E+03
      2.251  0.7228E+02  0.4782E+03
      2.469  0.7094E+02  0.4937E+03
      2.686  0.7437E+02  0.5098E+03
      2.903  0.1019E+02  0.5120E+03
      3.121 -0.1968E+00  0.5120E+03
      3.338 -0.7109E-05  0.5120E+03
      3.556 -0.1062E-13  0.5120E+03
      3.773  0.0000E+00  0.5120E+03
      3.991  0.0000E+00  0.5120E+03
      4.208  0.0000E+00  0.5120E+03
      4.425  0.0000E+00  0.5120E+03
      4.643  0.0000E+00  0.5120E+03
      4.860  0.0000E+00  0.5120E+03
      5.078  0.0000E+00  0.5120E+03
      5.295  0.0000E+00  0.5120E+03
      5.512  0.0000E+00  0.5120E+03
      5.730  0.0000E+00  0.5120E+03
