   48   48    1    1
  0.4499073E+02  0.9881350E-09  0.7983640E-09  0.3015919E-08  0.5000000E-15
  1.000000000000000E-004
  CAR 
 unknown system                          
    390     11    256
 
  0.1276756E-14  0.1276756E-14  0.1276756E-14  0.5000000E-01
      1        -56.532112   1.000000
      2        -56.531222   1.000000
      3        -56.527151   1.000000
      4        -56.500680   1.000000
      5        -56.169262   1.000000
      6        -56.167865   1.000000
      7        -56.135714   1.000000
      8        -56.131974   1.000000
      9        -55.928071   1.000000
     10        -55.921962   1.000000
     11        -55.920567   1.000000
     12        -55.919124   1.000000
     13        -55.917374   1.000000
     14        -55.915577   1.000000
     15        -55.905092   1.000000
     16        -55.895057   1.000000
     17        -55.872675   1.000000
     18        -55.868510   1.000000
     19        -55.863539   1.000000
     20        -55.863397   1.000000
     21        -55.862338   1.000000
     22        -55.853017   1.000000
     23        -55.846141   1.000000
     24        -55.841688   1.000000
     25        -32.995601   1.000000
     26        -32.981531   1.000000
     27        -32.980929   1.000000
     28        -32.955118   1.000000
     29        -32.722841   1.000000
     30        -32.712613   1.000000
     31        -32.703630   1.000000
     32        -32.701066   1.000000
     33        -32.697436   1.000000
     34        -32.695268   1.000000
     35        -32.679037   1.000000
     36        -32.671785   1.000000
     37        -32.569124   1.000000
     38        -32.566287   1.000000
     39        -32.542121   1.000000
     40        -32.531943   1.000000
     41        -32.436274   1.000000
     42        -32.413038   1.000000
     43        -32.399621   1.000000
     44        -32.375554   1.000000
     45        -32.359439   1.000000
     46        -32.353788   1.000000
     47        -32.345406   1.000000
     48        -32.339081   1.000000
     49        -32.337089   1.000000
     50        -32.330340   1.000000
     51        -32.324710   1.000000
     52        -32.322470   1.000000
     53        -32.305312   1.000000
     54        -32.295074   1.000000
     55        -32.293632   1.000000
     56        -32.276879   1.000000
     57        -32.269702   1.000000
     58        -32.261390   1.000000
     59        -32.260038   1.000000
     60        -32.254938   1.000000
     61        -32.252604   1.000000
     62        -32.252021   1.000000
     63        -32.250985   1.000000
     64        -32.242843   1.000000
     65        -32.239273   1.000000
     66        -32.235085   1.000000
     67        -32.234365   1.000000
     68        -32.225881   1.000000
     69        -32.219835   1.000000
     70        -32.218611   1.000000
     71        -32.211928   1.000000
     72        -32.206814   1.000000
     73        -32.167161   1.000000
     74        -32.162082   1.000000
     75        -32.158397   1.000000
     76        -32.154955   1.000000
     77        -32.148821   1.000000
     78        -32.144109   1.000000
     79        -32.141883   1.000000
     80        -32.141203   1.000000
     81        -32.076817   1.000000
     82        -32.071451   1.000000
     83        -32.060306   1.000000
     84        -32.053030   1.000000
     85        -32.050553   1.000000
     86        -32.042323   1.000000
     87        -32.036380   1.000000
     88        -32.036308   1.000000
     89        -32.025398   1.000000
     90        -32.023647   1.000000
     91        -31.993893   1.000000
     92        -31.992978   1.000000
     93        -31.984970   1.000000
     94        -31.984295   1.000000
     95        -31.980147   1.000000
     96        -31.977046   1.000000
     97        -13.700592   1.000000
     98        -13.699232   1.000000
     99        -13.686628   1.000000
    100        -13.680081   1.000000
    101        -13.679667   1.000000
    102        -13.672882   1.000000
    103        -13.661359   1.000000
    104        -13.652778   1.000000
    105        -13.646430   1.000000
    106        -13.627331   1.000000
    107        -13.394368   1.000000
    108        -13.385660   1.000000
    109        -13.376411   1.000000
    110        -13.365483   1.000000
    111        -13.325651   1.000000
    112         -8.070347   1.000000
    113         -7.261758   1.000000
    114         -6.500261   1.000000
    115         -6.369025   1.000000
    116         -6.192455   1.000000
    117         -5.662853   1.000000
    118         -5.561147   1.000000
    119         -5.404095   1.000000
    120         -5.291850   1.000000
    121         -5.241799   1.000000
    122         -5.090266   1.000000
    123         -4.914163   1.000000
    124         -4.699011   1.000000
    125         -4.636045   1.000000
    126         -4.554817   1.000000
    127         -4.520087   1.000000
    128         -4.421299   1.000000
    129         -4.049756   1.000000
    130         -4.010374   1.000000
    131         -3.865495   1.000000
    132         -3.793883   1.000000
    133         -3.745363   1.000000
    134         -3.313120   1.000000
    135         -3.168650   1.000000
    136         -3.025613   1.000000
    137         -2.970411   1.000000
    138         -2.502849   1.000000
    139         -1.960003   1.000000
    140         -1.955164   1.000000
    141         -1.915717   1.000000
    142         -1.877860   1.000000
    143         -1.692391   1.000000
    144         -1.654765   1.000000
    145         -1.518257   1.000000
    146         -1.402329   1.000000
    147         -1.317154   1.000000
    148         -1.310539   1.000000
    149         -1.304777   1.000000
    150         -1.286841   1.000000
    151         -1.272281   1.000000
    152         -1.236076   1.000000
    153         -1.220937   1.000000
    154         -1.127164   1.000000
    155         -1.099208   1.000000
    156         -1.040750   1.000000
    157         -0.983950   1.000000
    158         -0.803713   1.000000
    159         -0.733556   1.000000
    160         -0.718541   1.000000
    161         -0.716200   1.000000
    162         -0.492833   1.000000
    163         -0.471311   1.000000
    164         -0.424654   1.000000
    165         -0.372875   1.000000
    166         -0.364896   1.000000
    167         -0.241767   1.000000
    168         -0.224189   1.000000
    169         -0.107303   1.000000
    170         -0.086013   1.000000
    171         -0.072994   1.000000
    172         -0.059216   1.000000
    173         -0.041282   1.000000
    174         -0.037468   1.000000
    175         -0.023146   1.000000
    176         -0.013956   1.000000
    177         -0.001023   1.000000
    178          0.025818   1.000000
    179          0.026810   1.000000
    180          0.201144   1.000000
    181          0.230733   1.000000
    182          0.248399   1.000000
    183          0.311135   1.000000
    184          0.400408   1.000001
    185          0.408342   1.000001
    186          0.427789   1.000004
    187          0.477730   1.000078
    188          0.539063   1.001655
    189          0.549780   1.002582
    190          0.593187   1.011651
    191          0.609522   1.017955
    192          0.652909   1.035025
    193          0.655925   1.035365
    194          0.692285   1.008909
    195          0.711316   0.958381
    196          0.718850   0.928963
    197          0.722998   0.910337
    198          0.821437   0.186146
    199          0.964995  -0.012904
    200          0.967803  -0.011920
    201          0.989448  -0.006005
    202          1.021295  -0.001759
    203          1.031971  -0.001103
    204          1.047199  -0.000542
    205          1.052816  -0.000411
    206          1.104624  -0.000023
    207          1.155743  -0.000001
    208          1.162938  -0.000000
    209          1.253745  -0.000000
    210          1.258278  -0.000000
    211          1.289530  -0.000000
    212          1.294451  -0.000000
    213          1.332079  -0.000000
    214          1.411849  -0.000000
    215          1.444722  -0.000000
    216          1.459655  -0.000000
    217          1.502945  -0.000000
    218          1.537497  -0.000000
    219          1.593710  -0.000000
    220          1.643564  -0.000000
    221          1.667966  -0.000000
    222          1.688309  -0.000000
    223          1.711476  -0.000000
    224          1.726324  -0.000000
    225          1.772889  -0.000000
    226          1.861579  -0.000000
    227          1.864263  -0.000000
    228          1.871217  -0.000000
    229          1.886770  -0.000000
    230          1.919655  -0.000000
    231          1.997823  -0.000000
    232          2.009524  -0.000000
    233          2.036620  -0.000000
    234          2.107573  -0.000000
    235          2.108174  -0.000000
    236          2.138703  -0.000000
    237          2.175710  -0.000000
    238          2.181891  -0.000000
    239          2.185302  -0.000000
    240          2.225588  -0.000000
    241          2.248200  -0.000000
    242          2.252992  -0.000000
    243          2.316959  -0.000000
    244          2.325096  -0.000000
    245          2.340151  -0.000000
    246          2.343551  -0.000000
    247          2.368214  -0.000000
    248          2.381210  -0.000000
    249          2.423809  -0.000000
    250          2.486218  -0.000000
    251          2.489765  -0.000000
    252          2.520090  -0.000000
    253          2.523540  -0.000000
    254          2.551264  -0.000000
    255          2.564810  -0.000000
    256          2.574041  -0.000000
 
  0.2500000E+00  0.1249001E-14  0.8409939E-14  0.1000000E+00
      1        -56.532112   1.000000
      2        -56.531222   1.000000
      3        -56.527151   1.000000
      4        -56.500680   1.000000
      5        -56.169262   1.000000
      6        -56.167865   1.000000
      7        -56.135714   1.000000
      8        -56.131975   1.000000
      9        -55.928053   1.000000
     10        -55.921966   1.000000
     11        -55.920581   1.000000
     12        -55.919125   1.000000
     13        -55.917374   1.000000
     14        -55.915576   1.000000
     15        -55.905090   1.000000
     16        -55.895064   1.000000
     17        -55.872670   1.000000
     18        -55.868510   1.000000
     19        -55.863539   1.000000
     20        -55.863394   1.000000
     21        -55.862337   1.000000
     22        -55.853018   1.000000
     23        -55.846137   1.000000
     24        -55.841696   1.000000
     25        -32.995603   1.000000
     26        -32.981533   1.000000
     27        -32.980932   1.000000
     28        -32.955121   1.000000
     29        -32.722840   1.000000
     30        -32.712614   1.000000
     31        -32.703628   1.000000
     32        -32.701066   1.000000
     33        -32.697436   1.000000
     34        -32.695267   1.000000
     35        -32.679037   1.000000
     36        -32.671785   1.000000
     37        -32.569125   1.000000
     38        -32.566287   1.000000
     39        -32.542122   1.000000
     40        -32.531944   1.000000
     41        -32.436271   1.000000
     42        -32.413038   1.000000
     43        -32.399616   1.000000
     44        -32.375553   1.000000
     45        -32.359051   1.000000
     46        -32.353802   1.000000
     47        -32.344620   1.000000
     48        -32.339096   1.000000
     49        -32.337310   1.000000
     50        -32.331036   1.000000
     51        -32.324762   1.000000
     52        -32.322566   1.000000
     53        -32.304435   1.000000
     54        -32.295284   1.000000
     55        -32.295000   1.000000
     56        -32.278492   1.000000
     57        -32.269331   1.000000
     58        -32.261005   1.000000
     59        -32.259953   1.000000
     60        -32.254878   1.000000
     61        -32.254765   1.000000
     62        -32.250148   1.000000
     63        -32.249131   1.000000
     64        -32.242301   1.000000
     65        -32.239053   1.000000
     66        -32.235253   1.000000
     67        -32.234836   1.000000
     68        -32.225287   1.000000
     69        -32.219761   1.000000
     70        -32.218456   1.000000
     71        -32.212023   1.000000
     72        -32.208127   1.000000
     73        -32.167242   1.000000
     74        -32.161938   1.000000
     75        -32.158543   1.000000
     76        -32.154834   1.000000
     77        -32.148814   1.000000
     78        -32.144085   1.000000
     79        -32.141823   1.000000
     80        -32.141130   1.000000
     81        -32.076845   1.000000
     82        -32.071414   1.000000
     83        -32.060314   1.000000
     84        -32.053034   1.000000
     85        -32.050571   1.000000
     86        -32.042311   1.000000
     87        -32.036368   1.000000
     88        -32.036287   1.000000
     89        -32.025250   1.000000
     90        -32.023797   1.000000
     91        -31.993853   1.000000
     92        -31.993000   1.000000
     93        -31.984942   1.000000
     94        -31.984323   1.000000
     95        -31.980170   1.000000
     96        -31.977082   1.000000
     97        -13.700593   1.000000
     98        -13.699234   1.000000
     99        -13.686628   1.000000
    100        -13.680083   1.000000
    101        -13.679667   1.000000
    102        -13.672885   1.000000
    103        -13.661359   1.000000
    104        -13.652781   1.000000
    105        -13.646430   1.000000
    106        -13.627332   1.000000
    107        -13.394370   1.000000
    108        -13.385659   1.000000
    109        -13.376411   1.000000
    110        -13.365484   1.000000
    111        -13.325652   1.000000
    112         -7.959441   1.000000
    113         -7.241770   1.000000
    114         -6.936308   1.000000
    115         -6.422511   1.000000
    116         -6.054085   1.000000
    117         -5.709053   1.000000
    118         -5.539409   1.000000
    119         -5.519866   1.000000
    120         -5.287018   1.000000
    121         -4.962627   1.000000
    122         -4.916995   1.000000
    123         -4.893804   1.000000
    124         -4.768793   1.000000
    125         -4.646870   1.000000
    126         -4.498570   1.000000
    127         -4.388802   1.000000
    128         -4.387621   1.000000
    129         -4.029836   1.000000
    130         -3.991873   1.000000
    131         -3.886893   1.000000
    132         -3.830704   1.000000
    133         -3.501170   1.000000
    134         -3.291338   1.000000
    135         -3.141493   1.000000
    136         -2.959395   1.000000
    137         -2.895202   1.000000
    138         -2.489242   1.000000
    139         -2.232566   1.000000
    140         -2.150656   1.000000
    141         -2.128271   1.000000
    142         -2.123794   1.000000
    143         -1.844196   1.000000
    144         -1.773256   1.000000
    145         -1.645822   1.000000
    146         -1.610018   1.000000
    147         -1.594130   1.000000
    148         -1.523311   1.000000
    149         -1.304715   1.000000
    150         -1.224567   1.000000
    151         -1.221193   1.000000
    152         -1.189719   1.000000
    153         -1.164602   1.000000
    154         -1.094452   1.000000
    155         -0.942865   1.000000
    156         -0.924901   1.000000
    157         -0.903308   1.000000
    158         -0.742859   1.000000
    159         -0.739119   1.000000
    160         -0.674897   1.000000
    161         -0.663107   1.000000
    162         -0.505237   1.000000
    163         -0.492211   1.000000
    164         -0.434565   1.000000
    165         -0.430715   1.000000
    166         -0.320272   1.000000
    167         -0.306627   1.000000
    168         -0.270836   1.000000
    169         -0.247167   1.000000
    170         -0.224307   1.000000
    171         -0.118648   1.000000
    172         -0.044924   1.000000
    173         -0.025483   1.000000
    174         -0.017000   1.000000
    175          0.046255   1.000000
    176          0.093034   1.000000
    177          0.171861   1.000000
    178          0.179935   1.000000
    179          0.186033   1.000000
    180          0.228994   1.000000
    181          0.240198   1.000000
    182          0.251358   1.000000
    183          0.276459   1.000000
    184          0.385299   1.000000
    185          0.445283   1.000011
    186          0.449110   1.000014
    187          0.525166   1.000893
    188          0.531907   1.001212
    189          0.540246   1.001741
    190          0.572710   1.006083
    191          0.592366   1.011376
    192          0.642438   1.032323
    193          0.647296   1.033827
    194          0.691423   1.010465
    195          0.787027   0.448181
    196          0.787778   0.441875
    197          0.822385   0.180130
    198          0.902422  -0.035444
    199          0.923164  -0.030912
    200          0.942052  -0.022530
    201          0.958264  -0.015462
    202          0.968033  -0.011841
    203          1.069612  -0.000173
    204          1.077172  -0.000115
    205          1.118970  -0.000009
    206          1.120511  -0.000009
    207          1.206026  -0.000000
    208          1.272338  -0.000000
    209          1.324626  -0.000000
    210          1.358713  -0.000000
    211          1.386822  -0.000000
    212          1.400791  -0.000000
    213          1.412418  -0.000000
    214          1.428239  -0.000000
    215          1.447216  -0.000000
    216          1.490151  -0.000000
    217          1.523493  -0.000000
    218          1.523552  -0.000000
    219          1.653647  -0.000000
    220          1.684721  -0.000000
    221          1.692122  -0.000000
    222          1.694055  -0.000000
    223          1.721496  -0.000000
    224          1.820071  -0.000000
    225          1.836058  -0.000000
    226          1.869187  -0.000000
    227          1.922776  -0.000000
    228          1.945556  -0.000000
    229          1.948369  -0.000000
    230          1.967212  -0.000000
    231          1.975104  -0.000000
    232          1.994334  -0.000000
    233          2.002493  -0.000000
    234          2.109995  -0.000000
    235          2.115108  -0.000000
    236          2.120117  -0.000000
    237          2.173844  -0.000000
    238          2.186535  -0.000000
    239          2.198367  -0.000000
    240          2.219882  -0.000000
    241          2.222395  -0.000000
    242          2.249292  -0.000000
    243          2.253645  -0.000000
    244          2.322900  -0.000000
    245          2.325241  -0.000000
    246          2.359870  -0.000000
    247          2.382727  -0.000000
    248          2.400382  -0.000000
    249          2.453376  -0.000000
    250          2.457170  -0.000000
    251          2.470916  -0.000000
    252          2.494999  -0.000000
    253          2.505990  -0.000000
    254          2.552192  -0.000000
    255          2.575148  -0.000000
    256          2.577531  -0.000000
 
  0.5000000E+00  0.1276756E-14  0.1276756E-14  0.5000000E-01
      1        -56.532111   1.000000
      2        -56.531223   1.000000
      3        -56.527151   1.000000
      4        -56.500680   1.000000
      5        -56.169262   1.000000
      6        -56.167865   1.000000
      7        -56.135714   1.000000
      8        -56.131975   1.000000
      9        -55.928035   1.000000
     10        -55.921972   1.000000
     11        -55.920597   1.000000
     12        -55.919126   1.000000
     13        -55.917374   1.000000
     14        -55.915576   1.000000
     15        -55.905089   1.000000
     16        -55.895070   1.000000
     17        -55.872664   1.000000
     18        -55.868510   1.000000
     19        -55.863540   1.000000
     20        -55.863390   1.000000
     21        -55.862335   1.000000
     22        -55.853016   1.000000
     23        -55.846134   1.000000
     24        -55.841702   1.000000
     25        -32.995602   1.000000
     26        -32.981532   1.000000
     27        -32.980931   1.000000
     28        -32.955119   1.000000
     29        -32.722840   1.000000
     30        -32.712613   1.000000
     31        -32.703627   1.000000
     32        -32.701065   1.000000
     33        -32.697436   1.000000
     34        -32.695268   1.000000
     35        -32.679036   1.000000
     36        -32.671784   1.000000
     37        -32.569126   1.000000
     38        -32.566287   1.000000
     39        -32.542122   1.000000
     40        -32.531944   1.000000
     41        -32.436269   1.000000
     42        -32.413037   1.000000
     43        -32.399614   1.000000
     44        -32.375552   1.000000
     45        -32.358655   1.000000
     46        -32.353810   1.000000
     47        -32.343700   1.000000
     48        -32.339105   1.000000
     49        -32.337556   1.000000
     50        -32.331843   1.000000
     51        -32.324809   1.000000
     52        -32.322654   1.000000
     53        -32.303001   1.000000
     54        -32.297600   1.000000
     55        -32.294919   1.000000
     56        -32.279566   1.000000
     57        -32.269064   1.000000
     58        -32.260526   1.000000
     59        -32.260141   1.000000
     60        -32.256126   1.000000
     61        -32.254791   1.000000
     62        -32.248330   1.000000
     63        -32.248159   1.000000
     64        -32.241729   1.000000
     65        -32.238763   1.000000
     66        -32.235469   1.000000
     67        -32.235422   1.000000
     68        -32.224526   1.000000
     69        -32.219685   1.000000
     70        -32.218103   1.000000
     71        -32.212115   1.000000
     72        -32.209730   1.000000
     73        -32.167318   1.000000
     74        -32.161800   1.000000
     75        -32.158678   1.000000
     76        -32.154728   1.000000
     77        -32.148809   1.000000
     78        -32.144066   1.000000
     79        -32.141765   1.000000
     80        -32.141060   1.000000
     81        -32.076876   1.000000
     82        -32.071380   1.000000
     83        -32.060322   1.000000
     84        -32.053038   1.000000
     85        -32.050593   1.000000
     86        -32.042305   1.000000
     87        -32.036355   1.000000
     88        -32.036268   1.000000
     89        -32.025058   1.000000
     90        -32.023985   1.000000
     91        -31.993811   1.000000
     92        -31.993024   1.000000
     93        -31.984915   1.000000
     94        -31.984350   1.000000
     95        -31.980194   1.000000
     96        -31.977120   1.000000
     97        -13.700593   1.000000
     98        -13.699235   1.000000
     99        -13.686627   1.000000
    100        -13.680085   1.000000
    101        -13.679667   1.000000
    102        -13.672889   1.000000
    103        -13.661359   1.000000
    104        -13.652783   1.000000
    105        -13.646429   1.000000
    106        -13.627334   1.000000
    107        -13.394372   1.000000
    108        -13.385659   1.000000
    109        -13.376411   1.000000
    110        -13.365486   1.000000
    111        -13.325652   1.000000
    112         -7.711936   1.000000
    113         -7.533300   1.000000
    114         -6.861567   1.000000
    115         -6.712969   1.000000
    116         -6.042864   1.000000
    117         -5.674437   1.000000
    118         -5.608682   1.000000
    119         -5.568159   1.000000
    120         -5.205664   1.000000
    121         -4.870050   1.000000
    122         -4.860647   1.000000
    123         -4.747064   1.000000
    124         -4.631451   1.000000
    125         -4.594151   1.000000
    126         -4.528170   1.000000
    127         -4.417366   1.000000
    128         -4.362759   1.000000
    129         -3.990435   1.000000
    130         -3.897126   1.000000
    131         -3.860177   1.000000
    132         -3.718401   1.000000
    133         -3.579305   1.000000
    134         -3.081115   1.000000
    135         -2.966021   1.000000
    136         -2.841033   1.000000
    137         -2.759237   1.000000
    138         -2.733673   1.000000
    139         -2.590831   1.000000
    140         -2.477553   1.000000
    141         -2.451408   1.000000
    142         -2.127823   1.000000
    143         -1.907054   1.000000
    144         -1.826781   1.000000
    145         -1.758855   1.000000
    146         -1.756547   1.000000
    147         -1.716798   1.000000
    148         -1.392596   1.000000
    149         -1.384263   1.000000
    150         -1.348407   1.000000
    151         -1.325089   1.000000
    152         -1.246286   1.000000
    153         -1.129398   1.000000
    154         -0.971522   1.000000
    155         -0.950249   1.000000
    156         -0.860731   1.000000
    157         -0.828929   1.000000
    158         -0.801119   1.000000
    159         -0.700896   1.000000
    160         -0.597355   1.000000
    161         -0.580450   1.000000
    162         -0.537458   1.000000
    163         -0.486292   1.000000
    164         -0.478270   1.000000
    165         -0.464678   1.000000
    166         -0.443235   1.000000
    167         -0.412064   1.000000
    168         -0.399562   1.000000
    169         -0.362288   1.000000
    170         -0.102031   1.000000
    171         -0.073395   1.000000
    172          0.021654   1.000000
    173          0.073646   1.000000
    174          0.110647   1.000000
    175          0.126230   1.000000
    176          0.136873   1.000000
    177          0.165408   1.000000
    178          0.197737   1.000000
    179          0.203026   1.000000
    180          0.205048   1.000000
    181          0.272467   1.000000
    182          0.340490   1.000000
    183          0.340571   1.000000
    184          0.415754   1.000002
    185          0.417296   1.000002
    186          0.424564   1.000003
    187          0.433197   1.000005
    188          0.574793   1.006532
    189          0.609233   1.017830
    190          0.611323   1.018736
    191          0.635958   1.029839
    192          0.636998   1.030266
    193          0.674309   1.030678
    194          0.785964   0.457132
    195          0.792122   0.405616
    196          0.805383   0.299468
    197          0.879431  -0.023545
    198          0.935710  -0.025462
    199          0.946813  -0.020357
    200          0.954230  -0.017117
    201          0.957662  -0.015703
    202          1.019307  -0.001913
    203          1.051262  -0.000444
    204          1.061808  -0.000261
    205          1.083750  -0.000080
    206          1.189815  -0.000000
    207          1.228003  -0.000000
    208          1.272085  -0.000000
    209          1.349215  -0.000000
    210          1.351734  -0.000000
    211          1.462832  -0.000000
    212          1.467038  -0.000000
    213          1.476556  -0.000000
    214          1.481618  -0.000000
    215          1.577644  -0.000000
    216          1.608576  -0.000000
    217          1.620721  -0.000000
    218          1.639200  -0.000000
    219          1.682372  -0.000000
    220          1.710424  -0.000000
    221          1.748828  -0.000000
    222          1.759640  -0.000000
    223          1.770440  -0.000000
    224          1.804903  -0.000000
    225          1.819440  -0.000000
    226          1.896134  -0.000000
    227          1.929695  -0.000000
    228          1.945032  -0.000000
    229          1.949648  -0.000000
    230          2.038311  -0.000000
    231          2.045411  -0.000000
    232          2.047955  -0.000000
    233          2.073849  -0.000000
    234          2.074908  -0.000000
    235          2.097595  -0.000000
    236          2.109795  -0.000000
    237          2.112804  -0.000000
    238          2.151165  -0.000000
    239          2.185521  -0.000000
    240          2.193864  -0.000000
    241          2.266583  -0.000000
    242          2.271132  -0.000000
    243          2.279094  -0.000000
    244          2.282591  -0.000000
    245          2.290744  -0.000000
    246          2.339317  -0.000000
    247          2.355967  -0.000000
    248          2.395149  -0.000000
    249          2.436450  -0.000000
    250          2.436749  -0.000000
    251          2.453959  -0.000000
    252          2.467606  -0.000000
    253          2.481158  -0.000000
    254          2.511487  -0.000000
    255          2.524798  -0.000000
    256          2.535276  -0.000000
 
  0.1249001E-14  0.2000000E+00  0.1297573E-14  0.1000000E+00
      1        -56.532027   1.000000
      2        -56.531307   1.000000
      3        -56.527148   1.000000
      4        -56.500682   1.000000
      5        -56.169129   1.000000
      6        -56.167998   1.000000
      7        -56.135661   1.000000
      8        -56.132027   1.000000
      9        -55.927220   1.000000
     10        -55.921246   1.000000
     11        -55.920391   1.000000
     12        -55.919645   1.000000
     13        -55.918131   1.000000
     14        -55.915989   1.000000
     15        -55.905213   1.000000
     16        -55.895984   1.000000
     17        -55.872447   1.000000
     18        -55.867348   1.000000
     19        -55.863635   1.000000
     20        -55.862819   1.000000
     21        -55.862172   1.000000
     22        -55.853925   1.000000
     23        -55.845850   1.000000
     24        -55.842115   1.000000
     25        -32.995597   1.000000
     26        -32.981470   1.000000
     27        -32.980984   1.000000
     28        -32.955115   1.000000
     29        -32.721563   1.000000
     30        -32.713197   1.000000