       N       E                     dE             d eps       ncg     rms          rms(c)
DAV:   1     0.373668333433E+04    0.37367E+04   -0.19562E+05  6336   0.143E+03
DAV:   2     0.187497761560E+03   -0.35492E+04   -0.34571E+04  5760   0.429E+02
DAV:   3    -0.250066335444E+03   -0.43756E+03   -0.42447E+03 10432   0.131E+02
DAV:   4    -0.321853697705E+03   -0.71787E+02   -0.70967E+02  9600   0.410E+01
DAV:   5    -0.328747108870E+03   -0.68934E+01   -0.68914E+01  8576   0.117E+01    0.485E+01
DAV:   6    -0.382842060086E+03   -0.54095E+02   -0.10463E+03  9856   0.513E+01    0.925E+01
DAV:   7    -0.302851076553E+03    0.79991E+02   -0.12270E+03  8320   0.621E+01    0.384E+01
DAV:   8    -0.289393403079E+03    0.13458E+02   -0.24186E+02  7744   0.274E+01    0.288E+01
DAV:   9    -0.282590294095E+03    0.68031E+01   -0.58778E+01  8256   0.149E+01    0.215E+01
DAV:  10    -0.280685322102E+03    0.19050E+01   -0.41357E+01  9152   0.114E+01    0.197E+01
DAV:  11    -0.274387841477E+03    0.62975E+01   -0.22321E+01  8000   0.852E+00    0.127E+01
DAV:  12    -0.272638156258E+03    0.17497E+01   -0.80291E+00  8448   0.623E+00    0.855E+00
DAV:  13    -0.271980745435E+03    0.65741E+00   -0.87679E+00  7744   0.727E+00    0.715E+00
DAV:  14    -0.271872786555E+03    0.10796E+00   -0.40980E+00  7744   0.518E+00    0.558E+00
DAV:  15    -0.271753956290E+03    0.11883E+00   -0.27145E+00  7744   0.402E+00    0.421E+00
DAV:  16    -0.271719921390E+03    0.34035E-01   -0.18365E+00  7744   0.362E+00    0.397E+00
DAV:  17    -0.271593741918E+03    0.12618E+00   -0.12333E+00  7744   0.298E+00    0.265E+00
DAV:  18    -0.271568943313E+03    0.24799E-01   -0.36457E-01  7872   0.192E+00    0.192E+00
DAV:  19    -0.271546167727E+03    0.22776E-01   -0.22089E-01  7808   0.108E+00    0.121E+00
DAV:  20    -0.271540008524E+03    0.61592E-02   -0.64788E-02  8512   0.606E-01    0.886E-01
DAV:  21    -0.271532695633E+03    0.73129E-02   -0.22801E-02  8448   0.376E-01    0.274E-01
DAV:  22    -0.271534014886E+03   -0.13193E-02   -0.99934E-03  7872   0.291E-01    0.320E-01
DAV:  23    -0.271534478027E+03   -0.46314E-03   -0.74047E-03  7744   0.225E-01    0.205E-01
DAV:  24    -0.271535234020E+03   -0.75599E-03   -0.45205E-03  7744   0.205E-01    0.237E-01
DAV:  25    -0.271535767864E+03   -0.53384E-03   -0.37321E-03  7744   0.150E-01    0.998E-02
DAV:  26    -0.271536257051E+03   -0.48919E-03   -0.12611E-03  7744   0.120E-01    0.906E-02
DAV:  27    -0.271537889108E+03   -0.16321E-02   -0.17320E-03  7616   0.104E-01    0.112E-01
DAV:  28    -0.271538529034E+03   -0.63993E-03   -0.53193E-04  7808   0.765E-02    0.752E-02
DAV:  29    -0.271539762837E+03   -0.12338E-02   -0.47215E-04  7744   0.619E-02    0.641E-02
DAV:  30    -0.271540464354E+03   -0.70152E-03   -0.14887E-04  7744   0.311E-02    0.275E-02
DAV:  31    -0.271540823996E+03   -0.35964E-03   -0.77871E-05  6336   0.324E-02    0.211E-02
DAV:  32    -0.271541434604E+03   -0.61061E-03   -0.55890E-05  6144   0.217E-02    0.130E-02
DAV:  33    -0.271541566661E+03   -0.13206E-03   -0.16010E-05  6144   0.155E-02    0.102E-02
DAV:  34    -0.271541871387E+03   -0.30473E-03   -0.16339E-05  5952   0.101E-02    0.691E-03
DAV:  35    -0.271541989575E+03   -0.11819E-03   -0.56500E-06  5248   0.875E-03    0.828E-03
DAV:  36    -0.271542083235E+03   -0.93660E-04   -0.52155E-06  5632   0.738E-03    0.309E-03
DAV:  37    -0.271542136013E+03   -0.52778E-04   -0.22147E-06  5184   0.328E-03    0.191E-03
DAV:  38    -0.271542143939E+03   -0.79267E-05   -0.58420E-07  4928   0.302E-03
   1 F= -.27154214E+03 E0= -.27154312E+03  d E =0.292800E-02
