 vasp.6.5.0 16Dec24 (build Apr 17 2025 17:55:45) complex                        
  
 executed on             LinuxIFC date 2025.06.10  11:39:39
 running   64 mpi-ranks, on    1 nodes
 distrk:  each k-point on   64 cores,    1 groups
 distr:  one band on NCORE=   1 cores,   64 groups


--------------------------------------------------------------------------------------------------------


 INCAR:
   ISTART = 0
   ICHARG = 2
   PREC = N
   LREAL = .FALSE.
   ENCUT = 520
   ALGO = N
   NELM = 500
   EDIFF = 1E-05
   IBRION = -1
   ISIF = 3
   NSW = 0
   EDIFFG = -0.01
   ISMEAR = 1
   SIGMA = 0.1
   LVHAR = .TRUE.
   LVTOT = .TRUE.

 POTCAR:    PAW_PBE Ti_sv 26Sep2005               
 POTCAR:    PAW_PBE Ga_d 06Jul2010                
 POTCAR:    PAW_PBE Al 04Jan2001                  
 -----------------------------------------------------------------------------
|                                                                             |
|           W    W    AA    RRRRR   N    N  II  N    N   GGGG   !!!           |
|           W    W   A  A   R    R  NN   N  II  NN   N  G    G  !!!           |
|           W    W  A    A  R    R  N N  N  II  N N  N  G       !!!           |
|           W WW W  AAAAAA  RRRRR   N  N N  II  N  N N  G  GGG   !            |
|           WW  WW  A    A  R   R   N   NN  II  N   NN  G    G                |
|           W    W  A    A  R    R  N    N  II  N    N   GGGG   !!!           |
|                                                                             |
|     For optimal performance we recommend to set                             |
|       NCORE = 2 up to number-of-cores-per-socket                            |
|     NCORE specifies how many cores store one orbital (NPAR=cpu/NCORE).      |
|     This setting can greatly improve the performance of VASP for DFT.       |
|     The default, NCORE=1 might be grossly inefficient on modern             |
|     multi-core architectures or massively parallel machines. Do your        |
|     own testing! More info at https://www.vasp.at/wiki/index.php/NCORE      |
|     Unfortunately you need to use the default for GW and RPA                |
|     calculations (for HF NCORE is supported but not extensively tested      |
|     yet).                                                                   |
|                                                                             |
 -----------------------------------------------------------------------------

 POTCAR:    PAW_PBE Ti_sv 26Sep2005               
   SHA256 =  4d747badb5a5ea28d858fbac70885b3f8929d6fd9e5b0dbe1ecb9878dc164da1 Ti_sv/POTCAR          
   COPYR  = (c) Copyright 26Sep2005 Georg Kresse                                                    
   COPYR  = This file is part of the software VASP. Any use, copying, and all other rights are regul
   COPYR  = If you do not have a valid VASP license, you may not use, copy or distribute this file. 
   VRHFIN =Ti: 3p4s3d                                                                               
   LEXCH  = PE                                                                                      
   EATOM  =  1588.0892 eV,  116.7213 Ry                                                             
                                                                                                    
   TITEL  = PAW_PBE Ti_sv 26Sep2005                                                                 
   LULTRA =        F    use ultrasoft PP ?                                                          
   IUNSCR =        1    unscreen: 0-lin 1-nonlin 2-no                                               
   RPACOR =    2.000    partial core radius                                                         
   POMASS =   47.880; ZVAL   =   12.000    mass and valenz                                          
   RCORE  =    2.300    outmost cutoff radius                                                       
   RWIGS  =    2.300; RWIGS  =    1.217    wigner-seitz radius (au A)                               
   ENMAX  =  274.610; ENMIN  =  205.957 eV                                                          
   ICORE  =        3    local potential                                                             
   LCOR   =        T    correct aug charges                                                         
   LPAW   =        T    paw PP                                                                      
   EAUG   =  482.848                                                                                
   RMAX   =    2.348    core radius for proj-oper                                                   
   RAUG   =    1.300    factor for augmentation sphere                                              
   RDEP   =    2.381    radius for radial grids                                                     
   RDEPT  =    1.930    core radius for aug-charge                                                  
                                                                                                    
   Atomic configuration                                                                             
    8 entries                                                                                       
     n  l   j            E        occ.                                                              
     1  0  0.50     -4865.3608   2.0000                                                             
     2  0  0.50      -533.1368   2.0000                                                             
     2  1  1.50      -440.5031   6.0000                                                             
     3  0  0.50       -59.3186   2.0000                                                             
     4  0  0.50        -3.7291   1.0000                                                             
     3  1  1.50       -35.7012   6.0000                                                             
     3  2  2.50        -1.9157   3.0000                                                             
     4  3  2.50        -1.3606   0.0000                                                             
   Description                                                                                      
     l       E           TYP  RCUT    TYP  RCUT                                                     
     0    -59.3185931     23  1.800                                                                 
     0     -3.7290822     23  2.300                                                                 
     1    -35.7012045     23  2.300                                                                 
     1     -1.3605826     23  2.300                                                                 
     2     -1.9156920     23  2.300                                                                 
     2     -0.0236318     23  2.300                                                                 
     3     -1.3605826     23  2.300                                                                 
  local pseudopotential read in
  partial core-charges read in
  partial kinetic energy density read in
  atomic valenz-charges read in
  non local Contribution for L=           0  read in
    real space projection operators read in
  non local Contribution for L=           0  read in
    real space projection operators read in
  non local Contribution for L=           1  read in
    real space projection operators read in
  non local Contribution for L=           1  read in
    real space projection operators read in
  non local Contribution for L=           2  read in
    real space projection operators read in
  non local Contribution for L=           2  read in
    real space projection operators read in
    PAW grid and wavefunctions read in
 
   number of l-projection  operators is LMAX  =           6
   number of lm-projection operators is LMMAX =          18
 
 POTCAR:    PAW_PBE Ga_d 06Jul2010                
   SHA256 =  a60ddf36e14f00ea098d9e3914b3745f1b7105e68786148f49ae384e44b4226c Ga_d/POTCAR           
   COPYR  = (c) Copyright 06Jul2010 Georg Kresse                                                    
   COPYR  = This file is part of the software VASP. Any use, copying, and all other rights are regul
   COPYR  = If you do not have a valid VASP license, you may not use, copy or distribute this file. 
   VRHFIN =Ga: s2p1                                                                                 
   LEXCH  = PE                                                                                      
   EATOM  =  2148.8298 eV,  157.9345 Ry                                                             
                                                                                                    
   TITEL  = PAW_PBE Ga_d 06Jul2010                                                                  
   LULTRA =        F    use ultrasoft PP ?                                                          
   IUNSCR =        1    unscreen: 0-lin 1-nonlin 2-no                                               
   RPACOR =    1.700    partial core radius                                                         
   POMASS =   69.723; ZVAL   =   13.000    mass and valenz                                          
   RCORE  =    2.300    outmost cutoff radius                                                       
   RWIGS  =    2.300; RWIGS  =    1.217    wigner-seitz radius (au A)                               
   ENMAX  =  282.691; ENMIN  =  212.018 eV                                                          
   ICORE  =        3    local potential                                                             
   LCOR   =        T    correct aug charges                                                         
   LPAW   =        T    paw PP                                                                      
   EAUG   =  490.690                                                                                
   DEXC   =    0.000                                                                                
   RMAX   =    2.341    core radius for proj-oper                                                   
   RAUG   =    1.300    factor for augmentation sphere                                              
   RDEP   =    2.413    radius for radial grids                                                     
   RDEPT  =    1.856    core radius for aug-charge                                                  
                                                                                                    
   Atomic configuration                                                                             
    9 entries                                                                                       
     n  l   j            E        occ.                                                              
     1  0  0.50    -10228.7831   2.0000                                                             
     2  0  0.50     -1262.1604   2.0000                                                             
     2  1  1.50     -1098.6333   6.0000                                                             
     3  0  0.50      -148.1110   2.0000                                                             
     3  1  1.50       -98.8436   6.0000                                                             
     3  2  2.50       -19.1549  10.0000                                                             
     4  0  0.50        -8.9483   2.0000                                                             
     4  1  0.50        -2.5791   1.0000                                                             
     4  3  2.50        -2.7416   0.0000                                                             
   Description                                                                                      
     l       E           TYP  RCUT    TYP  RCUT                                                     
     2    -19.1549037     23  2.300                                                                 
     2     -5.4423304     23  2.300                                                                 
     0     -8.9483111     23  2.300                                                                 
     0     68.0291300     23  2.300                                                                 
     1     -2.5790802     23  2.100                                                                 
     1     81.6349560     23  2.300                                                                 
     3      6.8029130     23  2.300                                                                 
  local pseudopotential read in
  partial core-charges read in
  partial kinetic energy density read in
  atomic valenz-charges read in
  non local Contribution for L=           2  read in
    real space projection operators read in
  non local Contribution for L=           2  read in
    real space projection operators read in
  non local Contribution for L=           0  read in
    real space projection operators read in
  non local Contribution for L=           0  read in
    real space projection operators read in
  non local Contribution for L=           1  read in
    real space projection operators read in
  non local Contribution for L=           1  read in
    real space projection operators read in
    PAW grid and wavefunctions read in
 
   number of l-projection  operators is LMAX  =           6
   number of lm-projection operators is LMMAX =          18
 
 POTCAR:    PAW_PBE Al 04Jan2001                  
   SHA256 =  17880443556af62b473fe41b62a467bd001ad55d2cabe504a3f22e34d4e9db96 Al/POTCAR             
   COPYR  = (c) Copyright 04Jan2001 Georg Kresse                                                    
   COPYR  = This file is part of the software VASP. Any use, copying, and all other rights are regul
   COPYR  = If you do not have a valid VASP license, you may not use, copy or distribute this file. 
   VRHFIN =Al: s2p1                                                                                 
   LEXCH  = PE                                                                                      
   EATOM  =    53.5387 eV,    3.9350 Ry                                                             
                                                                                                    
   TITEL  = PAW_PBE Al 04Jan2001                                                                    
   LULTRA =        F    use ultrasoft PP ?                                                          
   IUNSCR =        1    unscreen: 0-lin 1-nonlin 2-no                                               
   RPACOR =    1.500    partial core radius                                                         
   POMASS =   26.981; ZVAL   =    3.000    mass and valenz                                          
   RCORE  =    1.900    outmost cutoff radius                                                       
   RWIGS  =    2.650; RWIGS  =    1.402    wigner-seitz radius (au A)                               
   ENMAX  =  240.300; ENMIN  =  180.225 eV                                                          
   ICORE  =        2    local potential                                                             
   LCOR   =        T    correct aug charges                                                         
   LPAW   =        T    paw PP                                                                      
   EAUG   =  291.052                                                                                
   DEXC   =    0.000                                                                                
   RMAX   =    1.939    core radius for proj-oper                                                   
   RAUG   =    1.300    factor for augmentation sphere                                              
   RDEP   =    1.966    radius for radial grids                                                     
   RDEPT  =    1.856    core radius for aug-charge                                                  
                                                                                                    
   Atomic configuration                                                                             
    6 entries                                                                                       
     n  l   j            E        occ.                                                              
     1  0  0.50     -1511.1048   2.0000                                                             
     2  0  0.50      -108.1629   2.0000                                                             
     2  1  1.50       -69.6402   6.0000                                                             
     3  0  0.50        -7.7528   2.0000                                                             
     3  1  1.50        -2.7121   1.0000                                                             
     3  2  2.50        -2.7212   0.0000                                                             
   Description                                                                                      
     l       E           TYP  RCUT    TYP  RCUT                                                     
     0     -7.7528455     23  1.900                                                                 
     0     -3.3096929     23  1.900                                                                 
     1     -2.7120682     23  1.900                                                                 
     1     13.6058260     23  1.900                                                                 
     2     -2.7211652      7  1.900                                                                 
  local pseudopotential read in
  partial core-charges read in
  partial kinetic energy density read in
  atomic valenz-charges read in
  non local Contribution for L=           0  read in
    real space projection operators read in
  non local Contribution for L=           0  read in
    real space projection operators read in
  non local Contribution for L=           1  read in
    real space projection operators read in
  non local Contribution for L=           1  read in
    real space projection operators read in
    PAW grid and wavefunctions read in
 
   number of l-projection  operators is LMAX  =           4
   number of lm-projection operators is LMMAX =           8
 
 -----------------------------------------------------------------------------
|                                                                             |
|               ----> ADVICE to this user running VASP <----                  |
|                                                                             |
|     You have a (more or less) 'large supercell' and for larger cells it     |
|     might be more efficient to use real-space projection operators.         |
|     Therefore, try LREAL= Auto in the INCAR file.                           |
|     Mind: For very accurate calculation, you might also keep the            |
|     reciprocal projection scheme (i.e. LREAL=.FALSE.).                      |
|                                                                             |
 -----------------------------------------------------------------------------

  PAW_PBE Ti_sv 26Sep2005               :
 energy of atom  1       EATOM=-1588.0892
 kinetic energy error for atom=    0.0042 (will be added to EATOM!!)
  PAW_PBE Ga_d 06Jul2010                :
 energy of atom  2       EATOM=-2148.8298
 kinetic energy error for atom=    0.0026 (will be added to EATOM!!)
  PAW_PBE Al 04Jan2001                  :
 energy of atom  3       EATOM=  -53.5387
 kinetic energy error for atom=    0.0002 (will be added to EATOM!!)
 
 
 POSCAR: Generated by VASPKIT code
  positions in direct lattice
  No initial velocities read in


 exchange-correlation table for PE
   RHO(1)=    0.500       N(1)  =     2000
   RHO(2)=  100.500       N(2)  =     4000
 


--------------------------------------------------------------------------------------------------------


 ion  position               nearest neighbor table
   1  1.000  0.000  0.321-  25 2.70  33 2.72  39 2.72  30 3.04
   2  0.333  0.333  0.440-  26 2.70  47 2.71  37 2.72  31 2.72  42 2.72  36 2.72  45 3.03  28 3.04

   3  0.666  0.667  0.560-  27 2.70  48 2.71  32 2.72  38 2.72  34 2.72  40 2.72  43 3.03  29 3.04

   4  0.667  0.166  0.380-  28 2.71  33 2.72  39 2.72  36 2.72  42 2.72  47 3.04
   5  0.001  0.500  0.500-  45 2.71  29 2.71  37 2.72  31 2.72  34 2.72  40 2.72  48 3.04
   6  0.334  0.833  0.620-  43 2.71  38 2.72  32 2.72  41 2.72  35 2.72  46 3.04
   7  0.166  0.167  0.380-  31 2.70  25 2.72  45 2.72  30 2.72  47 2.73  39 3.03  36 3.04
   8  0.500  0.500  0.500-  32 2.70  42 2.71  26 2.72  43 2.72  28 2.72  48 2.73  37 3.03  34 3.04

   9  0.833  0.833  0.620-  40 2.71  27 2.72  44 2.72  29 2.72  46 2.73  38 3.03  35 3.04
  10  0.834  0.333  0.440-  39 2.70  34 2.71  25 2.72  45 2.72  28 2.72  48 2.73  31 3.03  42 3.04

  11  0.167  0.666  0.560-  37 2.70  35 2.71  26 2.72  43 2.72  29 2.72  46 2.73  32 3.03  40 3.04

  12  0.500  1.000  0.679-  38 2.70  27 2.72  44 2.72  41 3.04
  13  0.166  0.667  0.380-  37 2.70  25 2.72  45 2.72  30 2.72  47 2.73  33 3.03  42 3.04
  14  0.500  0.000  0.500-  38 2.70  36 2.71  26 2.72  43 2.72  28 2.72  48 2.73  31 3.03  40 3.04

  15  0.833  0.334  0.620-  34 2.71  27 2.72  44 2.72  29 2.72  46 2.73  32 3.03  41 3.04
  16  0.834  0.833  0.440-  33 2.70  40 2.71  25 2.72  45 2.72  28 2.72  48 2.73  37 3.03  36 3.04

  17  0.167  0.167  0.560-  31 2.70  41 2.71  26 2.72  43 2.72  29 2.72  46 2.73  38 3.03  34 3.04

  18  0.500  0.500  0.679-  32 2.70  27 2.72  44 2.72  35 3.04
  19  0.333  0.834  0.440-  43 2.71  30 2.71  31 2.72  37 2.72  42 2.72  36 2.72  48 3.04
  20  0.666  0.167  0.560-  44 2.71  28 2.71  38 2.72  32 2.72  40 2.72  34 2.72  46 3.04
  21  0.999  0.500  0.321-  45 2.71  39 2.72  33 2.72  47 3.04
  22  0.000  1.000  0.500-  25 2.70  46 2.71  31 2.72  37 2.72  40 2.72  34 2.72  43 3.03  28 3.04

  23  0.334  0.333  0.620-  26 2.70  38 2.72  32 2.72  41 2.72  35 2.72  44 3.03  29 3.04
  24  0.667  0.667  0.380-  48 2.71  39 2.72  33 2.72  42 2.72  36 2.72  45 3.03  30 3.04
  25  0.000  0.000  0.410-   1 2.70  22 2.70  16 2.72  10 2.72   7 2.72  13 2.72  31 2.97  33 2.97
                            37 2.97  39 2.97
  26  0.333  0.333  0.530-   2 2.70  23 2.70   8 2.72  14 2.72  11 2.72  17 2.72  37 2.97  31 2.97
                            32 2.97  38 2.97
  27  0.667  0.667  0.650-   3 2.70  18 2.72  12 2.72  15 2.72   9 2.72  32 2.97  38 2.97
  28  0.667  0.167  0.470-   4 2.71  20 2.71  16 2.72  14 2.72  10 2.72   8 2.72  36 2.97  40 2.97
                            42 2.97  34 2.97   2 3.04  22 3.04
  29  0.000  0.500  0.590-   5 2.71   9 2.72  15 2.72  11 2.72  17 2.72  35 2.97  41 2.97  34 2.97
                            40 2.97   3 3.04  23 3.04
  30  0.333  0.833  0.350-  19 2.71   7 2.72  13 2.72  36 2.97  42 2.97   1 3.04  24 3.04
  31  0.167  0.167  0.470-  17 2.70   7 2.70   5 2.72  19 2.72  22 2.72   2 2.72  25 2.97  43 2.97
                            45 2.97  26 2.97  14 3.03  10 3.03
  32  0.500  0.500  0.590-  18 2.70   8 2.70   6 2.72  20 2.72   3 2.72  23 2.72  27 2.97  44 2.97
                            26 2.97  43 2.97  15 3.03  11 3.03
  33  0.833  0.833  0.350-  16 2.70  21 2.72   4 2.72   1 2.72  24 2.72  25 2.97  45 2.97  13 3.03

  34  0.833  0.333  0.530-  10 2.71  15 2.71  22 2.72   3 2.72   5 2.72  20 2.72  48 2.97  28 2.97
                            29 2.97  46 2.97  17 3.04   8 3.04
  35  0.167  0.667  0.650-  11 2.71  23 2.72   6 2.72  29 2.97  46 2.97   9 3.04  18 3.04
  36  0.500  0.000  0.410-  14 2.71   2 2.72  24 2.72  19 2.72   4 2.72  28 2.97  30 2.97  47 2.97
                            48 2.97  16 3.04   7 3.04
  37  0.167  0.667  0.470-  11 2.70  13 2.70   5 2.72  19 2.72   2 2.72  22 2.72  45 2.97  26 2.97
                            25 2.97  43 2.97  16 3.03   8 3.03
  38  0.500  0.000  0.590-  12 2.70  14 2.70   6 2.72  20 2.72  23 2.72   3 2.72  44 2.97  27 2.97
                            43 2.97  26 2.97   9 3.03  17 3.03
  39  0.833  0.333  0.350-  10 2.70  21 2.72   4 2.72  24 2.72   1 2.72  45 2.97  25 2.97   7 3.03

  40  0.833  0.833  0.530-  16 2.71   9 2.71  22 2.72   3 2.72   5 2.72  20 2.72  28 2.97  48 2.97
                            46 2.97  29 2.97  11 3.04  14 3.04
  41  0.167  0.167  0.650-  17 2.71  23 2.72   6 2.72  46 2.97  29 2.97  15 3.04  12 3.04
  42  0.500  0.500  0.410-   8 2.71   2 2.72  24 2.72  19 2.72   4 2.72  47 2.97  48 2.97  28 2.97
                            30 2.97  10 3.04  13 3.04
  43  0.333  0.833  0.530-  19 2.71   6 2.71  14 2.72   8 2.72  17 2.72  11 2.72  31 2.97  37 2.97
                            38 2.97  32 2.97   3 3.03  22 3.03
  44  0.667  0.167  0.650-  20 2.71  12 2.72  18 2.72   9 2.72  15 2.72  38 2.97  32 2.97  23 3.03

  45  0.000  0.500  0.410-   5 2.71  21 2.71  16 2.72  10 2.72  13 2.72   7 2.72  37 2.97  39 2.97
                            31 2.97  33 2.97   2 3.03  24 3.03
  46  0.000  0.000  0.590-  22 2.71  15 2.73   9 2.73  11 2.73  17 2.73  41 2.97  35 2.97  40 2.97
                            34 2.97  20 3.04   6 3.04
  47  0.333  0.333  0.350-   2 2.71  13 2.73   7 2.73  42 2.97  36 2.97   4 3.04  21 3.04
  48  0.667  0.667  0.470-  24 2.71   3 2.71   8 2.73  10 2.73  14 2.73  16 2.73  42 2.97  34 2.97
                            36 2.97  40 2.97  19 3.04   5 3.04
 
  LATTYP: Found a base centered monoclinic cell.
 ALAT       =    18.0783232505
 B/A-ratio  =     0.4416139705
 C/A-ratio  =     1.6682517486
 COS(beta)  =    -0.1243611174
  
  Lattice vectors:
  
 A1 = (   9.8813496165,   0.0000000000,   0.0000000000)
 A2 = (   6.6561571126,   7.3031940091,   0.0000000000)
 A3 = (  -3.4309646087,  -1.5151619036,  29.9250692821)


Analysis of symmetry for initial positions (statically):
=====================================================================
 Subroutine PRICEL returns:
 Original cell was already a primitive cell.
 

 Routine SETGRP: Setting up the symmetry group for a 
 base centered monoclinic supercell.


 Subroutine GETGRP returns: Found  2 space group operations
 (whereof  2 operations were pure point group operations)
 out of a pool of  4 trial point group operations.


The static configuration has the point symmetry C_1h.


Analysis of symmetry for dynamics (positions and initial velocities):
=====================================================================
 Subroutine PRICEL returns:
 Original cell was already a primitive cell.
 

 Routine SETGRP: Setting up the symmetry group for a 
 base centered monoclinic supercell.


 Subroutine GETGRP returns: Found  2 space group operations
 (whereof  2 operations were pure point group operations)
 out of a pool of  4 trial point group operations.


The dynamic configuration has the point symmetry C_1h.


 Subroutine INISYM returns: Found  2 space group operations
 (whereof  2 operations are pure point group operations),
 and found     1 'primitive' translations


----------------------------------------------------------------------------------------

                                     Primitive cell                                     

  volume of cell :    2159.5550

  direct lattice vectors                    reciprocal lattice vectors
     6.656157113  7.303194009  0.000000000     0.101200751  0.044691665  0.013865676
    -3.225192504  7.303194009  0.000000000    -0.101200751  0.092234726 -0.006932838
    -3.430964609 -1.515161904 29.925069282     0.000000000  0.000000000  0.033416798

  length of vectors
     9.881349616  7.983640111 30.159194374     0.111495264  0.137101790  0.033416798

  position of ions in fractional coordinates (direct lattice)
     0.999719976  0.000140012  0.320622185
     0.333053309  0.333473345  0.440303831
     0.666386642  0.666806679  0.559985478
     0.667209565  0.166395217  0.380315275
     0.000542899  0.499728551  0.499996921
     0.333876232  0.833061884  0.619678567
     0.166255205  0.166675242  0.380415816
     0.499588538  0.500008575  0.500097463
     0.832921872  0.833341908  0.619779109
     0.833744795  0.332930447  0.440108906
     0.167078128  0.666263780  0.559790552
     0.500411462  0.999597113  0.679472199
     0.166255205  0.667069553  0.380415816
     0.499588538  0.000402887  0.500097463
     0.832921872  0.333736220  0.619779109
     0.833744795  0.833324758  0.440108906
     0.167078128  0.166658092  0.559790552
     0.500411462  0.499991425  0.679472199
     0.332790435  0.833604783  0.440209448
     0.666123768  0.166938116  0.559891094
     0.999457101  0.500271449  0.320527801
     0.000280024  0.999859988  0.499902537
     0.333613358  0.333193321  0.619584184
     0.666946691  0.666526655  0.380220891
     0.000000000  1.000000000  0.410262361
     0.333333333  0.333333333  0.529944008
     0.666666667  0.666666667  0.649625654
     0.666666667  0.166666667  0.470103184
     0.000000000  0.500000000  0.589784831
     0.333333333  0.833333333  0.350421538
     0.166666667  0.166666667  0.470103184
     0.500000000  0.500000000  0.589784831
     0.833333333  0.833333333  0.350421538
     0.833333333  0.333333333  0.529944008
     0.166666667  0.666666667  0.649625654
     0.500000000  1.000000000  0.410262361
     0.166666667  0.666666667  0.470103184
     0.500000000  1.000000000  0.589784831
     0.833333333  0.333333333  0.350421538
     0.833333333  0.833333333  0.529944008
     0.166666667  0.166666667  0.649625654
     0.500000000  0.500000000  0.410262361
     0.333333333  0.833333333  0.529944008
     0.666666667  0.166666667  0.649625654
     0.000000000  0.500000000  0.410262361
     0.000000000  1.000000000  0.589784831
     0.333333333  0.333333333  0.350421538
     0.666666667  0.666666667  0.470103184

  ion indices of the primitive-cell ions
   primitive index   ion index
                 1           1
                 2           2
                 3           3
                 4           4
                 5           5
                 6           6
                 7           7
                 8           8
                 9           9
                10          10
                11          11
                12          12
                13          13
                14          14
                15          15
                16          16
                17          17
                18          18
                19          19
                20          20
                21          21
                22          22
                23          23
                24          24
                25          25
                26          26
                27          27
                28          28
                29          29
                30          30
                31          31
                32          32
                33          33
                34          34
                35          35
                36          36
                37          37
                38          38
                39          39
                40          40
                41          41
                42          42
                43          43
                44          44
                45          45
                46          46
                47          47
                48          48

----------------------------------------------------------------------------------------

 
 
 KPOINTS: K-Spacing Value to Generate K-Mesh: 0.03

Automatic generation of k-mesh.
 Grid dimensions read from file:
 generate k-points for:    4    5    1

 Generating k-lattice:

  Cartesian coordinates                     Fractional coordinates (reciprocal lattice)
     0.025300188  0.011172916  0.003466419     0.250000000  0.000000000  0.000000000
    -0.020240150  0.018446945 -0.001386568    -0.000000000  0.200000000  0.000000000
     0.000000000  0.000000000  0.033416798     0.000000000  0.000000000  1.000000000

  Length of vectors
     0.027873816  0.027420358  0.033416798

  Shift w.r.t. Gamma in fractional coordinates (k-lattice)
     0.000000000  0.000000000  0.000000000

 -----------------------------------------------------------------------------
|                                                                             |
|           W    W    AA    RRRRR   N    N  II  N    N   GGGG   !!!           |
|           W    W   A  A   R    R  NN   N  II  NN   N  G    G  !!!           |
|           W    W  A    A  R    R  N N  N  II  N N  N  G       !!!           |
|           W WW W  AAAAAA  RRRRR   N  N N  II  N  N N  G  GGG   !            |
|           WW  WW  A    A  R   R   N   NN  II  N   NN  G    G                |
|           W    W  A    A  R    R  N    N  II  N    N   GGGG   !!!           |
|                                                                             |
|     Your reciprocal lattice and k-lattice belong to different lattice       |
|     classes:                                                                |
|                                                                             |
|        The reciprocal lattice is base-centered monoclinic,                  |
|        whereas your k-lattice is triclinic.                                 |
|                                                                             |
|     Results are often still useful ...                                      |
|                                                                             |
 -----------------------------------------------------------------------------

 WARNING: IBZKPT: internal override: KBLOWUP is changed to .FALSE.
      ... skipping the blow-up phase ...

 
 Subroutine IBZKPT returns following result:
 ===========================================
 
 Found     11 irreducible k-points:
 
 Following reciprocal coordinates:
            Coordinates               Weight
  0.000000  0.000000  0.000000      1.000000
  0.250000  0.000000  0.000000      2.000000
  0.500000  0.000000  0.000000      1.000000
  0.000000  0.200000  0.000000      2.000000
  0.250000  0.200000  0.000000      2.000000
  0.500000  0.200000  0.000000      2.000000
 -0.250000  0.200000  0.000000      2.000000
  0.000000  0.400000  0.000000      2.000000
  0.250000  0.400000  0.000000      2.000000
  0.500000  0.400000  0.000000      2.000000
 -0.250000  0.400000  0.000000      2.000000
 
 Following cartesian coordinates:
            Coordinates               Weight
  0.000000  0.000000  0.000000      1.000000
  0.025300  0.011173  0.003466      2.000000
  0.050600  0.022346  0.006933      1.000000
 -0.020240  0.018447 -0.001387      2.000000
  0.005060  0.029620  0.002080      2.000000
  0.030360  0.040793  0.005546      2.000000
 -0.045540  0.007274 -0.004853      2.000000
 -0.040480  0.036894 -0.002773      2.000000
 -0.015180  0.048067  0.000693      2.000000
  0.010120  0.059240  0.004160      2.000000
 -0.065780  0.025721 -0.006240      2.000000
 


--------------------------------------------------------------------------------------------------------




 Dimension of arrays:
   k-points           NKPTS =     11   k-points in BZ     NKDIM =     11   number of bands    NBANDS=    256
   number of dos      NEDOS =    301   number of ions     NIONS =     48
   non local maximal  LDIM  =      6   non local SUM 2l+1 LMDIM =     18
   total plane-waves  NPLWV = 451584
   max r-space proj   IRMAX =      1   max aug-charges    IRDMAX=   8337
   dimension x,y,z NGX =    56 NGY =   48 NGZ =  168
   dimension x,y,z NGXF=   112 NGYF=   96 NGZF=  336
   support grid    NGXF=   112 NGYF=   96 NGZF=  336
   ions per type =              24   3  21
   NGX,Y,Z   is equivalent  to a cutoff of   9.42, 10.00,  9.26 a.u.
   NGXF,Y,Z  is equivalent  to a cutoff of  18.84, 19.99, 18.52 a.u.

 SYSTEM =  unknown system                          
 POSCAR =  Generated by VASPKIT code               

 Startparameter for this run:
   NWRITE =      2    write-flag & timer
   PREC   = n         normal or accurate (medium, high low for compatibility)
   ISTART =      0    job   : 0-new  1-cont  2-samecut
   ICHARG =      2    charge: 1-file 2-atom 10-const
   ISPIN  =      1    spin polarized calculation?
   LNONCOLLINEAR =      F non collinear calculations
   LSORBIT =      F    spin-orbit coupling
   INIWAV =      1    electr: 0-lowe 1-rand  2-diag
   LASPH  =      F    aspherical Exc in radial PAW
 Electronic Relaxation 1
   ENCUT  =  520.0 eV  38.22 Ry    6.18 a.u.  18.37 14.84 56.08*2*pi/ulx,y,z
   ENINI  =  520.0     initial cutoff
   ENAUG  =  490.7 eV  augmentation charge cutoff
   NELM   =    500;   NELMIN=  2; NELMDL= -5     # of ELM steps 
   EDIFF  = 0.1E-04   stopping-criterion for ELM
   LREAL  =      F    real-space projection
   NLSPLINE    = F    spline interpolate recip. space projectors
   LCOMPAT=      F    compatible to vasp.4.4
   GGA_COMPAT  = T    GGA compatible to vasp.4.4-vasp.4.6
   LMAXPAW     = -100 max onsite density
   LMAXMIX     =    2 max onsite mixed and CHGCAR
   VOSKOWN=      0    Vosko Wilk Nusair interpolation
   ROPT   =    0.00000   0.00000   0.00000
 Ionic relaxation
   EDIFFG = -.1E-01   stopping-criterion for IOM
   NSW    =      0    number of steps for IOM
   NBLOCK =      1;   KBLOCK =      1    inner block; outer block 
   IBRION =     -1    ionic relax: 0-MD 1-quasi-New 2-CG
   NFREE  =      0    steps in history (QN), initial steepest desc. (CG)
   ISIF   =      3    stress and relaxation
   IWAVPR =     10    prediction:  0-non 1-charg 2-wave 3-comb
   ISYM   =      2    0-nonsym 1-usesym 2-fastsym
   LCORR  =      T    Harris-Foulkes like correction to forces

   POTIM  = 0.5000    time-step for ionic-motion
   TEIN   =    0.0    initial temperature
   TEBEG  =    0.0;   TEEND  =   0.0 temperature during run
   SMASS  =  -3.00    Nose mass-parameter (am)
   estimated Nose-frequenzy (Omega)   =  0.10E-29 period in steps = 0.13E+47 mass=  -0.223E-26a.u.
   SCALEE = 1.0000    scale energy and forces
   NPACO  =    256;   APACO  = 10.0  distance and # of slots for P.C.
   PSTRESS=    0.0 pullay stress

  Mass of Ions in am
   POMASS =  47.88 69.72 26.98
  Ionic Valenz
   ZVAL   =  12.00 13.00  3.00
  Atomic Wigner-Seitz radii
   RWIGS  =  -1.00 -1.00 -1.00
  virtual crystal weights 
   VCA    =   1.00  1.00  1.00
   NELECT =     390.0000    total number of electrons
   NUPDOWN=      -1.0000    fix difference up-down

 DOS related values:
   EMIN   =  10.00;   EMAX   =-10.00  energy-range for DOS
   EFERMI =   0.00;   METHOD = LEGACY      
   ISMEAR =     1;   SIGMA  =   0.10  broadening in eV -4-tet -1-fermi 0-gaus
   EFERMI_NEDOS =   21; number of points for ismear=-14 and -15

 Electronic relaxation 2 (details)
   IALGO  =     38    algorithm
   LDIAG  =      T    sub-space diagonalisation (order eigenvalues)
   LSUBROT=      F    optimize rotation matrix (better conditioning)
   TURBO    =      0    0=normal 1=particle mesh
   IRESTART =      0    0=no restart 2=restart with 2 vectors
   NREBOOT  =      0    no. of reboots
   NMIN     =      0    reboot dimension
   EREF     =   0.00    reference energy to select bands
   IMIX   =      4    mixing-type and parameters
     AMIX     =   0.40;   BMIX     =  1.00
     AMIX_MAG =   1.60;   BMIX_MAG =  1.00
     AMIN     =   0.10
     WC   =   100.;   INIMIX=   1;  MIXPRE=   1;  MAXMIX= -45

 Intra band minimization:
   WEIMIN = 0.0000     energy-eigenvalue tresh-hold
   EBREAK =  0.98E-08  absolut break condition
   DEPER  =   0.30     relativ break condition  

   TIME   =   0.40     timestep for ELM

  volume/ion in A,a.u.               =      44.99       303.61
  Fermi-wavevector in a.u.,A,eV,Ry     =   0.925355  1.748667 11.650417  0.856281
  Thomas-Fermi vector in A             =   2.051200
 
 Write flags
   LWAVE        =      T    write WAVECAR
   LDOWNSAMPLE  =      F    k-point downsampling of WAVECAR
   LCHARG       =      T    write CHGCAR
   LVTOT        =      F    write LOCPOT, total local potential
   LVHAR        =      T    write LOCPOT, Hartree potential only
   WRT_POTENTIAL=  hartree ionic  ! write potential to hdf5 file
   LELF         =      F    write electronic localiz. function (ELF)
   LORBIT       =      0    0 simple, 1 ext, 2 COOP (PROOUT), +10 PAW based schemes


 Python interface
   PLUGINS active      =      F    recompile with -DPLUGINS to activate
 
 Dipole corrections
   LMONO      =      F    monopole corrections only (constant potential shift)
   LDIPOL     =      F    correct potential (dipole corrections)
   IDIPOL     =      0    1-x, 2-y, 3-z, 4-all directions 
   EPSILON    =  1.0000000 bulk dielectric constant
   LVACPOTAV  =      F  vacuum potentials using an averaging scheme for the charge density
   VACPOTFLAT =  0.1000000 required flatness to determine vacuum potential
 
Coulomb truncation method
  LTRUNCATE          =      F  Coulomb kernel truncation to be used
  IDIMENSIONALITY    =      3  Dimensionality of cutoff (0 molecules / 2 surfaces)
  ISURFACE           =     -1  Direction of surface normal
  LCOARSEN           =      F  Coarsen the charge grid before padding, preferred

 
 Exchange correlation treatment:
   GGA     = PE    functional components
   XC_C    = 1    coefficients multiplying the functional components
   LIBXC   =     F    Libxc                    
   VOSKOWN =     0    Vosko Wilk Nusair interpolation
   LHFCALC =     F    Hartree Fock is set to
   LHFONE  =     F    Hartree Fock one center treatment
   AEXX    =    0.0000 exact exchange contribution

 Parameters of functionals:
   PE:
     No parameter
 
 Van der Waals corrections
   IVDW    =     0    specifies the selected vdW correction

 Linear response parameters
   LEPSILON=     F    determine dielectric tensor
   LRPA    =     F    only Hartree local field effects (RPA)
   LNABLA  =     F    use nabla operator in PAW spheres
   LVEL    =     F    velocity operator in full k-point grid
   CSHIFT  =0.1000    complex shift for real part using Kramers Kronig
   OMEGAMAX=  -1.0    maximum frequency
   DEG_THRESHOLD= 0.2000000E-02 threshold for treating states as degnerate
   RTIME   =   -0.100 relaxation time in fs
  (WPLASMAI=    0.000 imaginary part of plasma frequency in eV, 0.658/RTIME)
   DFIELD  = 0.0000000 0.0000000 0.0000000 field for delta impulse in time
 
  Optional k-point grid parameters
   LKPOINTS_OPT  =     F    use optional k-point grid
   KPOINTS_OPT_MODE=     1    mode for optional k-point grid
 
 Orbital magnetization related:
   ORBITALMAG=     F  switch on orbital magnetization
   LCHIMAG   =     F  perturbation theory with respect to B field
   DQ        =  0.001000  dq finite difference perturbation B field
   LLRAUG    =     F  two centre corrections for induced B field
   LBONE     =     F  B-component reconstruction in AE one-centre
   LVGVCALC  =     T  calculate vGv susceptibility
   LVGVAPPL  =     F  apply vGv susceptibility instead of pGv for G=0

 Random number generation:
   RANDOM_GENERATOR = DEFAULT
   PCG_SEED         = not used


--------------------------------------------------------------------------------------------------------


 Static calculation
 charge density and potential will be updated during run
 non-spin polarized calculation
 Variant of blocked Davidson
 Davidson routine will perform the subspace rotation
 perform sub-space diagonalisation
    after iterative eigenvector-optimisation
 modified Broyden-mixing scheme, WC =      100.0
 initial mixing is a Kerker type mixing with AMIX =  0.4000 and BMIX =      1.0000
 Hartree-type preconditioning will be used
 using additional bands           61
 reciprocal scheme for non local part
 use partial core corrections
 calculate Harris-corrections to forces 
   (improved forces if not selfconsistent)
 use gradient corrections 
 use of overlap-Matrix (Vanderbilt PP)
 Methfessel and Paxton  Order N= 1 SIGMA  =   0.10


--------------------------------------------------------------------------------------------------------


  energy-cutoff  :      520.00
  volume of cell :     2159.55
      direct lattice vectors                 reciprocal lattice vectors
     6.656157113  7.303194009  0.000000000     0.101200751  0.044691665  0.013865676
    -3.225192504  7.303194009  0.000000000    -0.101200751  0.092234726 -0.006932838
    -3.430964609 -1.515161904 29.925069282     0.000000000  0.000000000  0.033416798

  length of vectors
     9.881349616  7.983640111 30.159194374     0.111495264  0.137101790  0.033416798


 
 k-points in units of 2pi/SCALE and weight: K-Spacing Value to Generate K-Mesh: 0.03
   0.00000000  0.00000000  0.00000000       0.050
   0.02530019  0.01117292  0.00346642       0.100
   0.05060038  0.02234583  0.00693284       0.050
  -0.02024015  0.01844695 -0.00138657       0.100
   0.00506004  0.02961986  0.00207985       0.100
   0.03036023  0.04079278  0.00554627       0.100
  -0.04554034  0.00727403 -0.00485299       0.100
  -0.04048030  0.03689389 -0.00277314       0.100
  -0.01518011  0.04806681  0.00069328       0.100
   0.01012008  0.05923972  0.00415970       0.100
  -0.06578049  0.02572097 -0.00623955       0.100
 
 k-points in reciprocal lattice and weights: K-Spacing Value to Generate K-Mesh: 0.03
   0.00000000  0.00000000  0.00000000       0.050
   0.25000000  0.00000000  0.00000000       0.100
   0.50000000  0.00000000  0.00000000       0.050
   0.00000000  0.20000000  0.00000000       0.100
   0.25000000  0.20000000  0.00000000       0.100
   0.50000000  0.20000000  0.00000000       0.100
  -0.25000000  0.20000000  0.00000000       0.100
   0.00000000  0.40000000  0.00000000       0.100
   0.25000000  0.40000000  0.00000000       0.100
   0.50000000  0.40000000  0.00000000       0.100
  -0.25000000  0.40000000  0.00000000       0.100
 
 position of ions in fractional coordinates (direct lattice) 
   0.99971998  0.00014001  0.32062219
   0.33305331  0.33347335  0.44030383
   0.66638664  0.66680668  0.55998548
   0.66720957  0.16639522  0.38031527
   0.00054290  0.49972855  0.49999692
   0.33387623  0.83306188  0.61967857
   0.16625521  0.16667524  0.38041582
   0.49958854  0.50000857  0.50009746
   0.83292187  0.83334191  0.61977911
   0.83374479  0.33293045  0.44010891
   0.16707813  0.66626378  0.55979055
   0.50041146  0.99959711  0.67947220
   0.16625521  0.66706955  0.38041582
   0.49958854  0.00040289  0.50009746
   0.83292187  0.33373622  0.61977911
   0.83374479  0.83332476  0.44010891
   0.16707813  0.16665809  0.55979055
   0.50041146  0.49999143  0.67947220
   0.33279043  0.83360478  0.44020945
   0.66612377  0.16693812  0.55989109
   0.99945710  0.50027145  0.32052780
   0.00028002  0.99985999  0.49990254
   0.33361336  0.33319332  0.61958418
   0.66694669  0.66652665  0.38022089
   0.00000000  0.00000000  0.41026236
   0.33333333  0.33333333  0.52994401
   0.66666667  0.66666667  0.64962565
   0.66666667  0.16666667  0.47010318
   0.00000000  0.50000000  0.58978483
   0.33333333  0.83333333  0.35042154
   0.16666667  0.16666667  0.47010318
   0.50000000  0.50000000  0.58978483
   0.83333333  0.83333333  0.35042154
   0.83333333  0.33333333  0.52994401
   0.16666667  0.66666667  0.64962565
   0.50000000  0.00000000  0.41026236
   0.16666667  0.66666667  0.47010318
   0.50000000  0.00000000  0.58978483
   0.83333333  0.33333333  0.35042154
   0.83333333  0.83333333  0.52994401
   0.16666667  0.16666667  0.64962565
   0.50000000  0.50000000  0.41026236
   0.33333333  0.83333333  0.52994401
   0.66666667  0.16666667  0.64962565
   0.00000000  0.50000000  0.41026236
   0.00000000  0.00000000  0.58978483
   0.33333333  0.33333333  0.35042154
   0.66666667  0.66666667  0.47010318
 
 position of ions in cartesian coordinates  (Angst):
   5.55379829  6.81637695  9.59464110
  -0.36932744  4.20064188 13.17612266
   0.36370393  8.88810081 16.75760421
   2.59954684  5.51173824 11.38096095
  -3.32357890  2.89600317 14.96244251
  -2.59054752  7.58346210 18.54392406
  -0.73613218  1.85506409 11.38396966
  -0.00310080  6.54252303 14.96545121
   0.72993058 11.22998196 18.54693277
   2.96577348  7.85361939 13.17028951
  -2.95735225  5.23788431 16.75177107
  -2.22432087  9.92534325 20.33325262
  -2.35000016  5.50954083 11.38396966
   1.60822372  2.89380576 14.96545121
   2.34125510  7.58126469 18.54693277
   1.35190550 11.50809613 13.17028951
  -1.34602773  1.58916704 16.75177107
  -0.61299635  6.27662598 20.33325262
  -1.98377351  7.85142198 13.17329822
   1.97445037  5.23568690 16.75477977
   3.93935222 10.46715705  9.59181666
  -4.93802497  6.54678326 14.95961807
  -0.97980109  3.93104819 18.54109962
   0.98510077  9.16251834 11.37813651
  -1.40759564 -0.62161390 12.27712958
  -0.67456426  4.06584503 15.85861114
   0.05846711  8.75330397 19.44009270
   2.28699860  5.37371257 14.06787036
  -3.63612713  2.75797750 17.64935192
  -1.67122528  7.98944765 10.48638881
  -1.04107995  1.72211557 14.06787036
  -0.30804858  6.40957450 17.64935192
   1.65685328 11.64104465 10.48638881
   2.65351429  7.71744204 15.85861114
  -3.26961144  5.10170697 19.44009270
   1.92048291  3.02998310 12.27712958
  -2.65367621  5.37371257 14.06787036
   1.30454768  2.75797750 17.64935192
   3.26944953  7.98944765 10.48638881
   1.04091804 11.36903904 15.85861114
  -1.65701519  1.45010996 19.44009270
   0.30788666  6.68158011 12.27712958
  -2.28716052  7.71744204 15.85861114
   1.67106336  5.10170697 19.44009270
  -3.02019189  3.02998310 12.27712958
  -2.02353088 -0.89361951 17.64935192
  -0.05862903  4.33785064 10.48638881
   0.67440235  9.02530958 14.06787036
 


--------------------------------------------------------------------------------------------------------


 k-point     1 :   0.0000 0.0000 0.0000  plane waves:   58113
 k-point     2 :   0.2500 0.0000 0.0000  plane waves:   58124
 k-point     3 :   0.5000 0.0000 0.0000  plane waves:   58112
 k-point     4 :   0.0000 0.2000 0.0000  plane waves:   58160
 k-point     5 :   0.2500 0.2000 0.0000  plane waves:   58145
 k-point     6 :   0.5000 0.2000 0.0000  plane waves:   58112
 k-point     7 :  -0.2500 0.2000 0.0000  plane waves:   58120
 k-point     8 :   0.0000 0.4000 0.0000  plane waves:   58179
 k-point     9 :   0.2500 0.4000 0.0000  plane waves:   58186
 k-point    10 :   0.5000 0.4000 0.0000  plane waves:   58164
 k-point    11 :  -0.2500 0.4000 0.0000  plane waves:   58158

 maximum and minimum number of plane-waves per node :     58186    58112

 maximum number of plane-waves:     58186
 maximum index in each direction: 
   IXMAX=   18   IYMAX=   14   IZMAX=   56
   IXMIN=  -18   IYMIN=  -15   IZMIN=  -56


 serial   3D FFT for wavefunctions
 parallel 3D FFT for charge:
    minimum data exchange during FFTs selected (reduces bandwidth)


 total amount of memory used by VASP MPI-rank0   419909. kBytes
=======================================================================

   base                                    :      30000. kBytes
   nonl-proj                               :     321484. kBytes
   fftplans                                :       3930. kBytes
   grid                                    :      22253. kBytes
   one-center                              :        746. kBytes
   wavefun                                 :      41496. kBytes
 
     INWAV:  cpu time      0.0000: real time      0.0000
 Broyden mixing: mesh for mixing (old mesh)
   NGX = 37   NGY = 29   NGZ =113
  (NGX  =112   NGY  = 96   NGZ  =336)
  gives a total of 121249 points

 initial charge density was supplied:
 charge density of overlapping atoms calculated
 number of electron     390.0000000 magnetization 
 keeping initial charge density in first step


--------------------------------------------------------------------------------------------------------


 Maximum index for augmentation-charges          459 (set IRDMAX)


--------------------------------------------------------------------------------------------------------


 First call to EWALD:  gamma=   0.137
 Maximum number of real-space cells   4x   4x   1
 Maximum number of reciprocal cells   2x   2x   6

    FEWALD:  cpu time      0.0022: real time      0.0022


--------------------------------------- Ionic step        1  -------------------------------------------




--------------------------------------- Iteration      1(   1)  ---------------------------------------


    POTLOK:  cpu time      0.0928: real time      0.0928
    SETDIJ:  cpu time      0.0026: real time      0.0026
     EDDAV:  cpu time     22.2430: real time     22.2454
       DOS:  cpu time      0.0005: real time      0.0005
    --------------------------------------------
      LOOP:  cpu time     22.3389: real time     22.3414

 eigenvalue-minimisations  :  6336
 total energy-change (2. order) : 0.3736683E+04  (-0.1956204E+05)
 number of electron     390.0000000 magnetization 
 augmentation part      390.0000000 magnetization 

 Free energy of the ion-electron system (eV)
  ---------------------------------------------------
  alpha Z        PSCENC =       411.12548395
  Ewald energy   TEWEN  =    164138.59212891
  -Hartree energ DENC   =   -203407.20020011
  -exchange      EXHF   =         0.00000000
  -V(xc)+E(xc)   XCENC  =      1060.84357592
  PAW double counting   =     36549.23505240   -36408.81157157
  entropy T*S    EENTRO =         0.01473873
  eigenvalues    EBANDS =     -4291.94478875
  atomic energy  EATOM  =     45684.82891484
  Solvation  Ediel_sol  =         0.00000000
  ---------------------------------------------------
  free energy    TOTEN  =      3736.68333433 eV

  energy without entropy =     3736.66859561  energy(sigma->0) =     3736.67842143


--------------------------------------------------------------------------------------------------------




--------------------------------------- Iteration      1(   2)  ---------------------------------------


     EDDAV:  cpu time     20.5647: real time     20.5661
       DOS:  cpu time      0.0005: real time      0.0005
    --------------------------------------------
      LOOP:  cpu time     20.5652: real time     20.5666

 eigenvalue-minimisations  :  5760
 total energy-change (2. order) :-0.3549186E+04  (-0.3457068E+04)
 number of electron     390.0000000 magnetization 
 augmentation part      390.0000000 magnetization 

 Free energy of the ion-electron system (eV)
  ---------------------------------------------------
  alpha Z        PSCENC =       411.12548395
  Ewald energy   TEWEN  =    164138.59212891
  -Hartree energ DENC   =   -203407.20020011
  -exchange      EXHF   =         0.00000000
  -V(xc)+E(xc)   XCENC  =      1060.84357592
  PAW double counting   =     36549.23505240   -36408.81157157
  entropy T*S    EENTRO =        -0.00175625
  eigenvalues    EBANDS =     -7841.11386655
  atomic energy  EATOM  =     45684.82891484
  Solvation  Ediel_sol  =         0.00000000
  ---------------------------------------------------
  free energy    TOTEN  =       187.49776156 eV

  energy without entropy =      187.49951781  energy(sigma->0) =      187.49834698


--------------------------------------------------------------------------------------------------------




--------------------------------------- Iteration      1(   3)  ---------------------------------------


     EDDAV:  cpu time     35.8877: real time     35.8918
       DOS:  cpu time      0.0005: real time      0.0005
    --------------------------------------------
      LOOP:  cpu time     35.8882: real time     35.8923

 eigenvalue-minimisations  : 10432
 total energy-change (2. order) :-0.4375641E+03  (-0.4244680E+03)
 number of electron     390.0000000 magnetization 
 augmentation part      390.0000000 magnetization 

 Free energy of the ion-electron system (eV)
  ---------------------------------------------------
  alpha Z        PSCENC =       411.12548395
  Ewald energy   TEWEN  =    164138.59212891
  -Hartree energ DENC   =   -203407.20020011
  -exchange      EXHF   =         0.00000000
  -V(xc)+E(xc)   XCENC  =      1060.84357592
  PAW double counting   =     36549.23505240   -36408.81157157
  entropy T*S    EENTRO =         0.00790986
  eigenvalues    EBANDS =     -8278.68762966
  atomic energy  EATOM  =     45684.82891484
  Solvation  Ediel_sol  =         0.00000000
  ---------------------------------------------------
  free energy    TOTEN  =      -250.06633544 eV

  energy without entropy =     -250.07424530  energy(sigma->0) =     -250.06897206


--------------------------------------------------------------------------------------------------------




--------------------------------------- Iteration      1(   4)  ---------------------------------------


     EDDAV:  cpu time     32.8385: real time     32.8435
       DOS:  cpu time      0.0005: real time      0.0005
    --------------------------------------------
      LOOP:  cpu time     32.8390: real time     32.8440

 eigenvalue-minimisations  :  9600
 total energy-change (2. order) :-0.7178736E+02  (-0.7096709E+02)
 number of electron     390.0000000 magnetization 
 augmentation part      390.0000000 magnetization 

 Free energy of the ion-electron system (eV)
  ---------------------------------------------------
  alpha Z        PSCENC =       411.12548395
  Ewald energy   TEWEN  =    164138.59212891
  -Hartree energ DENC   =   -203407.20020011
  -exchange      EXHF   =         0.00000000
  -V(xc)+E(xc)   XCENC  =      1060.84357592
  PAW double counting   =     36549.23505240   -36408.81157157
  entropy T*S    EENTRO =         0.00690343
  eigenvalues    EBANDS =     -8350.47398549
  atomic energy  EATOM  =     45684.82891484
  Solvation  Ediel_sol  =         0.00000000
  ---------------------------------------------------
  free energy    TOTEN  =      -321.85369771 eV

  energy without entropy =     -321.86060114  energy(sigma->0) =     -321.85599885


--------------------------------------------------------------------------------------------------------




--------------------------------------- Iteration      1(   5)  ---------------------------------------


     EDDAV:  cpu time     29.3917: real time     29.4071
       DOS:  cpu time      0.0005: real time      0.0005
    CHARGE:  cpu time      0.2903: real time      0.2903
    MIXING:  cpu time      0.0010: real time      0.0010
    --------------------------------------------
      LOOP:  cpu time     29.6834: real time     29.6989

 eigenvalue-minimisations  :  8576
 total energy-change (2. order) :-0.6893411E+01  (-0.6891368E+01)
 number of electron     389.9999737 magnetization 
 augmentation part      107.2890358 magnetization 

 Broyden mixing:
  rms(total) = 0.48503E+01    rms(broyden)= 0.48503E+01
  rms(prec ) = 0.52627E+01
  weight for this iteration     100.00

 Free energy of the ion-electron system (eV)
  ---------------------------------------------------
  alpha Z        PSCENC =       411.12548395
  Ewald energy   TEWEN  =    164138.59212891
  -Hartree energ DENC   =   -203407.20020011
  -exchange      EXHF   =         0.00000000
  -V(xc)+E(xc)   XCENC  =      1060.84357592
  PAW double counting   =     36549.23505240   -36408.81157157
  entropy T*S    EENTRO =         0.00725586
  eigenvalues    EBANDS =     -8357.36774908
  atomic energy  EATOM  =     45684.82891484
  Solvation  Ediel_sol  =         0.00000000
  ---------------------------------------------------
  free energy    TOTEN  =      -328.74710887 eV

  energy without entropy =     -328.75436473  energy(sigma->0) =     -328.74952749


--------------------------------------------------------------------------------------------------------




--------------------------------------- Iteration      1(   6)  ---------------------------------------


    POTLOK:  cpu time      0.0487: real time      0.0487
    SETDIJ:  cpu time      0.0027: real time      0.0027
     EDDAV:  cpu time     33.7340: real time     33.7430
       DOS:  cpu time      0.0005: real time      0.0005
    CHARGE:  cpu time      0.2890: real time      0.2891
    MIXING:  cpu time      0.0010: real time      0.0010
    --------------------------------------------
      LOOP:  cpu time     34.0759: real time     34.0850

 eigenvalue-minimisations  :  9856
 total energy-change (2. order) :-0.5409495E+02  (-0.1046255E+03)
 number of electron     389.9999705 magnetization 
 augmentation part      129.8630803 magnetization 

 Broyden mixing:
  rms(total) = 0.92538E+01    rms(broyden)= 0.92537E+01
  rms(prec ) = 0.11056E+02
  weight for this iteration     100.00

 eigenvalues of (default mixing * dielectric matrix)
  average eigenvalue GAMMA=   0.3032
  0.3032

 Free energy of the ion-electron system (eV)
  ---------------------------------------------------
  alpha Z        PSCENC =       411.12548395
  Ewald energy   TEWEN  =    164138.59212891
  -Hartree energ DENC   =   -203410.39324718
  -exchange      EXHF   =         0.00000000
  -V(xc)+E(xc)   XCENC  =      1025.49308206
  PAW double counting   =     39036.74720236   -38917.03208173
  entropy T*S    EENTRO =        -0.00918627
  eigenvalues    EBANDS =     -8352.19435704
  atomic energy  EATOM  =     45684.82891484
  Solvation  Ediel_sol  =         0.00000000
  ---------------------------------------------------
  free energy    TOTEN  =      -382.84206009 eV

  energy without entropy =     -382.83287382  energy(sigma->0) =     -382.83899800


--------------------------------------------------------------------------------------------------------




--------------------------------------- Iteration      1(   7)  ---------------------------------------


    POTLOK:  cpu time      0.0464: real time      0.0465
    SETDIJ:  cpu time      0.0026: real time      0.0026
     EDDAV:  cpu time     28.9779: real time     28.9830
       DOS:  cpu time      0.0005: real time      0.0005
    CHARGE:  cpu time      0.2951: real time      0.2952
    MIXING:  cpu time      0.0011: real time      0.0011
    --------------------------------------------
      LOOP:  cpu time     29.3236: real time     29.3288

 eigenvalue-minimisations  :  8320
 total energy-change (2. order) : 0.7999098E+02  (-0.1226976E+03)
 number of electron     389.9999695 magnetization 
 augmentation part      121.0936047 magnetization 

 Broyden mixing:
  rms(total) = 0.38429E+01    rms(broyden)= 0.38426E+01
  rms(prec ) = 0.47738E+01
  weight for this iteration     100.00

 eigenvalues of (default mixing * dielectric matrix)
  average eigenvalue GAMMA=   0.4593
  0.7126  0.2060

 Free energy of the ion-electron system (eV)
  ---------------------------------------------------
  alpha Z        PSCENC =       411.12548395
  Ewald energy   TEWEN  =    164138.59212891
  -Hartree energ DENC   =   -203016.38217924
  -exchange      EXHF   =         0.00000000
  -V(xc)+E(xc)   XCENC  =      1034.73686786
  PAW double counting   =     39541.18441979   -39414.74442061
  entropy T*S    EENTRO =        -0.00786004
  eigenvalues    EBANDS =     -8682.18443202
  atomic energy  EATOM  =     45684.82891484
  Solvation  Ediel_sol  =         0.00000000
  ---------------------------------------------------
  free energy    TOTEN  =      -302.85107655 eV

  energy without entropy =     -302.84321651  energy(sigma->0) =     -302.84845654


--------------------------------------------------------------------------------------------------------




--------------------------------------- Iteration      1(   8)  ---------------------------------------


    POTLOK:  cpu time      0.0504: real time      0.0504
    SETDIJ:  cpu time      0.0026: real time      0.0026
     EDDAV:  cpu time     26.8918: real time     26.8936
       DOS:  cpu time      0.0005: real time      0.0005
    CHARGE:  cpu time      0.2850: real time      0.2850
    MIXING:  cpu time      0.0011: real time      0.0011
    --------------------------------------------
      LOOP:  cpu time     27.2315: real time     27.2332

 eigenvalue-minimisations  :  7744
 total energy-change (2. order) : 0.1345767E+02  (-0.2418613E+02)
 number of electron     389.9999721 magnetization 
 augmentation part      112.8518169 magnetization 

 Broyden mixing:
  rms(total) = 0.28804E+01    rms(broyden)= 0.28804E+01
  rms(prec ) = 0.34057E+01
  weight for this iteration     100.00

 eigenvalues of (default mixing * dielectric matrix)
  average eigenvalue GAMMA=   0.4183
  0.8234  0.2157  0.2157

 Free energy of the ion-electron system (eV)
  ---------------------------------------------------
  alpha Z        PSCENC =       411.12548395
  Ewald energy   TEWEN  =    164138.59212891
  -Hartree energ DENC   =   -203566.59347185
  -exchange      EXHF   =         0.00000000
  -V(xc)+E(xc)   XCENC  =      1043.01687870
  PAW double counting   =     40696.43459365   -40558.12748137
  entropy T*S    EENTRO =        -0.01373017
  eigenvalues    EBANDS =     -8138.65671975
  atomic energy  EATOM  =     45684.82891484
  Solvation  Ediel_sol  =         0.00000000
  ---------------------------------------------------
  free energy    TOTEN  =      -289.39340308 eV

  energy without entropy =     -289.37967291  energy(sigma->0) =     -289.38882635


--------------------------------------------------------------------------------------------------------




--------------------------------------- Iteration      1(   9)  ---------------------------------------


    POTLOK:  cpu time      0.0469: real time      0.0469
    SETDIJ:  cpu time      0.0026: real time      0.0026
     EDDAV:  cpu time     28.5829: real time     28.5842
       DOS:  cpu time      0.0005: real time      0.0005
    CHARGE:  cpu time      0.2857: real time      0.2857
    MIXING:  cpu time      0.0010: real time      0.0010
    --------------------------------------------
      LOOP:  cpu time     28.9198: real time     28.9210

 eigenvalue-minimisations  :  8256
 total energy-change (2. order) : 0.6803109E+01  (-0.5877841E+01)
 number of electron     389.9999724 magnetization 
 augmentation part      112.0524289 magnetization 

 Broyden mixing:
  rms(total) = 0.21550E+01    rms(broyden)= 0.21549E+01
  rms(prec ) = 0.29691E+01
  weight for this iteration     100.00

 eigenvalues of (default mixing * dielectric matrix)
  average eigenvalue GAMMA=   0.4241
  0.9912  0.2713  0.2713  0.1628

 Free energy of the ion-electron system (eV)
  ---------------------------------------------------
  alpha Z        PSCENC =       411.12548395
  Ewald energy   TEWEN  =    164138.59212891
  -Hartree energ DENC   =   -203519.89115238
  -exchange      EXHF   =         0.00000000
  -V(xc)+E(xc)   XCENC  =      1041.74212674
  PAW double counting   =     41037.47834372   -40896.64440257
  entropy T*S    EENTRO =         0.00955167
  eigenvalues    EBANDS =     -8179.83128901
  atomic energy  EATOM  =     45684.82891484
  Solvation  Ediel_sol  =         0.00000000
  ---------------------------------------------------
  free energy    TOTEN  =      -282.59029410 eV

  energy without entropy =     -282.59984577  energy(sigma->0) =     -282.59347799


--------------------------------------------------------------------------------------------------------




--------------------------------------- Iteration      1(  10)  ---------------------------------------


    POTLOK:  cpu time      0.0473: real time      0.0473
    SETDIJ:  cpu time      0.0026: real time      0.0026
     EDDAV:  cpu time     31.2192: real time     31.2209
       DOS:  cpu time      0.0005: real time      0.0005
    CHARGE:  cpu time      0.2900: real time      0.2900
    MIXING:  cpu time      0.0011: real time      0.0011
    --------------------------------------------
      LOOP:  cpu time     31.5607: real time     31.5625

 eigenvalue-minimisations  :  9152
 total energy-change (2. order) : 0.1904972E+01  (-0.4135683E+01)
 number of electron     389.9999723 magnetization 
 augmentation part      112.1748141 magnetization 

 Broyden mixing:
  rms(total) = 0.19671E+01    rms(broyden)= 0.19670E+01
  rms(prec ) = 0.27010E+01
  weight for this iteration     100.00

 eigenvalues of (default mixing * dielectric matrix)
  average eigenvalue GAMMA=   0.4898
  1.4571  0.3597  0.3597  0.1759  0.0962

 Free energy of the ion-electron system (eV)
  ---------------------------------------------------
  alpha Z        PSCENC =       411.12548395
  Ewald energy   TEWEN  =    164138.59212891
  -Hartree energ DENC   =   -203474.82190422
  -exchange      EXHF   =         0.00000000
  -V(xc)+E(xc)   XCENC  =      1040.36533562
  PAW double counting   =     41302.94726319   -41159.82334848
  entropy T*S    EENTRO =        -0.02088486
  eigenvalues    EBANDS =     -8223.87831105
  atomic energy  EATOM  =     45684.82891484
  Solvation  Ediel_sol  =         0.00000000
  ---------------------------------------------------
  free energy    TOTEN  =      -280.68532210 eV

  energy without entropy =     -280.66443724  energy(sigma->0) =     -280.67836048


--------------------------------------------------------------------------------------------------------




--------------------------------------- Iteration      1(  11)  ---------------------------------------


    POTLOK:  cpu time      0.0471: real time      0.0471
    SETDIJ:  cpu time      0.0026: real time      0.0026
     EDDAV:  cpu time     27.4312: real time     27.4316
       DOS:  cpu time      0.0005: real time      0.0005
    CHARGE:  cpu time      0.2882: real time      0.2882
    MIXING:  cpu time      0.0011: real time      0.0011
    --------------------------------------------
      LOOP:  cpu time     27.7706: real time     27.7710

 eigenvalue-minimisations  :  8000
 total energy-change (2. order) : 0.6297481E+01  (-0.2232098E+01)
 number of electron     389.9999721 magnetization 
 augmentation part      113.5012418 magnetization 

 Broyden mixing:
  rms(total) = 0.12749E+01    rms(broyden)= 0.12749E+01
  rms(prec ) = 0.14674E+01
  weight for this iteration     100.00

 eigenvalues of (default mixing * dielectric matrix)
  average eigenvalue GAMMA=   0.5047
  1.6583  0.4181  0.4181  0.2275  0.2141  0.0923

 Free energy of the ion-electron system (eV)
  ---------------------------------------------------
  alpha Z        PSCENC =       411.12548395
  Ewald energy   TEWEN  =    164138.59212891
  -Hartree energ DENC   =   -203412.73690644
  -exchange      EXHF   =         0.00000000
  -V(xc)+E(xc)   XCENC  =      1037.03892253
  PAW double counting   =     42016.34763734   -41865.56177513
  entropy T*S    EENTRO =        -0.00869022
  eigenvalues    EBANDS =     -8284.01355728
  atomic energy  EATOM  =     45684.82891484
  Solvation  Ediel_sol  =         0.00000000
  ---------------------------------------------------
  free energy    TOTEN  =      -274.38784148 eV

  energy without entropy =     -274.37915126  energy(sigma->0) =     -274.38494474


--------------------------------------------------------------------------------------------------------




--------------------------------------- Iteration      1(  12)  ---------------------------------------


    POTLOK:  cpu time      0.0470: real time      0.0470
    SETDIJ:  cpu time      0.0027: real time      0.0027
     EDDAV:  cpu time     29.0205: real time     29.0223
       DOS:  cpu time      0.0005: real time      0.0005
    CHARGE:  cpu time      0.2861: real time      0.2862
    MIXING:  cpu time      0.0011: real time      0.0011
    --------------------------------------------
      LOOP:  cpu time     29.3580: real time     29.3598

 eigenvalue-minimisations  :  8448
 total energy-change (2. order) : 0.1749685E+01  (-0.8029080E+00)
 number of electron     389.9999720 magnetization 
 augmentation part      114.1077886 magnetization 

 Broyden mixing:
  rms(total) = 0.85522E+00    rms(broyden)= 0.85521E+00
  rms(prec ) = 0.97680E+00
  weight for this iteration     100.00

 eigenvalues of (default mixing * dielectric matrix)
  average eigenvalue GAMMA=   0.5763
  1.9549  0.8406  0.4063  0.3058  0.2422  0.1921  0.0921

 Free energy of the ion-electron system (eV)
  ---------------------------------------------------
  alpha Z        PSCENC =       411.12548395
  Ewald energy   TEWEN  =    164138.59212891
  -Hartree energ DENC   =   -203429.55758256
  -exchange      EXHF   =         0.00000000
  -V(xc)+E(xc)   XCENC  =      1035.79664806
  PAW double counting   =     42471.90077067   -42312.95241278
  entropy T*S    EENTRO =        -0.00381490
  eigenvalues    EBANDS =     -8272.36829245
  atomic energy  EATOM  =     45684.82891484
  Solvation  Ediel_sol  =         0.00000000
  ---------------------------------------------------
  free energy    TOTEN  =      -272.63815626 eV

  energy without entropy =     -272.63434136  energy(sigma->0) =     -272.63688462


--------------------------------------------------------------------------------------------------------




--------------------------------------- Iteration      1(  13)  ---------------------------------------


    POTLOK:  cpu time      0.0470: real time      0.0470
    SETDIJ:  cpu time      0.0026: real time      0.0026
     EDDAV:  cpu time     26.8734: real time     26.8738
       DOS:  cpu time      0.0006: real time      0.0005
    CHARGE:  cpu time      0.2861: real time      0.2861
    MIXING:  cpu time      0.0011: real time      0.0011
    --------------------------------------------
      LOOP:  cpu time     27.2108: real time     27.2113

 eigenvalue-minimisations  :  7744
 total energy-change (2. order) : 0.6574108E+00  (-0.8767949E+00)
 number of electron     389.9999717 magnetization 
 augmentation part      114.9486436 magnetization 

 Broyden mixing:
  rms(total) = 0.71455E+00    rms(broyden)= 0.71452E+00
  rms(prec ) = 0.81771E+00
  weight for this iteration     100.00

 eigenvalues of (default mixing * dielectric matrix)
  average eigenvalue GAMMA=   0.5747
  1.7780  1.0720  0.4980  0.4980  0.1885  0.2407  0.2305  0.0921

 Free energy of the ion-electron system (eV)
  ---------------------------------------------------
  alpha Z        PSCENC =       411.12548395
  Ewald energy   TEWEN  =    164138.59212891
  -Hartree energ DENC   =   -203494.70012918
  -exchange      EXHF   =         0.00000000
  -V(xc)+E(xc)   XCENC  =      1034.79018739
  PAW double counting   =     43089.90480113   -42915.04265356
  entropy T*S    EENTRO =         0.00363403
  eigenvalues    EBANDS =     -8221.48311295
  atomic energy  EATOM  =     45684.82891484
  Solvation  Ediel_sol  =         0.00000000
  ---------------------------------------------------
  free energy    TOTEN  =      -271.98074544 eV

  energy without entropy =     -271.98437947  energy(sigma->0) =     -271.98195678


--------------------------------------------------------------------------------------------------------




--------------------------------------- Iteration      1(  14)  ---------------------------------------


    POTLOK:  cpu time      0.0472: real time      0.0472
    SETDIJ:  cpu time      0.0027: real time      0.0027
     EDDAV:  cpu time     26.8838: real time     26.8854
       DOS:  cpu time      0.0005: real time      0.0005
    CHARGE:  cpu time      0.2898: real time      0.2898
    MIXING:  cpu time      0.0013: real time      0.0013
    --------------------------------------------
      LOOP:  cpu time     27.2252: real time     27.2269

 eigenvalue-minimisations  :  7744
 total energy-change (2. order) : 0.1079589E+00  (-0.4098040E+00)
 number of electron     389.9999719 magnetization 
 augmentation part      114.5002420 magnetization 

 Broyden mixing:
  rms(total) = 0.55759E+00    rms(broyden)= 0.55757E+00
  rms(prec ) = 0.63316E+00
  weight for this iteration     100.00

 eigenvalues of (default mixing * dielectric matrix)
  average eigenvalue GAMMA=   0.6009
  1.6191  1.6191  0.6721  0.4942  0.0921  0.2884  0.2509  0.1976  0.1744

 Free energy of the ion-electron system (eV)
  ---------------------------------------------------
  alpha Z        PSCENC =       411.12548395
  Ewald energy   TEWEN  =    164138.59212891
  -Hartree energ DENC   =   -203508.01459457
  -exchange      EXHF   =         0.00000000
  -V(xc)+E(xc)   XCENC  =      1035.32067399
  PAW double counting   =     43113.43565908   -42932.78354173
  entropy T*S    EENTRO =         0.00863734
  eigenvalues    EBANDS =     -8214.38614838
  atomic energy  EATOM  =     45684.82891484
  Solvation  Ediel_sol  =         0.00000000
  ---------------------------------------------------
  free energy    TOTEN  =      -271.87278655 eV

  energy without entropy =     -271.88142390  energy(sigma->0) =     -271.87566567


--------------------------------------------------------------------------------------------------------




--------------------------------------- Iteration      1(  15)  ---------------------------------------


    POTLOK:  cpu time      0.0474: real time      0.0474
    SETDIJ:  cpu time      0.0027: real time      0.0027
     EDDAV:  cpu time     26.9368: real time     26.9415
       DOS:  cpu time      0.0005: real time      0.0005
    CHARGE:  cpu time      0.2891: real time      0.2891
    MIXING:  cpu time      0.0013: real time      0.0013
    --------------------------------------------
      LOOP:  cpu time     27.2777: real time     27.2825

 eigenvalue-minimisations  :  7744
 total energy-change (2. order) : 0.1188303E+00  (-0.2714504E+00)
 number of electron     389.9999720 magnetization 
 augmentation part      114.1722068 magnetization 

 Broyden mixing:
  rms(total) = 0.42057E+00    rms(broyden)= 0.42055E+00
  rms(prec ) = 0.50024E+00
  weight for this iteration     100.00

 eigenvalues of (default mixing * dielectric matrix)
  average eigenvalue GAMMA=   0.6662
  1.9622  1.9622  0.8336  0.4806  0.4806  0.2471  0.2471  0.0921  0.1904  0.1666

 Free energy of the ion-electron system (eV)
  ---------------------------------------------------
  alpha Z        PSCENC =       411.12548395
  Ewald energy   TEWEN  =    164138.59212891
  -Hartree energ DENC   =   -203528.14733647
  -exchange      EXHF   =         0.00000000
  -V(xc)+E(xc)   XCENC  =      1036.03773829
  PAW double counting   =     43091.21323689   -42904.38386056
  entropy T*S    EENTRO =         0.00001298
  eigenvalues    EBANDS =     -8201.02027514
  atomic energy  EATOM  =     45684.82891484
  Solvation  Ediel_sol  =         0.00000000
  ---------------------------------------------------
  free energy    TOTEN  =      -271.75395629 eV

  energy without entropy =     -271.75396927  energy(sigma->0) =     -271.75396062


--------------------------------------------------------------------------------------------------------




--------------------------------------- Iteration      1(  16)  ---------------------------------------


    POTLOK:  cpu time      0.0470: real time      0.0470
    SETDIJ:  cpu time      0.0026: real time      0.0026
     EDDAV:  cpu time     26.7676: real time     26.7711
       DOS:  cpu time      0.0005: real time      0.0005
    CHARGE:  cpu time      0.2890: real time      0.2890
    MIXING:  cpu time      0.0013: real time      0.0013
    --------------------------------------------
      LOOP:  cpu time     27.1080: real time     27.1115

 eigenvalue-minimisations  :  7744
 total energy-change (2. order) : 0.3403490E-01  (-0.1836517E+00)
 number of electron     389.9999719 magnetization 
 augmentation part      114.2399570 magnetization 

 Broyden mixing:
  rms(total) = 0.39741E+00    rms(broyden)= 0.39740E+00
  rms(prec ) = 0.46342E+00
  weight for this iteration     100.00

 eigenvalues of (default mixing * dielectric matrix)
  average eigenvalue GAMMA=   0.6601
  2.0623  2.0623  0.8639  0.6068  0.4928  0.0921  0.2811  0.2240  0.2240  0.1883
  0.1633

 Free energy of the ion-electron system (eV)
[...]
    238       2.2639     -0.00000
    239       2.2814     -0.00000
    240       2.3175     -0.00000
    241       2.3719     -0.00000
    242       2.3757     -0.00000
    243       2.3914     -0.00000
    244       2.4096     -0.00000
    245       2.4200     -0.00000
    246       2.4986     -0.00000
    247       2.5247     -0.00000
    248       2.5487     -0.00000
    249       2.6055     -0.00000
    250       2.6205     -0.00000
    251       2.6344     -0.00000
    252       2.6601     -0.00000
    253       2.6757     -0.00000
    254       2.6840     -0.00000
    255       2.7476     -0.00000
    256       2.7534     -0.00000


--------------------------------------------------------------------------------------------------------


 soft charge-density along one line, spin component           1
         0         1         2         3         4         5         6         7         8         9
 total charge-density along one line
 
 pseudopotential strength for first ion, spin component:           1
 -2.723 -24.073   0.009  -0.022   0.021  -0.008   0.001  -0.019
-24.073  11.299   0.002   0.033   0.004   0.001  -0.003   0.003
  0.009   0.002 -27.370   0.017  -0.004  10.509  -0.011   0.004
 -0.022   0.033   0.017 -27.529   0.039  -0.011  10.614  -0.026
  0.021   0.004  -0.004   0.039 -27.377   0.004  -0.026  10.516
 -0.008   0.001  10.509  -0.011   0.004   5.047   0.005   0.000
  0.001  -0.003  -0.011  10.614  -0.026   0.005   5.008   0.011
 -0.019   0.003   0.004  -0.026  10.516   0.000   0.011   5.047
 -0.001  -0.004   0.016   0.001   0.005  -0.011  -0.001  -0.003
  0.013   0.003  -0.002   0.006   0.001   0.001  -0.004  -0.001
 -0.066  -0.016  -0.005   0.004  -0.011   0.003  -0.002   0.007
  0.029   0.006   0.001   0.013   0.001  -0.001  -0.009  -0.000
 -0.001  -0.003  -0.009   0.001   0.015   0.006  -0.001  -0.010
 -0.001  -0.004   0.020   0.002   0.006  -0.013  -0.001  -0.004
  0.016   0.003  -0.003   0.007   0.002   0.003  -0.005  -0.001
 -0.082  -0.018  -0.006   0.004  -0.013   0.004  -0.000   0.008
  0.036   0.007   0.002   0.016  -0.000  -0.001  -0.011   0.002
 -0.001  -0.004  -0.011   0.001   0.019   0.007  -0.001  -0.012
 total augmentation occupancy for first ion, spin component:           1
  1.996  -0.051   0.000  -0.004   0.000   0.000  -0.010   0.001  -0.001   0.004  -0.012   0.009  -0.001   0.001  -0.004   0.016
 -0.051   1.244   0.000  -0.033   0.000  -0.002   0.112  -0.004  -0.106   0.002  -0.093   0.004  -0.096   0.025   0.012   0.023
  0.000   0.000   1.984  -0.000   0.000  -0.036  -0.000   0.000  -0.001  -0.047  -0.000  -0.003   0.007  -0.000   0.033   0.000
 -0.004  -0.033  -0.000   1.986  -0.000  -0.000  -0.032  -0.000  -0.003   0.001  -0.068   0.003  -0.002   0.002  -0.002   0.048
  0.000   0.000   0.000  -0.000   1.985   0.000  -0.000  -0.035   0.009  -0.003  -0.000  -0.052   0.005  -0.008   0.002   0.001
  0.000  -0.002  -0.036  -0.000   0.000   0.078  -0.000  -0.004  -0.048   0.171   0.012  -0.004   0.058   0.026  -0.066  -0.003
 -0.010   0.112  -0.000  -0.032  -0.000  -0.000   0.041  -0.000   0.003  -0.003   0.176  -0.007   0.002  -0.002   0.004  -0.079
  0.001  -0.004   0.000  -0.000  -0.035  -0.004  -0.000   0.070   0.028  -0.004   0.027   0.163  -0.020  -0.028  -0.001  -0.007
 -0.001  -0.106  -0.001  -0.003   0.009  -0.048   0.003   0.028   1.343  -0.019  -0.085  -0.034  -0.024  -0.421   0.051   0.004
  0.004   0.002  -0.047   0.001  -0.003   0.171  -0.003  -0.004  -0.019   1.143   0.029  -0.108  -0.011   0.050  -0.354  -0.001
 -0.012  -0.093  -0.000  -0.068  -0.000   0.012   0.176   0.027  -0.085   0.029   1.492   0.066  -0.078   0.009  -0.001  -0.570
  0.009   0.004  -0.003   0.003  -0.052  -0.004  -0.007   0.163  -0.034  -0.108   0.066   0.946  -0.034  -0.044   0.008  -0.002
 -0.001  -0.096   0.007  -0.002   0.005   0.058   0.002  -0.020  -0.024  -0.011  -0.078  -0.034   1.347  -0.008  -0.080   0.003
  0.001   0.025  -0.000   0.002  -0.008   0.026  -0.002  -0.028  -0.421   0.050   0.009  -0.044  -0.008   0.161  -0.033   0.003
 -0.004   0.012   0.033  -0.002   0.002  -0.066   0.004  -0.001   0.051  -0.354  -0.001   0.008  -0.080  -0.033   0.146  -0.004
  0.016   0.023   0.000   0.048   0.001  -0.003  -0.079  -0.007   0.004  -0.001  -0.570  -0.002   0.003   0.003  -0.004   0.263
 -0.010   0.028   0.002  -0.004   0.036  -0.001   0.009  -0.068  -0.054   0.008  -0.003  -0.339   0.007   0.039   0.003  -0.008
  0.001   0.023  -0.006   0.002  -0.005  -0.041  -0.002   0.004  -0.008  -0.071   0.008   0.012  -0.420  -0.001   0.054   0.003


------------------------ aborting loop because EDIFF is reached ----------------------------------------


    CHARGE:  cpu time      0.2841: real time      0.2841
    FORLOC:  cpu time      0.0054: real time      0.0054
    FORNL :  cpu time     10.5870: real time     10.5872
    STRESS:  cpu time     18.9508: real time     18.9514
    FORCOR:  cpu time      0.0416: real time      0.0416
    FORHAR:  cpu time      0.0124: real time      0.0124
    MIXING:  cpu time      0.0033: real time      0.0033
    OFIELD:  cpu time      0.0000: real time      0.0000

  FORCE on cell =-STRESS in cart. coord.  units (eV):
  Direction    XX          YY          ZZ          XY          YZ          ZX
  --------------------------------------------------------------------------------------
  Alpha Z   411.12548   411.12548   411.12548
  Ewald  180786.53335183540.62508************ -1510.90681   240.84330   545.37066
  Hartree192164.59653194511.35395************ -1287.44076   278.07279   629.67382
  E(xc)   -1932.30811 -1930.88518 -1933.72447    -0.78047     0.44396     1.00525
  Local  ************************378538.84304  2809.77836  -537.24158 -1216.54120
  n-local  -314.05522  -362.30836  -368.31986    26.43203   -18.09622   -41.15805
  augment  1831.77455  1850.00658  1834.08873   -10.01175     6.44836    14.57937
  Kinetic  4644.46251  4708.83538  4706.86956   -35.15426    14.84907    33.79565
  Fock        0.00000     0.00000     0.00000     0.00000     0.00000     0.00000
  -------------------------------------------------------------------------------------
  Total     -29.56921   -14.74178    14.71233    -8.13440   -14.69219   -33.26930
  in kB     -21.93744   -10.93695    10.91510    -6.03492   -10.90016   -24.68255
  external pressure =       -7.32 kB  Pullay stress =        0.00 kB


 VOLUME and BASIS-vectors are now :
 -----------------------------------------------------------------------------
  energy-cutoff  :      520.00
  volume of cell :     2159.55
      direct lattice vectors                 reciprocal lattice vectors
     6.656157113  7.303194009  0.000000000     0.101200751  0.044691665  0.013865676
    -3.225192504  7.303194009  0.000000000    -0.101200751  0.092234726 -0.006932838
    -3.430964609 -1.515161904 29.925069282     0.000000000  0.000000000  0.033416798

  length of vectors
     9.881349616  7.983640111 30.159194374     0.111495264  0.137101790  0.033416798


 FORCES acting on ions
    electron-ion (+dipol)            ewald-force                    non-local-force                 convergence-correction
 -----------------------------------------------------------------------------------------------
   0.120E+02 0.528E+01 0.336E+04   -.111E+02 -.491E+01 -.335E+04   -.181E+00 -.798E-01 -.658E+01   0.991E-03 0.437E-03 -.120E-02
   -.104E+03 -.460E+02 0.149E+04   0.104E+03 0.461E+02 -.149E+04   0.946E-01 0.418E-01 0.811E+00   -.219E-02 -.968E-03 -.237E-03
   -.102E+03 -.451E+02 -.995E+03   0.103E+03 0.453E+02 0.995E+03   -.427E-01 -.189E-01 -.102E+00   0.113E-02 0.499E-03 0.357E-02
   0.290E+03 0.128E+03 0.260E+04   -.288E+03 -.127E+03 -.260E+04   -.116E+01 -.510E+00 -.224E+01   0.254E-03 0.112E-03 -.524E-03
   0.150E+03 0.662E+02 0.303E+02   -.150E+03 -.663E+02 -.302E+02   0.325E+00 0.144E+00 -.153E+00   0.141E-02 0.623E-03 0.943E-03
   0.253E+03 0.112E+03 -.232E+04   -.253E+03 -.112E+03 0.232E+04   0.251E+00 0.111E+00 -.442E+00   0.121E-03 0.535E-04 0.460E-02
   -.170E+03 -.217E+03 0.247E+04   0.169E+03 0.217E+03 -.247E+04   -.410E-01 -.200E+00 0.553E+00   -.186E-02 0.118E-02 -.195E-02
   -.823E+02 -.175E+03 0.157E+03   0.823E+02 0.175E+03 -.158E+03   -.431E-01 -.168E+00 0.297E+00   0.763E-03 -.302E-02 0.236E-02
   -.229E+03 -.250E+03 -.244E+04   0.228E+03 0.249E+03 0.244E+04   0.131E+01 0.459E+00 0.247E+01   -.758E-03 0.121E-02 0.283E-02
   0.229E+03 -.482E+02 0.121E+04   -.229E+03 0.481E+02 -.121E+04   0.211E+00 -.859E-01 0.262E+00   0.190E-02 0.128E-02 0.155E-02
   0.222E+03 -.401E+02 -.129E+04   -.222E+03 0.402E+02 0.129E+04   0.668E-01 -.120E+00 -.590E+00   0.394E-03 -.178E-02 0.225E-02
   0.126E+03 -.855E+02 -.323E+04   -.127E+03 0.851E+02 0.322E+04   0.469E+00 -.335E-02 0.676E+01   -.857E-03 0.743E-03 0.196E-02
   -.275E+03 0.208E+02 0.247E+04   0.274E+03 -.210E+02 -.247E+04   -.175E+00 0.104E+00 0.553E+00   -.379E-03 -.217E-02 -.195E-02
   -.184E+03 0.568E+02 0.157E+03   0.185E+03 -.568E+02 -.158E+03   -.153E+00 0.814E-01 0.297E+00   -.172E-02 0.260E-02 0.236E-02
   -.339E+03 -.112E+01 -.244E+04   0.337E+03 0.371E+00 0.244E+04   0.122E+01 0.659E+00 0.247E+01   0.385E-03 -.138E-02 0.283E-02
   0.118E+03 0.201E+03 0.121E+04   -.119E+03 -.202E+03 -.121E+04   0.788E-01 0.214E+00 0.262E+00   0.222E-02 0.543E-03 0.155E-02
   0.120E+03 0.191E+03 -.129E+04   -.120E+03 -.191E+03 0.129E+04   -.438E-01 0.130E+00 -.590E+00   -.105E-02 0.149E-02 0.225E-02
   0.220E+02 0.151E+03 -.323E+04   -.230E+02 -.152E+03 0.322E+04   0.313E+00 0.349E+00 0.676E+01   -.277E-04 -.113E-02 0.196E-02
   -.194E+03 -.856E+02 0.129E+04   0.194E+03 0.858E+02 -.129E+04   -.217E+00 -.958E-01 0.404E+00   -.210E-02 -.929E-03 -.820E-03
   -.185E+03 -.819E+02 -.120E+04   0.186E+03 0.822E+02 0.120E+04   -.301E+00 -.133E+00 -.396E+00   -.720E-04 -.318E-04 0.366E-02
   0.319E+02 0.141E+02 0.320E+04   -.310E+02 -.137E+02 -.319E+04   -.198E+00 -.873E-01 -.675E+01   0.160E-02 0.707E-03 -.604E-03
   0.664E+02 0.293E+02 -.173E+03   -.663E+02 -.293E+02 0.174E+03   -.316E-01 -.140E-01 -.520E+00   -.555E-03 -.245E-03 0.165E-02
   0.164E+03 0.722E+02 -.251E+04   -.163E+03 -.721E+02 0.251E+04   0.418E-01 0.185E-01 -.730E+00   0.816E-03 0.360E-03 0.376E-02
   0.188E+03 0.830E+02 0.256E+04   -.186E+03 -.822E+02 -.256E+04   -.138E+01 -.611E+00 -.235E+01   0.146E-02 0.647E-03 -.709E-03
   0.362E+02 0.160E+02 0.196E+04   -.361E+02 -.160E+02 -.196E+04   0.776E-01 0.343E-01 0.939E+00   0.565E-03 0.250E-03 -.186E-02
   0.903E+01 0.399E+01 -.600E+03   -.913E+01 -.403E+01 0.600E+03   0.636E-01 0.281E-01 -.254E+00   -.149E-02 -.659E-03 0.257E-02
   -.225E+03 -.992E+02 -.313E+04   0.226E+03 0.100E+03 0.313E+04   -.224E+01 -.988E+00 -.351E+01   -.169E-02 -.748E-03 0.541E-02
   0.201E+01 0.886E+00 0.175E+03   -.200E+01 -.883E+00 -.175E+03   0.242E-01 0.107E-01 0.595E-01   0.995E-04 0.439E-04 0.580E-03
   0.994E+01 0.439E+01 -.498E+03   -.978E+01 -.432E+01 0.497E+03   -.224E+00 -.987E-01 0.201E+01   0.378E-03 0.167E-03 0.525E-03
   -.913E+02 -.403E+02 0.769E+03   0.888E+02 0.392E+02 -.766E+03   0.285E+01 0.126E+01 -.357E+01   -.621E-03 -.274E-03 -.707E-03
   -.124E+01 -.846E+00 0.161E+03   0.129E+01 0.856E+00 -.161E+03   -.189E-01 -.244E-03 0.359E-01   -.582E-03 0.466E-03 0.163E-03
   -.625E+01 -.246E+01 -.431E+03   0.612E+01 0.244E+01 0.431E+03   -.112E-01 -.137E-01 -.385E-01   0.119E-03 -.682E-03 0.123E-02
   0.574E+02 0.528E+02 0.756E+03   -.569E+02 -.527E+02 -.755E+03   0.173E+00 0.109E+00 -.112E+01   0.732E-03 0.348E-03 -.491E-03
   -.256E+01 -.114E+01 -.151E+03   0.258E+01 0.115E+01 0.151E+03   -.315E-01 -.151E-01 -.537E-01   0.387E-03 -.324E-04 0.545E-03
   0.798E+02 0.306E+02 -.756E+03   -.774E+02 -.295E+02 0.753E+03   -.278E+01 -.120E+01 0.350E+01   0.373E-03 -.666E-04 0.675E-03
   -.165E+02 -.266E+01 0.523E+03   0.163E+02 0.257E+01 -.522E+03   0.235E+00 0.116E+00 -.202E+01   -.564E-03 0.308E-03 -.143E-03
   -.146E+01 -.346E+00 0.161E+03   0.150E+01 0.376E+00 -.161E+03   -.129E-01 -.138E-01 0.359E-01   -.479E-04 -.744E-03 0.163E-03
   -.603E+01 -.296E+01 -.431E+03   0.592E+01 0.288E+01 0.431E+03   -.176E-01 0.917E-03 -.385E-01   -.424E-03 0.547E-03 0.123E-02
   0.777E+02 0.684E+01 0.756E+03   -.773E+02 -.659E+01 -.755E+03   0.197E+00 0.547E-01 -.112E+01   0.750E-03 0.307E-03 -.491E-03
   -.257E+01 -.113E+01 -.151E+03   0.259E+01 0.113E+01 0.151E+03   -.324E-01 -.131E-01 -.537E-01   0.237E-03 0.308E-03 0.545E-03
   0.764E+02 0.384E+02 -.756E+03   -.739E+02 -.373E+02 0.753E+03   -.276E+01 -.125E+01 0.350E+01   0.202E-03 0.320E-03 0.675E-03
   -.131E+02 -.104E+02 0.523E+03   0.129E+02 0.103E+02 -.522E+03   0.244E+00 0.952E-01 -.202E+01   -.152E-03 -.624E-03 -.143E-03
   0.205E+01 0.906E+00 -.138E+03   -.210E+01 -.928E+00 0.138E+03   0.143E-01 0.632E-02 -.454E-01   -.479E-03 -.212E-03 0.800E-03
   -.571E+02 -.252E+02 -.730E+03   0.566E+02 0.250E+02 0.729E+03   -.171E+00 -.756E-01 0.110E+01   -.420E-03 -.186E-03 0.605E-03
   0.129E+02 0.570E+01 0.458E+03   -.128E+02 -.565E+01 -.458E+03   0.136E-01 0.602E-02 0.651E-01   0.527E-03 0.233E-03 0.120E-04
   0.103E+02 0.456E+01 -.501E+03   -.101E+02 -.447E+01 0.500E+03   -.260E+00 -.115E+00 0.204E+01   -.175E-03 -.771E-04 0.667E-03
   -.777E+02 -.343E+02 0.765E+03   0.752E+02 0.332E+02 -.762E+03   0.279E+01 0.123E+01 -.351E+01   -.634E-03 -.280E-03 -.265E-03
   0.160E+01 0.708E+00 0.178E+03   -.161E+01 -.712E+00 -.178E+03   0.278E-01 0.123E-01 0.443E-01   0.663E-03 0.293E-03 0.357E-03
 -----------------------------------------------------------------------------------------------
   0.143E+01 0.632E+00 0.354E+01   -.638E-12 0.158E-12 -.739E-12   -.143E+01 -.633E+00 -.359E+01   -.361E-03 -.160E-03 0.448E-01
 
 
 POSITION                                       TOTAL-FORCE (eV/Angst)
 -----------------------------------------------------------------------------------
      5.55380      6.81638      9.59464         0.674543      0.297887      0.870949
     -0.36933      4.20064     13.17612         0.236674      0.104519     -0.064293
      0.36370      8.88810     16.75760         0.372156      0.164349      0.089202
      2.59955      5.51174     11.38096         0.474897      0.209721     -0.118312
     -3.32358      2.89600     14.96244         0.055534      0.024525     -0.056446
     -2.59055      7.58346     18.54392         0.334734      0.147823      0.594177
     -0.73613      1.85506     11.38397        -0.391079     -0.228947     -0.653869
     -0.00310      6.54252     14.96545        -0.027907     -0.072441      0.051526
      0.72993     11.22998     18.54693        -0.461381     -0.364815      0.234713
      2.96577      7.85362     13.17029        -0.271635     -0.192382     -0.080464
     -2.95735      5.23788     16.75177        -0.168553     -0.116594      0.057101
     -2.22432      9.92534     20.33325        -0.536857     -0.372556     -0.818967
     -2.35000      5.50954     11.38397        -0.432646     -0.134821     -0.653869
      1.60822      2.89381     14.96545        -0.072338      0.028171      0.051526
      2.34126      7.58126     18.54693        -0.580421     -0.095259      0.234713
      1.35191     11.50810     13.17029        -0.325163     -0.071173     -0.080464
     -1.34603      1.58917     16.75177        -0.199712     -0.046037      0.057101
     -0.61300      6.27663     20.33325        -0.636983     -0.145828     -0.818967
     -1.98377      7.85142     13.17330         0.185203      0.081788     -0.091493
      1.97445      5.23569     16.75478         0.320763      0.141653      0.045759
      3.93935     10.46716      9.59182         0.693492      0.306256      0.773647
     -4.93802      6.54678     14.95962        -0.008364     -0.003694     -0.086256
     -0.97980      3.93105     18.54110         0.365316      0.161329      0.654898
      0.98510      9.16252     11.37814         0.464051      0.204932     -0.117417
     -1.40760     -0.62161     12.27713         0.149230      0.065902     -0.285749
     -0.67456      4.06585     15.85861        -0.043607     -0.019257     -0.008605
      0.05847      8.75330     19.44009        -0.643123     -0.284012      0.381162
      2.28700      5.37371     14.06787         0.030072      0.013280     -0.004745
     -3.63613      2.75798     17.64935        -0.071318     -0.031495      0.658309
     -1.67123      7.98945     10.48639         0.349856      0.154501     -0.127835
     -1.04108      1.72212     14.06787         0.030477      0.010011     -0.014612
     -0.30805      6.40957     17.64935        -0.136682     -0.043146      0.381493
      1.65685     11.64104     10.48639         0.605775      0.214470     -0.442486
      2.65351      7.71744     15.85861        -0.016283     -0.007281     -0.006697
     -3.26961      5.10171     19.44009        -0.300141     -0.143454      0.088896
      1.92048      3.02998     12.27713         0.048629      0.033095     -0.660618
     -2.65368      5.37371     14.06787         0.027929      0.015781     -0.014612
      1.30455      2.75798     17.64935        -0.123958     -0.071956      0.381493
      3.26945      7.98945     10.48639         0.566567      0.303253     -0.442486
      1.04092     11.36904     15.85861        -0.016349     -0.007130     -0.006697
     -1.65702      1.45011     19.44009        -0.308203     -0.125199      0.088896
      0.30789      6.68158     12.27713         0.057217      0.013648     -0.660618
     -2.28716      7.71744     15.85861        -0.036352     -0.016054      0.011296
      1.67106      5.10171     19.44009        -0.639832     -0.282559      0.360849
     -3.02019      3.02998     12.27713         0.130904      0.057809     -0.356370
     -2.02353     -0.89362     17.64935        -0.043593     -0.019251      0.672099
     -0.05863      4.33785     10.48639         0.300711      0.132798     -0.073562
      0.67440      9.02531     14.06787         0.017753      0.007840      0.006706
 -----------------------------------------------------------------------------------
    total drift:                               -0.001362     -0.000588      0.001320


--------------------------------------------------------------------------------------------------------



  FREE ENERGIE OF THE ION-ELECTRON SYSTEM (eV)
  ---------------------------------------------------
  free  energy   TOTEN  =      -271.54214394 eV

  energy  without entropy=     -271.54507194  energy(sigma->0) =     -271.54311994
 


--------------------------------------------------------------------------------------------------------


    POTLOK:  cpu time      0.0502: real time      0.0502


--------------------------------------------------------------------------------------------------------


 writing wavefunctions
     LOOP+:  cpu time   1055.8436: real time   1055.9567
    4ORBIT:  cpu time      0.0000: real time      0.0000

 total amount of memory used by VASP MPI-rank0   419909. kBytes
=======================================================================

   base                                    :      30000. kBytes
   nonl-proj                               :     321484. kBytes
   fftplans                                :       3930. kBytes
   grid                                    :      22253. kBytes
   one-center                              :        746. kBytes
   wavefun                                 :      41496. kBytes
 
  
  
 General timing and accounting informations for this job:
 ========================================================
  
                  Total CPU time used (sec):     1071.509
                            User time (sec):     1014.544
                          System time (sec):       56.965
                         Elapsed time (sec):     1071.875
  
                   Maximum memory used (kb):      647412.
                   Average memory used (kb):          N/A
  
                          Minor page faults:       129353
                          Major page faults:           14
                 Voluntary context switches:          114
