<?xml version="1.0" encoding="ISO-8859-1"?>
<modeling>
 <generator>
  <i name="program" type="string">vasp </i>
  <i name="version" type="string">6.5.0  </i>
  <i name="subversion" type="string">16Dec24 (build Apr 17 2025 17:55:45) complex                          parallel </i>
  <i name="platform" type="string">LinuxIFC </i>
  <i name="date" type="string">2025 06 10 </i>
  <i name="time" type="string">11:39:39 </i>
 </generator>
 <incar>
  <i type="int" name="ISTART">     0</i>
  <i type="string" name="PREC">N</i>
  <i type="string" name="ALGO">N</i>
  <i type="int" name="ICHARG">     2</i>
  <i type="int" name="NELM">   500</i>
  <i type="int" name="IBRION">    -1</i>
  <i name="EDIFF">      0.00001000</i>
  <i name="EDIFFG">     -0.01000000</i>
  <i type="int" name="NSW">     0</i>
  <i type="int" name="ISIF">     3</i>
  <i name="ENCUT">    520.00000000</i>
  <i type="logical" name="LREAL"> F  </i>
  <i type="int" name="ISMEAR">     1</i>
  <i name="SIGMA">      0.10000000</i>
  <i type="logical" name="LVTOT"> T  </i>
  <i type="logical" name="LVHAR"> T  </i>
 </incar>
 <primitive_cell>
  <structure name="primitive_cell" >
   <crystal>
    <varray name="basis" >
     <v>       6.65615711       7.30319401       0.00000000 </v>
     <v>      -3.22519250       7.30319401       0.00000000 </v>
     <v>      -3.43096461      -1.51516190      29.92506928 </v>
    </varray>
    <i name="volume">   2159.55499341 </i>
    <varray name="rec_basis" >
     <v>       0.10120075       0.04469167       0.01386568 </v>
     <v>      -0.10120075       0.09223473      -0.00693284 </v>
     <v>       0.00000000       0.00000000       0.03341680 </v>
    </varray>
   </crystal>
   <varray name="positions" >
    <v>       0.99971998       0.00014001       0.32062219 </v>
    <v>       0.33305331       0.33347335       0.44030383 </v>
    <v>       0.66638664       0.66680668       0.55998548 </v>
    <v>       0.66720957       0.16639522       0.38031527 </v>
    <v>       0.00054290       0.49972855       0.49999692 </v>
    <v>       0.33387623       0.83306188       0.61967857 </v>
    <v>       0.16625521       0.16667524       0.38041582 </v>
    <v>       0.49958854       0.50000857       0.50009746 </v>
    <v>       0.83292187       0.83334191       0.61977911 </v>
    <v>       0.83374479       0.33293045       0.44010891 </v>
    <v>       0.16707813       0.66626378       0.55979055 </v>
    <v>       0.50041146       0.99959711       0.67947220 </v>
    <v>       0.16625521       0.66706955       0.38041582 </v>
    <v>       0.49958854       0.00040289       0.50009746 </v>
    <v>       0.83292187       0.33373622       0.61977911 </v>
    <v>       0.83374479       0.83332476       0.44010891 </v>
    <v>       0.16707813       0.16665809       0.55979055 </v>
    <v>       0.50041146       0.49999143       0.67947220 </v>
    <v>       0.33279043       0.83360478       0.44020945 </v>
    <v>       0.66612377       0.16693812       0.55989109 </v>
    <v>       0.99945710       0.50027145       0.32052780 </v>
    <v>       0.00028002       0.99985999       0.49990254 </v>
    <v>       0.33361336       0.33319332       0.61958418 </v>
    <v>       0.66694669       0.66652665       0.38022089 </v>
    <v>       0.00000000       1.00000000       0.41026236 </v>
    <v>       0.33333333       0.33333333       0.52994401 </v>
    <v>       0.66666667       0.66666667       0.64962565 </v>
    <v>       0.66666667       0.16666667       0.47010318 </v>
    <v>       0.00000000       0.50000000       0.58978483 </v>
    <v>       0.33333333       0.83333333       0.35042154 </v>
    <v>       0.16666667       0.16666667       0.47010318 </v>
    <v>       0.50000000       0.50000000       0.58978483 </v>
    <v>       0.83333333       0.83333333       0.35042154 </v>
    <v>       0.83333333       0.33333333       0.52994401 </v>
    <v>       0.16666667       0.66666667       0.64962565 </v>
    <v>       0.50000000       1.00000000       0.41026236 </v>
    <v>       0.16666667       0.66666667       0.47010318 </v>
    <v>       0.50000000       1.00000000       0.58978483 </v>
    <v>       0.83333333       0.33333333       0.35042154 </v>
    <v>       0.83333333       0.83333333       0.52994401 </v>
    <v>       0.16666667       0.16666667       0.64962565 </v>
    <v>       0.50000000       0.50000000       0.41026236 </v>
    <v>       0.33333333       0.83333333       0.52994401 </v>
    <v>       0.66666667       0.16666667       0.64962565 </v>
    <v>       0.00000000       0.50000000       0.41026236 </v>
    <v>       0.00000000       1.00000000       0.58978483 </v>
    <v>       0.33333333       0.33333333       0.35042154 </v>
    <v>       0.66666667       0.66666667       0.47010318 </v>
   </varray>
  </structure>
  <varray name="primitive_index" >
   <v type="int" >        1 </v>
   <v type="int" >        2 </v>
   <v type="int" >        3 </v>
   <v type="int" >        4 </v>
   <v type="int" >        5 </v>
   <v type="int" >        6 </v>
   <v type="int" >        7 </v>
   <v type="int" >        8 </v>
   <v type="int" >        9 </v>
   <v type="int" >       10 </v>
   <v type="int" >       11 </v>
   <v type="int" >       12 </v>
   <v type="int" >       13 </v>
   <v type="int" >       14 </v>
   <v type="int" >       15 </v>
   <v type="int" >       16 </v>
   <v type="int" >       17 </v>
   <v type="int" >       18 </v>
   <v type="int" >       19 </v>
   <v type="int" >       20 </v>
   <v type="int" >       21 </v>
   <v type="int" >       22 </v>
   <v type="int" >       23 </v>
   <v type="int" >       24 </v>
   <v type="int" >       25 </v>
   <v type="int" >       26 </v>
   <v type="int" >       27 </v>
   <v type="int" >       28 </v>
   <v type="int" >       29 </v>
   <v type="int" >       30 </v>
   <v type="int" >       31 </v>
   <v type="int" >       32 </v>
   <v type="int" >       33 </v>
   <v type="int" >       34 </v>
   <v type="int" >       35 </v>
   <v type="int" >       36 </v>
   <v type="int" >       37 </v>
   <v type="int" >       38 </v>
   <v type="int" >       39 </v>
   <v type="int" >       40 </v>
   <v type="int" >       41 </v>
   <v type="int" >       42 </v>
   <v type="int" >       43 </v>
   <v type="int" >       44 </v>
   <v type="int" >       45 </v>
   <v type="int" >       46 </v>
   <v type="int" >       47 </v>
   <v type="int" >       48 </v>
  </varray>
 </primitive_cell>
 <kpoints>
  <generation param="Gamma">
   <v type="int" name="divisions">       4        5        1 </v>
   <v name="usershift">      0.00000000       0.00000000       0.00000000 </v>
   <v name="genvec1">      0.25000000       0.00000000       0.00000000 </v>
   <v name="genvec2">     -0.00000000       0.20000000       0.00000000 </v>
   <v name="genvec3">      0.00000000       0.00000000       1.00000000 </v>
   <v name="shift">      0.00000000       0.00000000       0.00000000 </v>
  </generation>
  <varray name="kpointlist" >
   <v>       0.00000000       0.00000000       0.00000000 </v>
   <v>       0.25000000       0.00000000       0.00000000 </v>
   <v>       0.50000000       0.00000000       0.00000000 </v>
   <v>       0.00000000       0.20000000       0.00000000 </v>
   <v>       0.25000000       0.20000000       0.00000000 </v>
   <v>       0.50000000       0.20000000       0.00000000 </v>
   <v>      -0.25000000       0.20000000       0.00000000 </v>
   <v>       0.00000000       0.40000000       0.00000000 </v>
   <v>       0.25000000       0.40000000       0.00000000 </v>
   <v>       0.50000000       0.40000000       0.00000000 </v>
   <v>      -0.25000000       0.40000000       0.00000000 </v>
  </varray>
  <varray name="weights" >
   <v>       0.05000000 </v>
   <v>       0.10000000 </v>
   <v>       0.05000000 </v>
   <v>       0.10000000 </v>
   <v>       0.10000000 </v>
   <v>       0.10000000 </v>
   <v>       0.10000000 </v>
   <v>       0.10000000 </v>
   <v>       0.10000000 </v>
   <v>       0.10000000 </v>
   <v>       0.10000000 </v>
  </varray>
 </kpoints>
 <parameters>
  <separator name="general" >
   <i type="string" name="SYSTEM">unknown system</i>
   <i type="logical" name="LCOMPAT"> F  </i>
  </separator>
  <separator name="electronic" >
   <i type="string" name="PREC">n</i>
   <i name="ENMAX">    520.00000000</i>
   <i name="ENAUG">    490.69000000</i>
   <i name="EDIFF">      0.00001000</i>
   <i type="int" name="IALGO">    38</i>
   <i type="int" name="IWAVPR">    10</i>
   <i type="int" name="NBANDS">   256</i>
   <i type="int" name="NBANDSLOW">    -1</i>
   <i type="int" name="NBANDSHIGH">    -1</i>
   <i name="NELECT">    390.00000000</i>
   <i type="int" name="TURBO">     0</i>
   <i type="int" name="IRESTART">     0</i>
   <i type="int" name="NREBOOT">     0</i>
   <i type="int" name="NMIN">     0</i>
   <i name="EREF">      0.00000000</i>
   <separator name="electronic smearing" >
    <i type="int" name="ISMEAR">     1</i>
    <i name="SIGMA">      0.10000000</i>
    <i name="KSPACING">      0.50000000</i>
    <i type="logical" name="KGAMMA"> T  </i>
    <i type="logical" name="KBLOWUP"> F  </i>
   </separator>
   <separator name="electronic projectors" >
    <i type="logical" name="LREAL"> F  </i>
    <v name="ROPT">      0.00000000      0.00000000      0.00000000</v>
    <i type="int" name="LMAXPAW">  -100</i>
    <i type="int" name="LMAXMIX">     2</i>
    <i type="logical" name="NLSPLINE"> F  </i>
   </separator>
   <separator name="electronic startup" >
    <i type="int" name="ISTART">     0</i>
    <i type="int" name="ICHARG">     2</i>
    <i type="int" name="INIWAV">     1</i>
   </separator>
   <separator name="electronic spin" >
    <i type="int" name="ISPIN">     1</i>
    <i type="logical" name="LNONCOLLINEAR"> F  </i>
    <v name="MAGMOM">      1.00000000      1.00000000      1.00000000      1.00000000      1.00000000      1.00000000      1.00000000      1.00000000      1.00000000      1.00000000      1.00000000      1.00000000      1.00000000      1.00000000      1.00000000      1.00000000      1.00000000      1.00000000      1.00000000      1.00000000
      1.00000000      1.00000000      1.00000000      1.00000000      1.00000000      1.00000000      1.00000000      1.00000000      1.00000000      1.00000000      1.00000000      1.00000000      1.00000000      1.00000000      1.00000000      1.00000000      1.00000000      1.00000000      1.00000000      1.00000000
      1.00000000      1.00000000      1.00000000      1.00000000      1.00000000      1.00000000      1.00000000      1.00000000</v>
    <i name="NUPDOWN">     -1.00000000</i>
    <i type="logical" name="LSORBIT"> F  </i>
    <v name="SAXIS">      0.00000000      0.00000000      1.00000000</v>
    <i type="logical" name="LSPIRAL"> F  </i>
    <v name="QSPIRAL">      0.00000000      0.00000000      0.00000000</v>
    <i type="logical" name="LZEROZ"> F  </i>
   </separator>
   <separator name="electronic exchange-correlation" >
    <i type="logical" name="LASPH"> F  </i>
   </separator>
   <separator name="electronic convergence" >
    <i type="int" name="NELM">   500</i>
    <i type="int" name="NELMDL">    -5</i>
    <i type="int" name="NELMIN">     2</i>
    <i name="ENINI">    520.00000000</i>
    <separator name="electronic convergence detail" >
     <i type="logical" name="LDIAG"> T  </i>
     <i type="logical" name="LSUBROT"> F  </i>
     <i name="WEIMIN">      0.00000000</i>
     <i name="EBREAK">      0.00000001</i>
     <i name="DEPER">      0.30000000</i>
     <i type="int" name="NRMM">     4</i>
     <i name="TIME">      0.40000000</i>
    </separator>
   </separator>
   <separator name="electronic mixer" >
    <i name="AMIX">      0.40000000</i>
    <i name="BMIX">      1.00000000</i>
    <i name="AMIN">      0.10000000</i>
    <i name="AMIX_MAG">      1.60000000</i>
    <i name="BMIX_MAG">      1.00000000</i>
    <separator name="electronic mixer details" >
     <i type="int" name="IMIX">     4</i>
     <i type="logical" name="MIXFIRST"> F  </i>
     <i type="int" name="MAXMIX">   -45</i>
     <i name="WC">    100.00000000</i>
     <i type="int" name="INIMIX">     1</i>
     <i type="int" name="MIXPRE">     1</i>
     <i type="int" name="MREMOVE">     5</i>
    </separator>
   </separator>
   <separator name="electronic dipolcorrection" >
    <i type="logical" name="LDIPOL"> F  </i>
    <i type="logical" name="LMONO"> F  </i>
    <i type="int" name="IDIPOL">     0</i>
    <i name="EPSILON">      1.00000000</i>
    <v name="DIPOL">   -100.00000000   -100.00000000   -100.00000000</v>
    <i name="EFIELD">      0.00000000</i>
    <i type="logical" name="LVACPOTAV"> F  </i>
   </separator>
  </separator>
  <separator name="grids" >
   <i type="int" name="NGX">    56</i>
   <i type="int" name="NGY">    48</i>
   <i type="int" name="NGZ">   168</i>
   <i type="int" name="NGXF">   112</i>
   <i type="int" name="NGYF">    96</i>
   <i type="int" name="NGZF">   336</i>
   <i type="logical" name="ADDGRID"> F  </i>
  </separator>
  <separator name="ionic" >
   <i type="int" name="NSW">     0</i>
   <i type="int" name="IBRION">    -1</i>
   <i type="int" name="MDALGO">     0</i>
   <i type="int" name="ISIF">     3</i>
   <i name="PSTRESS">      0.00000000</i>
   <i name="EDIFFG">     -0.01000000</i>
   <i type="int" name="NFREE">     0</i>
   <i name="POTIM">      0.50000000</i>
   <i name="SMASS">     -3.00000000</i>
   <i name="SCALEE">      1.00000000</i>
  </separator>
  <separator name="ionic md" >
   <i name="TEBEG">      0.00010000</i>
   <i name="TEEND">      0.00010000</i>
   <i type="int" name="NBLOCK">     1</i>
   <i type="int" name="KBLOCK">     1</i>
   <i type="int" name="NPACO">   256</i>
   <i name="APACO">     10.00000000</i>
  </separator>
  <separator name="symmetry" >
   <i type="int" name="ISYM">     2</i>
   <i name="SYMPREC">      0.00001000</i>
  </separator>
  <separator name="dos" >
   <i type="int" name="LORBIT">     0</i>
   <v name="RWIGS">     -1.00000000     -1.00000000     -1.00000000</v>
   <i type="int" name="NEDOS">   301</i>
   <i name="EMIN">     10.00000000</i>
   <i name="EMAX">    -10.00000000</i>
   <i name="EFERMI">      0.00000000</i>
  </separator>
  <separator name="writing" >
   <i type="int" name="NWRITE">     2</i>
   <i type="logical" name="LWAVE"> T  </i>
   <i type="logical" name="LDOWNSAMPLE"> F  </i>
   <i type="logical" name="LCHARG"> T  </i>
   <i type="logical" name="LPARD"> F  </i>
   <i type="logical" name="LVTOT"> F  </i>
   <i type="logical" name="LVHAR"> T  </i>
   <i type="logical" name="LELF"> F  </i>
   <i type="logical" name="LOPTICS"> F  </i>
   <v name="STM">      0.00000000      0.00000000      0.00000000      0.00000000      0.00000000      0.00000000      0.00000000</v>
  </separator>
  <separator name="performance" >
   <i type="int" name="NPAR">    64</i>
   <i type="int" name="NSIM">     4</i>
   <i type="int" name="NBLK">    -1</i>
   <i type="logical" name="LPLANE"> T  </i>
   <i type="logical" name="LSCALAPACK"> T  </i>
   <i type="logical" name="LSCAAWARE"> F  </i>
   <i type="logical" name="LSCALU"> F  </i>
   <i type="logical" name="LASYNC"> F  </i>
   <i type="logical" name="LORBITALREAL"> F  </i>
  </separator>
  <separator name="miscellaneous" >
   <i type="int" name="IDIOT">     3</i>
   <i type="int" name="PHON_NSTRUCT">    -1</i>
   <i type="logical" name="LMUSIC"> F  </i>
   <v name="POMASS">     47.88000000     69.72300000     26.98100000</v>
   <v name="DARWINR">      0.00000000      0.00000000      0.00000000</v>
   <v name="DARWINV">      1.00000000      1.00000000      1.00000000</v>
   <i type="logical" name="LCORR"> T  </i>
  </separator>
  <i type="logical" name="GGA_COMPAT"> T  </i>
  <i type="logical" name="LBERRY"> F  </i>
  <i type="int" name="ICORELEVEL">     0</i>
  <i type="logical" name="LDAU"> F  </i>
  <i type="int" name="I_CONSTRAINED_M">     0</i>
  <separator name="electronic exchange-correlation" >
   <i type="string" name="GGA    ">PE</i>
   <i type="string" name="XC_C">1</i>
   <i type="int" name="VOSKOWN">     0</i>
   <i type="logical" name="LHFCALC"> F  </i>
   <i type="string" name="PRECFOCK"></i>
   <i type="logical" name="LSYMGRAD"> F  </i>
   <i type="logical" name="LHFONE"> F  </i>
   <i type="logical" name="LRHFCALC"> F  </i>
   <i type="logical" name="LTHOMAS"> F  </i>
   <i type="logical" name="LMODELHF"> F  </i>
   <i type="logical" name="LFOCKACE"> F  </i>
   <i name="ENCUT4O">     -1.00000000</i>
   <i type="int" name="EXXOEP">     0</i>
   <i type="int" name="FOURORBIT">     0</i>
   <i name="AEXX">      0.00000000</i>
   <i name="HFALPHA">      0.00000000</i>
   <i name="MCALPHA">      0.00000000</i>
   <i name="ALDAX">      1.00000000</i>
   <i name="AGGAX">      1.00000000</i>
   <i name="AMGGAX">      1.00000000</i>
   <i name="ALDAC">      1.00000000</i>
   <i name="AGGAC">      1.00000000</i>
   <i name="AMGGAC">      1.00000000</i>
   <i type="int" name="NKREDX">     1</i>
   <i type="int" name="NKREDY">     1</i>
   <i type="int" name="NKREDZ">     1</i>
   <i type="logical" name="SHIFTRED"> F  </i>
   <i type="logical" name="ODDONLY"> F  </i>
   <i type="logical" name="EVENONLY"> F  </i>
   <i type="int" name="LMAXFOCK">     0</i>
   <i type="int" name="NMAXFOCKAE">     0</i>
   <i type="logical" name="LFOCKAEDFT"> F  </i>
   <i name="HFSCREEN">      0.00000000</i>
   <i name="HFSCREENC">      0.00000000</i>
   <i type="int" name="NBANDSGWLOW">     0</i>
  </separator>
  <separator name="vdW DFT" >
   <i type="logical" name="LUSE_VDW"> F  </i>
   <i type="int" name="IVDW_NL">    -1</i>
   <i type="logical" name="LSPIN_VDW"> F  </i>
   <i name="ZAB_VDW">     -0.84910000</i>
   <i name="GAMMA_VDW">      1.39626340</i>
   <i name="ALPHA_VDW">      0.00000000</i>
   <i name="PARAM1">      0.12340000</i>
   <i name="PARAM2">      1.00000000</i>
   <i name="BPARAM">      6.30000000</i>
   <i name="CPARAM">      0.00930000</i>
  </separator>
  <separator name="model GW" >
   <i type="int" name="MODEL_GW">     0</i>
   <i name="MODEL_EPS0">     26.99443742</i>
   <i name="MODEL_ALPHA">      1.00000000</i>
  </separator>
  <separator name="linear response parameters" >
   <i type="logical" name="LEPSILON"> F  </i>
   <i type="logical" name="LRPA"> F  </i>
   <i type="logical" name="LNABLA"> F  </i>
   <i type="logical" name="LVEL"> F  </i>
   <i name="CSHIFT">      0.10000000</i>
   <i name="OMEGAMAX">     -1.00000000</i>
   <i name="DEG_THRESHOLD">      0.00200000</i>
   <i name="RTIME">     -0.10000000</i>
   <i name="WPLASMAI">      0.00000000</i>
   <v name="DFIELD">      0.00000000      0.00000000      0.00000000</v>
   <v name="WPLASMA">      0.00000000      0.00000000      0.00000000      0.00000000      0.00000000      0.00000000      0.00000000      0.00000000      0.00000000</v>
  </separator>
  <separator name="orbital magnetization" >
   <i type="logical" name="NUCIND"> F  </i>
   <v name="MAGPOS">      0.00000000      0.00000000      0.00000000</v>
   <i type="logical" name="LNICSALL"> T  </i>
   <i type="logical" name="ORBITALMAG"> F  </i>
   <i type="logical" name="LMAGBLOCH"> F  </i>
   <i type="logical" name="LCHIMAG"> F  </i>
   <i type="logical" name="LGAUGE"> T  </i>
   <i type="int" name="MAGATOM">     0</i>
   <v name="MAGDIPOL">      0.00000000      0.00000000      0.00000000</v>
   <v name="AVECCONST">      0.00000000      0.00000000      0.00000000</v>
  </separator>
  <separator name="response functions" >
   <i type="logical" name="LALL_IN_ONE"> F  </i>
   <i type="int" name="IALL_IN_ONE">    -1</i>
   <i type="int" name="NBANDS_WAVE">    -1</i>
   <i type="logical" name="LFINITE_TEMPERATURE"> F  </i>
   <i type="logical" name="LADDER"> F  </i>
   <i type="logical" name="LRPAFORCE"> F  </i>
   <i type="logical" name="LFXC"> F  </i>
   <i type="logical" name="LHARTREE"> T  </i>
   <i type="int" name="IBSE">     2</i>
   <v type="int" name="KPOINT">    -1     0     0     0</v>
   <i type="logical" name="LTCTC"> F  </i>
   <i type="logical" name="LTCTE"> F  </i>
   <i type="logical" name="LTETE"> F  </i>
   <i type="logical" name="LTRIPLET"> F  </i>
   <i type="logical" name="LFXCEPS"> F  </i>
   <i type="logical" name="LFXHEG"> F  </i>
   <i type="int" name="NATURALO">     2</i>
   <i type="logical" name="LHOLEGF"> F  </i>
   <i type="logical" name="L2ORDER"> F  </i>
   <i type="logical" name="LDMP1"> F  </i>
   <i type="logical" name="LMP2LT"> F  </i>
   <i type="logical" name="LSMP2LT"> F  </i>
   <i type="logical" name="LGWLF"> F  </i>
   <i name="ENCUTGW">     -1.60000002</i>
   <i name="ENCUTGWSOFT">     -1.60000002</i>
   <i name="ENCUTLF">     -1.00000000</i>
   <i type="logical" name="ESF_SPLINES"> F  </i>
   <i name="ESF_CONV">      0.01000000</i>
   <i type="int" name="ESF_NINTER">    15</i>
   <i type="int" name="LMAXMP2">    -1</i>
   <i name="SCISSOR">      0.00000000</i>
   <i type="int" name="NOMEGA">     0</i>
   <i type="int" name="NOMEGAR">     0</i>
   <i type="int" name="NBANDSGW">    -1</i>
   <i type="int" name="NBANDSO">    -1</i>
   <i type="int" name="NBANDSV">    -1</i>
   <i type="int" name="NELMGW">     1</i>
   <i type="int" name="NELMHF">     1</i>
   <i type="int" name="DIM">     3</i>
   <i type="int" name="IESPILON">     4</i>
   <i type="int" name="ANTIRES">     0</i>
   <i name="OMEGAMAX">    -30.00000000</i>
   <i name="OMEGAMIN">    -30.00000000</i>
   <i name="OMEGATL">   -200.00000000</i>
   <i type="int" name="OMEGAGRID">     0</i>
   <i name="CSHIFT">     -0.10000000</i>
   <i type="logical" name="LSELFENERGY"> F  </i>
   <i type="logical" name="LSPECTRAL"> F  </i>
   <i type="logical" name="LSPECTRALGW"> F  </i>
   <i type="logical" name="LSINGLES"> F  </i>
   <i type="logical" name="LFERMIGW"> F  </i>
   <i type="logical" name="ODDONLYGW"> F  </i>
   <i type="logical" name="EVENONLYGW"> F  </i>
   <i type="int" name="NKREDLFX">     1</i>
   <i type="int" name="NKREDLFY">     1</i>
   <i type="int" name="NKREDLFZ">     1</i>
   <i type="int" name="MAXMEM">  2800</i>
   <i type="int" name="TELESCOPE">     0</i>
   <i type="int" name="NTAUPAR">    -1</i>
   <i type="int" name="NOMEGAPAR">    -1</i>
   <i name="DAMP_NEWTON">      0.80000001</i>
   <i name="LAMBDA">      1.00000000</i>
  </separator>
  <separator name="External order field" >
   <i name="OFIELD_KAPPA">      0.00000000</i>
   <v name="OFIELD_K">      0.00000000      0.00000000      0.00000000</v>
   <i name="OFIELD_Q6_NEAR">      0.00000000</i>
   <i name="OFIELD_Q6_FAR">      0.00000000</i>
   <i name="OFIELD_A">      0.00000000</i>
  </separator>
  <separator name="optional k-points parameters" >
   <i type="int" name="KPOINTS_OPT_MODE">     1</i>
   <i type="logical" name="LKPOINTS_OPT"> F  </i>
  </separator>
 </parameters>
 <atominfo>
  <atoms>      48 </atoms>
  <types>       3 </types>
  <array name="atoms" >
   <dimension dim="1">ion</dimension>
   <field type="string">element</field>
   <field type="int">atomtype</field>
   <set>
    <rc><c>Ti</c><c>   1</c></rc>
    <rc><c>Ti</c><c>   1</c></rc>
    <rc><c>Ti</c><c>   1</c></rc>
    <rc><c>Ti</c><c>   1</c></rc>
    <rc><c>Ti</c><c>   1</c></rc>
    <rc><c>Ti</c><c>   1</c></rc>
    <rc><c>Ti</c><c>   1</c></rc>
    <rc><c>Ti</c><c>   1</c></rc>
    <rc><c>Ti</c><c>   1</c></rc>
    <rc><c>Ti</c><c>   1</c></rc>
    <rc><c>Ti</c><c>   1</c></rc>
    <rc><c>Ti</c><c>   1</c></rc>
    <rc><c>Ti</c><c>   1</c></rc>
    <rc><c>Ti</c><c>   1</c></rc>
    <rc><c>Ti</c><c>   1</c></rc>
    <rc><c>Ti</c><c>   1</c></rc>
    <rc><c>Ti</c><c>   1</c></rc>
    <rc><c>Ti</c><c>   1</c></rc>
    <rc><c>Ti</c><c>   1</c></rc>
    <rc><c>Ti</c><c>   1</c></rc>
    <rc><c>Ti</c><c>   1</c></rc>
    <rc><c>Ti</c><c>   1</c></rc>
    <rc><c>Ti</c><c>   1</c></rc>
    <rc><c>Ti</c><c>   1</c></rc>
    <rc><c>Ga</c><c>   2</c></rc>
    <rc><c>Ga</c><c>   2</c></rc>
    <rc><c>Ga</c><c>   2</c></rc>
    <rc><c>Al</c><c>   3</c></rc>
    <rc><c>Al</c><c>   3</c></rc>
    <rc><c>Al</c><c>   3</c></rc>
    <rc><c>Al</c><c>   3</c></rc>
    <rc><c>Al</c><c>   3</c></rc>
    <rc><c>Al</c><c>   3</c></rc>
    <rc><c>Al</c><c>   3</c></rc>
    <rc><c>Al</c><c>   3</c></rc>
    <rc><c>Al</c><c>   3</c></rc>
    <rc><c>Al</c><c>   3</c></rc>
    <rc><c>Al</c><c>   3</c></rc>
    <rc><c>Al</c><c>   3</c></rc>
    <rc><c>Al</c><c>   3</c></rc>
    <rc><c>Al</c><c>   3</c></rc>
    <rc><c>Al</c><c>   3</c></rc>
    <rc><c>Al</c><c>   3</c></rc>
    <rc><c>Al</c><c>   3</c></rc>
    <rc><c>Al</c><c>   3</c></rc>
    <rc><c>Al</c><c>   3</c></rc>
    <rc><c>Al</c><c>   3</c></rc>
    <rc><c>Al</c><c>   3</c></rc>
   </set>
  </array>
  <array name="atomtypes" >
   <dimension dim="1">type</dimension>
   <field type="int">atomspertype</field>
   <field type="string">element</field>
   <field>mass</field>
   <field>valence</field>
   <field type="string">pseudopotential</field>
   <set>
    <rc><c>  24</c><c>Ti</c><c>     47.88000000</c><c>     12.00000000</c><c>  PAW_PBE Ti_sv 26Sep2005               </c></rc>
    <rc><c>   3</c><c>Ga</c><c>     69.72300000</c><c>     13.00000000</c><c>  PAW_PBE Ga_d 06Jul2010                </c></rc>
    <rc><c>  21</c><c>Al</c><c>     26.98100000</c><c>      3.00000000</c><c>  PAW_PBE Al 04Jan2001                  </c></rc>
   </set>
  </array>
 </atominfo>
 <structure name="initialpos" >
  <crystal>
   <varray name="basis" >
    <v>       6.65615711       7.30319401       0.00000000 </v>
    <v>      -3.22519250       7.30319401       0.00000000 </v>
    <v>      -3.43096461      -1.51516190      29.92506928 </v>
   </varray>
   <i name="volume">   2159.55499341 </i>
   <varray name="rec_basis" >
    <v>       0.10120075       0.04469167       0.01386568 </v>
    <v>      -0.10120075       0.09223473      -0.00693284 </v>
    <v>       0.00000000       0.00000000       0.03341680 </v>
   </varray>
  </crystal>
  <varray name="positions" >
   <v>       0.99971998       0.00014001       0.32062219 </v>
   <v>       0.33305331       0.33347335       0.44030383 </v>
   <v>       0.66638664       0.66680668       0.55998548 </v>
   <v>       0.66720957       0.16639522       0.38031527 </v>
   <v>       0.00054290       0.49972855       0.49999692 </v>
   <v>       0.33387623       0.83306188       0.61967857 </v>
   <v>       0.16625521       0.16667524       0.38041582 </v>
   <v>       0.49958854       0.50000857       0.50009746 </v>
   <v>       0.83292187       0.83334191       0.61977911 </v>
   <v>       0.83374479       0.33293045       0.44010891 </v>
   <v>       0.16707813       0.66626378       0.55979055 </v>
   <v>       0.50041146       0.99959711       0.67947220 </v>
   <v>       0.16625521       0.66706955       0.38041582 </v>
   <v>       0.49958854       0.00040289       0.50009746 </v>
   <v>       0.83292187       0.33373622       0.61977911 </v>
   <v>       0.83374479       0.83332476       0.44010891 </v>
   <v>       0.16707813       0.16665809       0.55979055 </v>
   <v>       0.50041146       0.49999143       0.67947220 </v>
   <v>       0.33279043       0.83360478       0.44020945 </v>
   <v>       0.66612377       0.16693812       0.55989109 </v>
   <v>       0.99945710       0.50027145       0.32052780 </v>
   <v>       0.00028002       0.99985999       0.49990254 </v>
   <v>       0.33361336       0.33319332       0.61958418 </v>
   <v>       0.66694669       0.66652665       0.38022089 </v>
   <v>       0.00000000       0.00000000       0.41026236 </v>
   <v>       0.33333333       0.33333333       0.52994401 </v>
   <v>       0.66666667       0.66666667       0.64962565 </v>
   <v>       0.66666667       0.16666667       0.47010318 </v>
   <v>       0.00000000       0.50000000       0.58978483 </v>
   <v>       0.33333333       0.83333333       0.35042154 </v>
   <v>       0.16666667       0.16666667       0.47010318 </v>
   <v>       0.50000000       0.50000000       0.58978483 </v>
   <v>       0.83333333       0.83333333       0.35042154 </v>
   <v>       0.83333333       0.33333333       0.52994401 </v>
   <v>       0.16666667       0.66666667       0.64962565 </v>
   <v>       0.50000000       0.00000000       0.41026236 </v>
   <v>       0.16666667       0.66666667       0.47010318 </v>
   <v>       0.50000000       0.00000000       0.58978483 </v>
   <v>       0.83333333       0.33333333       0.35042154 </v>
   <v>       0.83333333       0.83333333       0.52994401 </v>
   <v>       0.16666667       0.16666667       0.64962565 </v>
   <v>       0.50000000       0.50000000       0.41026236 </v>
   <v>       0.33333333       0.83333333       0.52994401 </v>
   <v>       0.66666667       0.16666667       0.64962565 </v>
   <v>       0.00000000       0.50000000       0.41026236 </v>
   <v>       0.00000000       0.00000000       0.58978483 </v>
   <v>       0.33333333       0.33333333       0.35042154 </v>
   <v>       0.66666667       0.66666667       0.47010318 </v>
  </varray>
 </structure>
 <calculation>
  <scstep>
   <time name="dav">   22.24   22.25</time>
   <time name="total">   22.34   22.34</time>
   <energy>
    <i name="alphaZ">    411.12548395 </i>
    <i name="ewald"> 164138.59212891 </i>
    <i name="hartreedc">-203407.20020011 </i>
    <i name="XCdc">   1060.84357592 </i>
    <i name="pawpsdc">  36549.23505240 </i>
    <i name="pawaedc"> -36408.81157157 </i>
    <i name="eentropy">      0.01473873 </i>
    <i name="bandstr">  -4291.94478875 </i>
    <i name="atom">  45684.82891484 </i>
    <i name="e_fr_energy">   3736.68333433 </i>
    <i name="e_wo_entrp">   3736.66859561 </i>
    <i name="e_0_energy">   3736.67842143 </i>
   </energy>
  </scstep>
  <scstep>
   <time name="dav">   20.56   20.57</time>
   <time name="total">   20.57   20.57</time>
   <energy>
    <i name="e_fr_energy">    187.49776156 </i>
    <i name="e_wo_entrp">    187.49951781 </i>
    <i name="e_0_energy">    187.49834698 </i>
   </energy>
  </scstep>
  <scstep>
   <time name="dav">   35.89   35.89</time>
   <time name="total">   35.89   35.89</time>
   <energy>
    <i name="e_fr_energy">   -250.06633544 </i>
    <i name="e_wo_entrp">   -250.07424530 </i>
    <i name="e_0_energy">   -250.06897206 </i>
   </energy>
  </scstep>
  <scstep>
   <time name="dav">   32.84   32.84</time>
   <time name="total">   32.84   32.84</time>
   <energy>
    <i name="e_fr_energy">   -321.85369771 </i>
    <i name="e_wo_entrp">   -321.86060114 </i>
    <i name="e_0_energy">   -321.85599885 </i>
   </energy>
  </scstep>
  <scstep>
   <time name="dav">   29.39   29.41</time>
   <time name="total">   29.68   29.70</time>
   <energy>
    <i name="e_fr_energy">   -328.74710887 </i>
    <i name="e_wo_entrp">   -328.75436473 </i>
    <i name="e_0_energy">   -328.74952749 </i>
   </energy>
  </scstep>
  <scstep>
   <time name="dav">   33.73   33.74</time>
   <time name="total">   34.08   34.09</time>
   <energy>
    <i name="e_fr_energy">   -382.84206009 </i>
    <i name="e_wo_entrp">   -382.83287382 </i>
    <i name="e_0_energy">   -382.83899800 </i>
   </energy>
  </scstep>
  <scstep>
   <time name="dav">   28.98   28.98</time>
   <time name="total">   29.32   29.33</time>
   <energy>
    <i name="e_fr_energy">   -302.85107655 </i>
    <i name="e_wo_entrp">   -302.84321651 </i>
    <i name="e_0_energy">   -302.84845654 </i>
   </energy>
  </scstep>
  <scstep>
   <time name="dav">   26.89   26.89</time>
   <time name="total">   27.23   27.23</time>
   <energy>
    <i name="e_fr_energy">   -289.39340308 </i>
    <i name="e_wo_entrp">   -289.37967291 </i>
    <i name="e_0_energy">   -289.38882635 </i>
   </energy>
  </scstep>
  <scstep>
   <time name="dav">   28.58   28.58</time>
   <time name="total">   28.92   28.92</time>
   <energy>
    <i name="e_fr_energy">   -282.59029410 </i>
    <i name="e_wo_entrp">   -282.59984577 </i>
    <i name="e_0_energy">   -282.59347799 </i>
   </energy>
  </scstep>
  <scstep>
   <time name="dav">   31.22   31.22</time>
   <time name="total">   31.56   31.56</time>
   <energy>
    <i name="e_fr_energy">   -280.68532210 </i>
    <i name="e_wo_entrp">   -280.66443724 </i>
    <i name="e_0_energy">   -280.67836048 </i>
   </energy>
  </scstep>
  <scstep>
   <time name="dav">   27.43   27.43</time>
   <time name="total">   27.77   27.77</time>
   <energy>
    <i name="e_fr_energy">   -274.38784148 </i>
    <i name="e_wo_entrp">   -274.37915126 </i>
    <i name="e_0_energy">   -274.38494474 </i>
   </energy>
  </scstep>
  <scstep>
   <time name="dav">   29.02   29.02</time>
   <time name="total">   29.36   29.36</time>
   <energy>
    <i name="e_fr_energy">   -272.63815626 </i>
    <i name="e_wo_entrp">   -272.63434136 </i>
    <i name="e_0_energy">   -272.63688462 </i>
   </energy>
  </scstep>
  <scstep>
   <time name="dav">   26.87   26.87</time>
   <time name="total">   27.21   27.21</time>
   <energy>
    <i name="e_fr_energy">   -271.98074544 </i>
    <i name="e_wo_entrp">   -271.98437947 </i>
    <i name="e_0_energy">   -271.98195678 </i>
   </energy>
  </scstep>
  <scstep>
   <time name="dav">   26.88   26.89</time>
   <time name="total">   27.23   27.23</time>
   <energy>
    <i name="e_fr_energy">   -271.87278655 </i>
    <i name="e_wo_entrp">   -271.88142390 </i>
    <i name="e_0_energy">   -271.87566567 </i>
   </energy>
  </scstep>
  <scstep>
   <time name="dav">   26.94   26.94</time>
   <time name="total">   27.28   27.28</time>
   <energy>
    <i name="e_fr_energy">   -271.75395629 </i>
    <i name="e_wo_entrp">   -271.75396927 </i>
    <i name="e_0_energy">   -271.75396062 </i>
   </energy>
  </scstep>
  <scstep>
   <time name="dav">   26.77   26.77</time>
   <time name="total">   27.11   27.11</time>
   <energy>
    <i name="e_fr_energy">   -271.71992139 </i>
    <i name="e_wo_entrp">   -271.72542810 </i>
    <i name="e_0_energy">   -271.72175696 </i>
   </energy>
  </scstep>
  <scstep>
   <time name="dav">   26.84   26.84</time>
   <time name="total">   27.18   27.18</time>
   <energy>
    <i name="e_fr_energy">   -271.59374192 </i>
    <i name="e_wo_entrp">   -271.60087573 </i>
    <i name="e_0_energy">   -271.59611986 </i>
   </energy>
  </scstep>
  <scstep>
   <time name="dav">   27.30   27.30</time>
   <time name="total">   27.64   27.64</time>
   <energy>
    <i name="e_fr_energy">   -271.56894331 </i>
    <i name="e_wo_entrp">   -271.57286703 </i>
    <i name="e_0_energy">   -271.57025122 </i>
   </energy>
  </scstep>
  <scstep>
   <time name="dav">   27.10   27.11</time>
   <time name="total">   27.44   27.44</time>
   <energy>
    <i name="e_fr_energy">   -271.54616773 </i>
    <i name="e_wo_entrp">   -271.54812925 </i>
    <i name="e_0_energy">   -271.54682157 </i>
   </energy>
  </scstep>
  <scstep>
   <time name="dav">   29.26   29.26</time>
   <time name="total">   29.60   29.61</time>
   <energy>
    <i name="e_fr_energy">   -271.54000852 </i>
    <i name="e_wo_entrp">   -271.54275377 </i>
    <i name="e_0_energy">   -271.54092361 </i>
   </energy>
  </scstep>
  <scstep>
   <time name="dav">   29.02   29.03</time>
   <time name="total">   29.36   29.36</time>
   <energy>
    <i name="e_fr_energy">   -271.53269563 </i>
    <i name="e_wo_entrp">   -271.53565972 </i>
    <i name="e_0_energy">   -271.53368366 </i>
   </energy>
  </scstep>
  <scstep>
   <time name="dav">   27.05   27.06</time>
   <time name="total">   27.39   27.39</time>
   <energy>
    <i name="e_fr_energy">   -271.53401489 </i>
    <i name="e_wo_entrp">   -271.53737513 </i>
    <i name="e_0_energy">   -271.53513497 </i>
   </energy>
  </scstep>
  <scstep>
   <time name="dav">   26.84   26.84</time>
   <time name="total">   27.17   27.18</time>
   <energy>
    <i name="e_fr_energy">   -271.53447803 </i>
    <i name="e_wo_entrp">   -271.53753516 </i>
    <i name="e_0_energy">   -271.53549707 </i>
   </energy>
  </scstep>
  <scstep>
   <time name="dav">   26.88   26.88</time>
   <time name="total">   27.22   27.22</time>
   <energy>
    <i name="e_fr_energy">   -271.53523402 </i>
    <i name="e_wo_entrp">   -271.53818751 </i>
    <i name="e_0_energy">   -271.53621852 </i>
   </energy>
  </scstep>
  <scstep>
   <time name="dav">   26.88   26.88</time>
   <time name="total">   27.22   27.22</time>
   <energy>
    <i name="e_fr_energy">   -271.53576786 </i>
    <i name="e_wo_entrp">   -271.53891536 </i>
    <i name="e_0_energy">   -271.53681703 </i>
   </energy>
  </scstep>
  <scstep>
   <time name="dav">   26.80   26.80</time>
   <time name="total">   27.14   27.14</time>
   <energy>
    <i name="e_fr_energy">   -271.53625705 </i>
    <i name="e_wo_entrp">   -271.53922456 </i>
    <i name="e_0_energy">   -271.53724622 </i>
   </energy>
  </scstep>
  <scstep>
   <time name="dav">   26.31   26.31</time>
   <time name="total">   26.64   26.65</time>
   <energy>
    <i name="e_fr_energy">   -271.53788911 </i>
    <i name="e_wo_entrp">   -271.54101484 </i>
    <i name="e_0_energy">   -271.53893102 </i>
   </energy>
  </scstep>
  <scstep>
   <time name="dav">   26.98   26.99</time>
   <time name="total">   27.32   27.32</time>
   <energy>
    <i name="e_fr_energy">   -271.53852903 </i>
    <i name="e_wo_entrp">   -271.54153791 </i>
    <i name="e_0_energy">   -271.53953199 </i>
   </energy>
  </scstep>
  <scstep>
   <time name="dav">   26.89   26.89</time>
   <time name="total">   27.23   27.23</time>
   <energy>
    <i name="e_fr_energy">   -271.53976284 </i>
    <i name="e_wo_entrp">   -271.54279495 </i>
    <i name="e_0_energy">   -271.54077354 </i>
   </energy>
  </scstep>
  <scstep>
   <time name="dav">   26.84   26.85</time>
   <time name="total">   27.18   27.18</time>
   <energy>
    <i name="e_fr_energy">   -271.54046435 </i>
    <i name="e_wo_entrp">   -271.54341027 </i>
    <i name="e_0_energy">   -271.54144633 </i>
   </energy>
  </scstep>
  <scstep>
   <time name="dav">   23.00   23.01</time>
   <time name="total">   23.34   23.34</time>
   <energy>
    <i name="e_fr_energy">   -271.54082400 </i>
    <i name="e_wo_entrp">   -271.54374540 </i>
    <i name="e_0_energy">   -271.54179780 </i>
   </energy>
  </scstep>
  <scstep>
   <time name="dav">   22.40   22.40</time>
   <time name="total">   22.73   22.73</time>
   <energy>
    <i name="e_fr_energy">   -271.54143460 </i>
    <i name="e_wo_entrp">   -271.54436446 </i>
    <i name="e_0_energy">   -271.54241122 </i>
   </energy>
  </scstep>
  <scstep>
   <time name="dav">   22.30   22.30</time>
   <time name="total">   22.64   22.64</time>
   <energy>
    <i name="e_fr_energy">   -271.54156666 </i>
    <i name="e_wo_entrp">   -271.54450238 </i>
    <i name="e_0_energy">   -271.54254523 </i>
   </energy>
  </scstep>
  <scstep>
   <time name="dav">   21.73   21.74</time>
   <time name="total">   22.07   22.07</time>
   <energy>
    <i name="e_fr_energy">   -271.54187139 </i>
    <i name="e_wo_entrp">   -271.54479234 </i>
    <i name="e_0_energy">   -271.54284504 </i>
   </energy>
  </scstep>
  <scstep>
   <time name="dav">   19.90   19.90</time>
   <time name="total">   20.24   20.24</time>
   <energy>
    <i name="e_fr_energy">   -271.54198958 </i>
    <i name="e_wo_entrp">   -271.54491245 </i>
    <i name="e_0_energy">   -271.54296387 </i>
   </energy>
  </scstep>
  <scstep>
   <time name="dav">   20.82   20.82</time>
   <time name="total">   21.16   21.16</time>
   <energy>
    <i name="e_fr_energy">   -271.54208323 </i>
    <i name="e_wo_entrp">   -271.54501049 </i>
    <i name="e_0_energy">   -271.54305899 </i>
   </energy>
  </scstep>
  <scstep>
   <time name="dav">   19.60   19.60</time>
   <time name="total">   19.94   19.94</time>
   <energy>
    <i name="e_fr_energy">   -271.54213601 </i>
    <i name="e_wo_entrp">   -271.54506489 </i>
    <i name="e_0_energy">   -271.54311230 </i>
   </energy>
  </scstep>
  <scstep>
   <time name="dav">   18.88   18.88</time>
   <time name="total">   18.94   18.94</time>
   <energy>
    <i name="alphaZ">    411.12548395 </i>
    <i name="ewald"> 164138.59212891 </i>
    <i name="hartreedc">-203689.94110082 </i>
    <i name="XCdc">   1037.24883721 </i>
    <i name="pawpsdc">  43270.28983493 </i>
    <i name="pawaedc"> -43062.04127625 </i>
    <i name="eentropy">      0.00292800 </i>
    <i name="bandstr">  -8061.64789472 </i>
    <i name="atom">  45684.82891484 </i>
    <i name="e_fr_energy">   -271.54214394 </i>
    <i name="e_wo_entrp">   -271.54507194 </i>
    <i name="e_0_energy">   -271.54311994 </i>
   </energy>
  </scstep>
  <structure>
   <crystal>
    <varray name="basis" >
     <v>       6.65615711       7.30319401       0.00000000 </v>
     <v>      -3.22519250       7.30319401       0.00000000 </v>
     <v>      -3.43096461      -1.51516190      29.92506928 </v>
    </varray>
    <i name="volume">   2159.55499341 </i>
    <varray name="rec_basis" >
     <v>       0.10120075       0.04469167       0.01386568 </v>
     <v>      -0.10120075       0.09223473      -0.00693284 </v>
     <v>       0.00000000       0.00000000       0.03341680 </v>
    </varray>
   </crystal>
   <varray name="positions" >
    <v>       0.99971998       0.00014001       0.32062219 </v>
    <v>       0.33305331       0.33347335       0.44030383 </v>
    <v>       0.66638664       0.66680668       0.55998548 </v>
    <v>       0.66720957       0.16639522       0.38031527 </v>
    <v>       0.00054290       0.49972855       0.49999692 </v>
    <v>       0.33387623       0.83306188       0.61967857 </v>
    <v>       0.16625521       0.16667524       0.38041582 </v>
    <v>       0.49958854       0.50000857       0.50009746 </v>
    <v>       0.83292187       0.83334191       0.61977911 </v>
    <v>       0.83374479       0.33293045       0.44010891 </v>
    <v>       0.16707813       0.66626378       0.55979055 </v>
    <v>       0.50041146       0.99959711       0.67947220 </v>
    <v>       0.16625521       0.66706955       0.38041582 </v>
    <v>       0.49958854       0.00040289       0.50009746 </v>
    <v>       0.83292187       0.33373622       0.61977911 </v>
    <v>       0.83374479       0.83332476       0.44010891 </v>
    <v>       0.16707813       0.16665809       0.55979055 </v>
    <v>       0.50041146       0.49999143       0.67947220 </v>
    <v>       0.33279043       0.83360478       0.44020945 </v>
    <v>       0.66612377       0.16693812       0.55989109 </v>
    <v>       0.99945710       0.50027145       0.32052780 </v>
    <v>       0.00028002       0.99985999       0.49990254 </v>
    <v>       0.33361336       0.33319332       0.61958418 </v>
    <v>       0.66694669       0.66652665       0.38022089 </v>
    <v>       0.00000000       0.00000000       0.41026236 </v>
    <v>       0.33333333       0.33333333       0.52994401 </v>
    <v>       0.66666667       0.66666667       0.64962565 </v>
    <v>       0.66666667       0.16666667       0.47010318 </v>
    <v>       0.00000000       0.50000000       0.58978483 </v>
    <v>       0.33333333       0.83333333       0.35042154 </v>
    <v>       0.16666667       0.16666667       0.47010318 </v>
    <v>       0.50000000       0.50000000       0.58978483 </v>
    <v>       0.83333333       0.83333333       0.35042154 </v>
    <v>       0.83333333       0.33333333       0.52994401 </v>
    <v>       0.16666667       0.66666667       0.64962565 </v>
    <v>       0.50000000       0.00000000       0.41026236 </v>
    <v>       0.16666667       0.66666667       0.47010318 </v>
    <v>       0.50000000       0.00000000       0.58978483 </v>
    <v>       0.83333333       0.33333333       0.35042154 </v>
    <v>       0.83333333       0.83333333       0.52994401 </v>
    <v>       0.16666667       0.16666667       0.64962565 </v>
    <v>       0.50000000       0.50000000       0.41026236 </v>
    <v>       0.33333333       0.83333333       0.52994401 </v>
    <v>       0.66666667       0.16666667       0.64962565 </v>
    <v>       0.00000000       0.50000000       0.41026236 </v>
    <v>       0.00000000       0.00000000       0.58978483 </v>
    <v>       0.33333333       0.33333333       0.35042154 </v>
    <v>       0.66666667       0.66666667       0.47010318 </v>
   </varray>
  </structure>
  <varray name="forces" >
   <v>       0.67454273       0.29788750       0.87094862 </v>
   <v>       0.23667449       0.10451876      -0.06429283 </v>
   <v>       0.37215578       0.16434919       0.08920164 </v>
   <v>       0.47489712       0.20972120      -0.11831237 </v>
   <v>       0.05553418       0.02452467      -0.05644592 </v>
   <v>       0.33473364       0.14782305       0.59417679 </v>
   <v>      -0.39107880      -0.22894703      -0.65386920 </v>
   <v>      -0.02790673      -0.07244077       0.05152555 </v>
   <v>      -0.46138141      -0.36481544       0.23471319 </v>
   <v>      -0.27163543      -0.19238209      -0.08046366 </v>
   <v>      -0.16855341      -0.11659412       0.05710121 </v>
   <v>      -0.53685708      -0.37255613      -0.81896739 </v>
   <v>      -0.43264601      -0.13482135      -0.65386920 </v>
   <v>      -0.07233836       0.02817114       0.05152555 </v>
   <v>      -0.58042123      -0.09525915       0.23471319 </v>
   <v>      -0.32516326      -0.07117255      -0.08046366 </v>
   <v>      -0.19971234      -0.04603718       0.05710121 </v>
   <v>      -0.63698331      -0.14582818      -0.81896739 </v>
   <v>       0.18520316       0.08178830      -0.09149270 </v>
   <v>       0.32076263       0.14165326       0.04575935 </v>
   <v>       0.69349164       0.30625560       0.77364704 </v>
   <v>      -0.00836411      -0.00369371      -0.08625616 </v>
   <v>       0.36531648       0.16132886       0.65489787 </v>
   <v>       0.46405139       0.20493158      -0.11741695 </v>
   <v>       0.14922959       0.06590187      -0.28574948 </v>
   <v>      -0.04360672      -0.01925734      -0.00860499 </v>
   <v>      -0.64312304      -0.28401212       0.38116182 </v>
   <v>       0.03007176       0.01328011      -0.00474450 </v>
   <v>      -0.07131758      -0.03149484       0.65830869 </v>
   <v>       0.34985598       0.15450129      -0.12783521 </v>
   <v>       0.03047699       0.01001140      -0.01461191 </v>
   <v>      -0.13668168      -0.04314584       0.38149306 </v>
   <v>       0.60577470       0.21446983      -0.44248589 </v>
   <v>      -0.01628266      -0.00728089      -0.00669684 </v>
   <v>      -0.30014107      -0.14345391       0.08889630 </v>
   <v>       0.04862854       0.03309493      -0.66061843 </v>
   <v>       0.02792886       0.01578144      -0.01461191 </v>
   <v>      -0.12395849      -0.07195650       0.38149306 </v>
   <v>       0.56656697       0.30325263      -0.44248589 </v>
   <v>      -0.01634936      -0.00712987      -0.00669684 </v>
   <v>      -0.30820262      -0.12519916       0.08889630 </v>
   <v>       0.05721666       0.01364779      -0.66061843 </v>
   <v>      -0.03635196      -0.01605353       0.01129558 </v>
   <v>      -0.63983228      -0.28255887       0.36084905 </v>
   <v>       0.13090409       0.05780908      -0.35637038 </v>
   <v>      -0.04359296      -0.01925126       0.67209910 </v>
   <v>       0.30071149       0.13279840      -0.07356163 </v>
   <v>       0.01775296       0.00783995       0.00670561 </v>
  </varray>
  <varray name="stress" >
   <v>     -21.93744461      -6.03492143     -24.68254981 </v>
   <v>      -6.03492143     -10.93694671     -10.90015882 </v>
   <v>     -24.68255019     -10.90015899      10.91510446 </v>
  </varray>
  <energy>
   <i name="e_fr_energy">   -271.54214394 </i>
   <i name="e_wo_entrp">   -271.54507194 </i>
   <i name="e_0_energy">   -271.54311994 </i>
  </energy>
  <time name="totalsc"> 1055.84 1055.96</time>
  <eigenvalues>
   <array>
    <dimension dim="1">band</dimension>
    <dimension dim="2">kpoint</dimension>
    <dimension dim="3">spin</dimension>
    <field>eigene</field>
    <field>occ</field>
    <set>
     <set comment="spin 1">
      <set comment="kpoint 1">
       <r>  -56.5321    1.0000 </r>
       <r>  -56.5312    1.0000 </r>
       <r>  -56.5272    1.0000 </r>
       <r>  -56.5007    1.0000 </r>
       <r>  -56.1693    1.0000 </r>
       <r>  -56.1679    1.0000 </r>
       <r>  -56.1357    1.0000 </r>
       <r>  -56.1320    1.0000 </r>
       <r>  -55.9281    1.0000 </r>
       <r>  -55.9220    1.0000 </r>
       <r>  -55.9206    1.0000 </r>
       <r>  -55.9191    1.0000 </r>
       <r>  -55.9174    1.0000 </r>
       <r>  -55.9156    1.0000 </r>
       <r>  -55.9051    1.0000 </r>
       <r>  -55.8951    1.0000 </r>
       <r>  -55.8727    1.0000 </r>
       <r>  -55.8685    1.0000 </r>
       <r>  -55.8635    1.0000 </r>
       <r>  -55.8634    1.0000 </r>
       <r>  -55.8623    1.0000 </r>
       <r>  -55.8530    1.0000 </r>
       <r>  -55.8461    1.0000 </r>
       <r>  -55.8417    1.0000 </r>
       <r>  -32.9956    1.0000 </r>
       <r>  -32.9815    1.0000 </r>
       <r>  -32.9809    1.0000 </r>
       <r>  -32.9551    1.0000 </r>
       <r>  -32.7228    1.0000 </r>
       <r>  -32.7126    1.0000 </r>
       <r>  -32.7036    1.0000 </r>
       <r>  -32.7011    1.0000 </r>
       <r>  -32.6974    1.0000 </r>
       <r>  -32.6953    1.0000 </r>
       <r>  -32.6790    1.0000 </r>
       <r>  -32.6718    1.0000 </r>
       <r>  -32.5691    1.0000 </r>
       <r>  -32.5663    1.0000 </r>
       <r>  -32.5421    1.0000 </r>
       <r>  -32.5319    1.0000 </r>
       <r>  -32.4363    1.0000 </r>
       <r>  -32.4130    1.0000 </r>
       <r>  -32.3996    1.0000 </r>
       <r>  -32.3756    1.0000 </r>
       <r>  -32.3594    1.0000 </r>
       <r>  -32.3538    1.0000 </r>
       <r>  -32.3454    1.0000 </r>
       <r>  -32.3391    1.0000 </r>
       <r>  -32.3371    1.0000 </r>
       <r>  -32.3303    1.0000 </r>
       <r>  -32.3247    1.0000 </r>
       <r>  -32.3225    1.0000 </r>
       <r>  -32.3053    1.0000 </r>
       <r>  -32.2951    1.0000 </r>
       <r>  -32.2936    1.0000 </r>
       <r>  -32.2769    1.0000 </r>
       <r>  -32.2697    1.0000 </r>
       <r>  -32.2614    1.0000 </r>
       <r>  -32.2600    1.0000 </r>
       <r>  -32.2549    1.0000 </r>
       <r>  -32.2526    1.0000 </r>
       <r>  -32.2520    1.0000 </r>
       <r>  -32.2510    1.0000 </r>
       <r>  -32.2428    1.0000 </r>
       <r>  -32.2393    1.0000 </r>
       <r>  -32.2351    1.0000 </r>
       <r>  -32.2344    1.0000 </r>
       <r>  -32.2259    1.0000 </r>
       <r>  -32.2198    1.0000 </r>
       <r>  -32.2186    1.0000 </r>
       <r>  -32.2119    1.0000 </r>
       <r>  -32.2068    1.0000 </r>
       <r>  -32.1672    1.0000 </r>
       <r>  -32.1621    1.0000 </r>
       <r>  -32.1584    1.0000 </r>
       <r>  -32.1550    1.0000 </r>
       <r>  -32.1488    1.0000 </r>
       <r>  -32.1441    1.0000 </r>
       <r>  -32.1419    1.0000 </r>
       <r>  -32.1412    1.0000 </r>
       <r>  -32.0768    1.0000 </r>
       <r>  -32.0715    1.0000 </r>
       <r>  -32.0603    1.0000 </r>
       <r>  -32.0530    1.0000 </r>
       <r>  -32.0506    1.0000 </r>
       <r>  -32.0423    1.0000 </r>
       <r>  -32.0364    1.0000 </r>
       <r>  -32.0363    1.0000 </r>
       <r>  -32.0254    1.0000 </r>
       <r>  -32.0236    1.0000 </r>
       <r>  -31.9939    1.0000 </r>
       <r>  -31.9930    1.0000 </r>
       <r>  -31.9850    1.0000 </r>
       <r>  -31.9843    1.0000 </r>
       <r>  -31.9801    1.0000 </r>
       <r>  -31.9770    1.0000 </r>
       <r>  -13.7006    1.0000 </r>
       <r>  -13.6992    1.0000 </r>
       <r>  -13.6866    1.0000 </r>
       <r>  -13.6801    1.0000 </r>
       <r>  -13.6797    1.0000 </r>
       <r>  -13.6729    1.0000 </r>
       <r>  -13.6614    1.0000 </r>
       <r>  -13.6528    1.0000 </r>
       <r>  -13.6464    1.0000 </r>
       <r>  -13.6273    1.0000 </r>
       <r>  -13.3944    1.0000 </r>
       <r>  -13.3857    1.0000 </r>
       <r>  -13.3764    1.0000 </r>
       <r>  -13.3655    1.0000 </r>
       <r>  -13.3257    1.0000 </r>
       <r>   -8.0703    1.0000 </r>
       <r>   -7.2618    1.0000 </r>
       <r>   -6.5003    1.0000 </r>
       <r>   -6.3690    1.0000 </r>
       <r>   -6.1925    1.0000 </r>
       <r>   -5.6629    1.0000 </r>
       <r>   -5.5611    1.0000 </r>
       <r>   -5.4041    1.0000 </r>
       <r>   -5.2918    1.0000 </r>
       <r>   -5.2418    1.0000 </r>
       <r>   -5.0903    1.0000 </r>
       <r>   -4.9142    1.0000 </r>
       <r>   -4.6990    1.0000 </r>
       <r>   -4.6360    1.0000 </r>
       <r>   -4.5548    1.0000 </r>
       <r>   -4.5201    1.0000 </r>
       <r>   -4.4213    1.0000 </r>
       <r>   -4.0498    1.0000 </r>
       <r>   -4.0104    1.0000 </r>
       <r>   -3.8655    1.0000 </r>
       <r>   -3.7939    1.0000 </r>
       <r>   -3.7454    1.0000 </r>
       <r>   -3.3131    1.0000 </r>
       <r>   -3.1687    1.0000 </r>
       <r>   -3.0256    1.0000 </r>
       <r>   -2.9704    1.0000 </r>
       <r>   -2.5028    1.0000 </r>
       <r>   -1.9600    1.0000 </r>
       <r>   -1.9552    1.0000 </r>
       <r>   -1.9157    1.0000 </r>
       <r>   -1.8779    1.0000 </r>
       <r>   -1.6924    1.0000 </r>
       <r>   -1.6548    1.0000 </r>
       <r>   -1.5183    1.0000 </r>
       <r>   -1.4023    1.0000 </r>
       <r>   -1.3172    1.0000 </r>
       <r>   -1.3105    1.0000 </r>
       <r>   -1.3048    1.0000 </r>
       <r>   -1.2868    1.0000 </r>
       <r>   -1.2723    1.0000 </r>
       <r>   -1.2361    1.0000 </r>
       <r>   -1.2209    1.0000 </r>
       <r>   -1.1272    1.0000 </r>
       <r>   -1.0992    1.0000 </r>
       <r>   -1.0408    1.0000 </r>
       <r>   -0.9840    1.0000 </r>
       <r>   -0.8037    1.0000 </r>
       <r>   -0.7336    1.0000 </r>
       <r>   -0.7185    1.0000 </r>
       <r>   -0.7162    1.0000 </r>
       <r>   -0.4928    1.0000 </r>
       <r>   -0.4713    1.0000 </r>
       <r>   -0.4247    1.0000 </r>
       <r>   -0.3729    1.0000 </r>
       <r>   -0.3649    1.0000 </r>
       <r>   -0.2418    1.0000 </r>
       <r>   -0.2242    1.0000 </r>
       <r>   -0.1073    1.0000 </r>
       <r>   -0.0860    1.0000 </r>
       <r>   -0.0730    1.0000 </r>
       <r>   -0.0592    1.0000 </r>
       <r>   -0.0413    1.0000 </r>
       <r>   -0.0375    1.0000 </r>
       <r>   -0.0231    1.0000 </r>
       <r>   -0.0140    1.0000 </r>
       <r>   -0.0010    1.0000 </r>
       <r>    0.0258    1.0000 </r>
       <r>    0.0268    1.0000 </r>
       <r>    0.2011    1.0000 </r>
       <r>    0.2307    1.0000 </r>
       <r>    0.2484    1.0000 </r>
       <r>    0.3111    1.0000 </r>
       <r>    0.4004    1.0000 </r>
       <r>    0.4083    1.0000 </r>
       <r>    0.4278    1.0000 </r>
       <r>    0.4777    1.0001 </r>
       <r>    0.5391    1.0017 </r>
       <r>    0.5498    1.0026 </r>
       <r>    0.5932    1.0117 </r>
       <r>    0.6095    1.0180 </r>
       <r>    0.6529    1.0350 </r>
       <r>    0.6559    1.0354 </r>
       <r>    0.6923    1.0089 </r>
       <r>    0.7113    0.9584 </r>
       <r>    0.7189    0.9290 </r>
       <r>    0.7230    0.9103 </r>
       <r>    0.8214    0.1861 </r>
       <r>    0.9650   -0.0129 </r>
       <r>    0.9678   -0.0119 </r>
       <r>    0.9894   -0.0060 </r>
       <r>    1.0213   -0.0018 </r>
       <r>    1.0320   -0.0011 </r>
       <r>    1.0472   -0.0005 </r>
       <r>    1.0528   -0.0004 </r>
       <r>    1.1046   -0.0000 </r>
       <r>    1.1557   -0.0000 </r>
       <r>    1.1629   -0.0000 </r>
       <r>    1.2537   -0.0000 </r>
       <r>    1.2583   -0.0000 </r>
       <r>    1.2895   -0.0000 </r>
       <r>    1.2945   -0.0000 </r>
       <r>    1.3321   -0.0000 </r>
       <r>    1.4118   -0.0000 </r>
       <r>    1.4447   -0.0000 </r>
       <r>    1.4597   -0.0000 </r>
       <r>    1.5029   -0.0000 </r>
       <r>    1.5375   -0.0000 </r>
       <r>    1.5937   -0.0000 </r>
       <r>    1.6436   -0.0000 </r>
       <r>    1.6680   -0.0000 </r>
       <r>    1.6883   -0.0000 </r>
       <r>    1.7115   -0.0000 </r>
       <r>    1.7263   -0.0000 </r>
       <r>    1.7729   -0.0000 </r>
       <r>    1.8616   -0.0000 </r>
       <r>    1.8643   -0.0000 </r>
       <r>    1.8712   -0.0000 </r>
       <r>    1.8868   -0.0000 </r>
       <r>    1.9197   -0.0000 </r>
       <r>    1.9978   -0.0000 </r>
       <r>    2.0095   -0.0000 </r>
       <r>    2.0366   -0.0000 </r>
       <r>    2.1076   -0.0000 </r>
       <r>    2.1082   -0.0000 </r>
       <r>    2.1387   -0.0000 </r>
       <r>    2.1757   -0.0000 </r>
       <r>    2.1819   -0.0000 </r>
       <r>    2.1853   -0.0000 </r>
       <r>    2.2256   -0.0000 </r>
       <r>    2.2482   -0.0000 </r>
       <r>    2.2530   -0.0000 </r>
       <r>    2.3170   -0.0000 </r>
       <r>    2.3251   -0.0000 </r>
       <r>    2.3402   -0.0000 </r>
       <r>    2.3436   -0.0000 </r>
       <r>    2.3682   -0.0000 </r>
       <r>    2.3812   -0.0000 </r>
       <r>    2.4238   -0.0000 </r>
       <r>    2.4862   -0.0000 </r>
       <r>    2.4898   -0.0000 </r>
       <r>    2.5201   -0.0000 </r>
       <r>    2.5235   -0.0000 </r>
       <r>    2.5513   -0.0000 </r>
       <r>    2.5648   -0.0000 </r>
       <r>    2.5740   -0.0000 </r>
      </set>
      <set comment="kpoint 2">
       <r>  -56.5321    1.0000 </r>
       <r>  -56.5312    1.0000 </r>
       <r>  -56.5272    1.0000 </r>
       <r>  -56.5007    1.0000 </r>
       <r>  -56.1693    1.0000 </r>
       <r>  -56.1679    1.0000 </r>
       <r>  -56.1357    1.0000 </r>
       <r>  -56.1320    1.0000 </r>
       <r>  -55.9281    1.0000 </r>
       <r>  -55.9220    1.0000 </r>
       <r>  -55.9206    1.0000 </r>
       <r>  -55.9191    1.0000 </r>
       <r>  -55.9174    1.0000 </r>
       <r>  -55.9156    1.0000 </r>
       <r>  -55.9051    1.0000 </r>
       <r>  -55.8951    1.0000 </r>
       <r>  -55.8727    1.0000 </r>
       <r>  -55.8685    1.0000 </r>
       <r>  -55.8635    1.0000 </r>
       <r>  -55.8634    1.0000 </r>
       <r>  -55.8623    1.0000 </r>
       <r>  -55.8530    1.0000 </r>
       <r>  -55.8461    1.0000 </r>
       <r>  -55.8417    1.0000 </r>
       <r>  -32.9956    1.0000 </r>
       <r>  -32.9815    1.0000 </r>
       <r>  -32.9809    1.0000 </r>
       <r>  -32.9551    1.0000 </r>
       <r>  -32.7228    1.0000 </r>
       <r>  -32.7126    1.0000 </r>
       <r>  -32.7036    1.0000 </r>
       <r>  -32.7011    1.0000 </r>
       <r>  -32.6974    1.0000 </r>
       <r>  -32.6953    1.0000 </r>
       <r>  -32.6790    1.0000 </r>
       <r>  -32.6718    1.0000 </r>
       <r>  -32.5691    1.0000 </r>
       <r>  -32.5663    1.0000 </r>
       <r>  -32.5421    1.0000 </r>
       <r>  -32.5319    1.0000 </r>
       <r>  -32.4363    1.0000 </r>
       <r>  -32.4130    1.0000 </r>
       <r>  -32.3996    1.0000 </r>
       <r>  -32.3756    1.0000 </r>
       <r>  -32.3591    1.0000 </r>
       <r>  -32.3538    1.0000 </r>
       <r>  -32.3446    1.0000 </r>
       <r>  -32.3391    1.0000 </r>
       <r>  -32.3373    1.0000 </r>
       <r>  -32.3310    1.0000 </r>
       <r>  -32.3248    1.0000 </r>
       <r>  -32.3226    1.0000 </r>
       <r>  -32.3044    1.0000 </r>
       <r>  -32.2953    1.0000 </r>
       <r>  -32.2950    1.0000 </r>
       <r>  -32.2785    1.0000 </r>
       <r>  -32.2693    1.0000 </r>
       <r>  -32.2610    1.0000 </r>
       <r>  -32.2600    1.0000 </r>
       <r>  -32.2549    1.0000 </r>
       <r>  -32.2548    1.0000 </r>
       <r>  -32.2501    1.0000 </r>
       <r>  -32.2491    1.0000 </r>
       <r>  -32.2423    1.0000 </r>
       <r>  -32.2391    1.0000 </r>
       <r>  -32.2353    1.0000 </r>
       <r>  -32.2348    1.0000 </r>
       <r>  -32.2253    1.0000 </r>
       <r>  -32.2198    1.0000 </r>
       <r>  -32.2185    1.0000 </r>
       <r>  -32.2120    1.0000 </r>
       <r>  -32.2081    1.0000 </r>
       <r>  -32.1672    1.0000 </r>
       <r>  -32.1619    1.0000 </r>
       <r>  -32.1585    1.0000 </r>
       <r>  -32.1548    1.0000 </r>
       <r>  -32.1488    1.0000 </r>
       <r>  -32.1441    1.0000 </r>
       <r>  -32.1418    1.0000 </r>
       <r>  -32.1411    1.0000 </r>
       <r>  -32.0768    1.0000 </r>
       <r>  -32.0714    1.0000 </r>
       <r>  -32.0603    1.0000 </r>
       <r>  -32.0530    1.0000 </r>
       <r>  -32.0506    1.0000 </r>
       <r>  -32.0423    1.0000 </r>
       <r>  -32.0364    1.0000 </r>
       <r>  -32.0363    1.0000 </r>
       <r>  -32.0252    1.0000 </r>
       <r>  -32.0238    1.0000 </r>
       <r>  -31.9939    1.0000 </r>
       <r>  -31.9930    1.0000 </r>
       <r>  -31.9849    1.0000 </r>
       <r>  -31.9843    1.0000 </r>
       <r>  -31.9802    1.0000 </r>
       <r>  -31.9771    1.0000 </r>
       <r>  -13.7006    1.0000 </r>
       <r>  -13.6992    1.0000 </r>
       <r>  -13.6866    1.0000 </r>
       <r>  -13.6801    1.0000 </r>
       <r>  -13.6797    1.0000 </r>
       <r>  -13.6729    1.0000 </r>
       <r>  -13.6614    1.0000 </r>
       <r>  -13.6528    1.0000 </r>
       <r>  -13.6464    1.0000 </r>
       <r>  -13.6273    1.0000 </r>
       <r>  -13.3944    1.0000 </r>
       <r>  -13.3857    1.0000 </r>
       <r>  -13.3764    1.0000 </r>
       <r>  -13.3655    1.0000 </r>
       <r>  -13.3257    1.0000 </r>
       <r>   -7.9594    1.0000 </r>
       <r>   -7.2418    1.0000 </r>
       <r>   -6.9363    1.0000 </r>
       <r>   -6.4225    1.0000 </r>
       <r>   -6.0541    1.0000 </r>
       <r>   -5.7091    1.0000 </r>
       <r>   -5.5394    1.0000 </r>
       <r>   -5.5199    1.0000 </r>
       <r>   -5.2870    1.0000 </r>
       <r>   -4.9626    1.0000 </r>
       <r>   -4.9170    1.0000 </r>
       <r>   -4.8938    1.0000 </r>
       <r>   -4.7688    1.0000 </r>
       <r>   -4.6469    1.0000 </r>
       <r>   -4.4986    1.0000 </r>
       <r>   -4.3888    1.0000 </r>
       <r>   -4.3876    1.0000 </r>
       <r>   -4.0298    1.0000 </r>
       <r>   -3.9919    1.0000 </r>
       <r>   -3.8869    1.0000 </r>
       <r>   -3.8307    1.0000 </r>
       <r>   -3.5012    1.0000 </r>
       <r>   -3.2913    1.0000 </r>
       <r>   -3.1415    1.0000 </r>
       <r>   -2.9594    1.0000 </r>
       <r>   -2.8952    1.0000 </r>
       <r>   -2.4892    1.0000 </r>
       <r>   -2.2326    1.0000 </r>
       <r>   -2.1507    1.0000 </r>
       <r>   -2.1283    1.0000 </r>
       <r>   -2.1238    1.0000 </r>
       <r>   -1.8442    1.0000 </r>
       <r>   -1.7733    1.0000 </r>
       <r>   -1.6458    1.0000 </r>
       <r>   -1.6100    1.0000 </r>
       <r>   -1.5941    1.0000 </r>
       <r>   -1.5233    1.0000 </r>
       <r>   -1.3047    1.0000 </r>
       <r>   -1.2246    1.0000 </r>
       <r>   -1.2212    1.0000 </r>
       <r>   -1.1897    1.0000 </r>
       <r>   -1.1646    1.0000 </r>
       <r>   -1.0945    1.0000 </r>
       <r>   -0.9429    1.0000 </r>
       <r>   -0.9249    1.0000 </r>
       <r>   -0.9033    1.0000 </r>
       <r>   -0.7429    1.0000 </r>
       <r>   -0.7391    1.0000 </r>
       <r>   -0.6749    1.0000 </r>
       <r>   -0.6631    1.0000 </r>
       <r>   -0.5052    1.0000 </r>
       <r>   -0.4922    1.0000 </r>
       <r>   -0.4346    1.0000 </r>
       <r>   -0.4307    1.0000 </r>
       <r>   -0.3203    1.0000 </r>
       <r>   -0.3066    1.0000 </r>
       <r>   -0.2708    1.0000 </r>
       <r>   -0.2472    1.0000 </r>
       <r>   -0.2243    1.0000 </r>
       <r>   -0.1186    1.0000 </r>
       <r>   -0.0449    1.0000 </r>
       <r>   -0.0255    1.0000 </r>
       <r>   -0.0170    1.0000 </r>
       <r>    0.0463    1.0000 </r>
       <r>    0.0930    1.0000 </r>
       <r>    0.1719    1.0000 </r>
       <r>    0.1799    1.0000 </r>
       <r>    0.1860    1.0000 </r>
       <r>    0.2290    1.0000 </r>
       <r>    0.2402    1.0000 </r>
       <r>    0.2514    1.0000 </r>
       <r>    0.2765    1.0000 </r>
       <r>    0.3853    1.0000 </r>
       <r>    0.4453    1.0000 </r>
       <r>    0.4491    1.0000 </r>
       <r>    0.5252    1.0009 </r>
       <r>    0.5319    1.0012 </r>
       <r>    0.5402    1.0017 </r>
       <r>    0.5727    1.0061 </r>
       <r>    0.5924    1.0114 </r>
       <r>    0.6424    1.0323 </r>
       <r>    0.6473    1.0338 </r>
       <r>    0.6914    1.0105 </r>
       <r>    0.7870    0.4482 </r>
       <r>    0.7878    0.4419 </r>
       <r>    0.8224    0.1801 </r>
       <r>    0.9024   -0.0354 </r>
       <r>    0.9232   -0.0309 </r>
       <r>    0.9421   -0.0225 </r>
       <r>    0.9583   -0.0155 </r>
       <r>    0.9680   -0.0118 </r>
       <r>    1.0696   -0.0002 </r>
       <r>    1.0772   -0.0001 </r>
       <r>    1.1190   -0.0000 </r>
       <r>    1.1205   -0.0000 </r>
       <r>    1.2060   -0.0000 </r>
       <r>    1.2723   -0.0000 </r>
       <r>    1.3246   -0.0000 </r>
       <r>    1.3587   -0.0000 </r>
       <r>    1.3868   -0.0000 </r>
       <r>    1.4008   -0.0000 </r>
       <r>    1.4124   -0.0000 </r>
       <r>    1.4282   -0.0000 </r>
       <r>    1.4472   -0.0000 </r>
       <r>    1.4902   -0.0000 </r>
       <r>    1.5235   -0.0000 </r>
       <r>    1.5236   -0.0000 </r>
       <r>    1.6536   -0.0000 </r>
       <r>    1.6847   -0.0000 </r>
       <r>    1.6921   -0.0000 </r>
       <r>    1.6941   -0.0000 </r>
       <r>    1.7215   -0.0000 </r>
       <r>    1.8201   -0.0000 </r>
       <r>    1.8361   -0.0000 </r>
       <r>    1.8692   -0.0000 </r>
       <r>    1.9228   -0.0000 </r>
       <r>    1.9456   -0.0000 </r>
       <r>    1.9484   -0.0000 </r>
       <r>    1.9672   -0.0000 </r>
       <r>    1.9751   -0.0000 </r>
       <r>    1.9943   -0.0000 </r>
       <r>    2.0025   -0.0000 </r>
       <r>    2.1100   -0.0000 </r>
       <r>    2.1151   -0.0000 </r>
       <r>    2.1201   -0.0000 </r>
       <r>    2.1738   -0.0000 </r>
       <r>    2.1865   -0.0000 </r>
       <r>    2.1984   -0.0000 </r>
       <r>    2.2199   -0.0000 </r>
       <r>    2.2224   -0.0000 </r>
       <r>    2.2493   -0.0000 </r>
       <r>    2.2536   -0.0000 </r>
       <r>    2.3229   -0.0000 </r>
       <r>    2.3252   -0.0000 </r>
       <r>    2.3599   -0.0000 </r>
       <r>    2.3827   -0.0000 </r>
       <r>    2.4004   -0.0000 </r>
       <r>    2.4534   -0.0000 </r>
       <r>    2.4572   -0.0000 </r>
       <r>    2.4709   -0.0000 </r>
       <r>    2.4950   -0.0000 </r>
       <r>    2.5060   -0.0000 </r>
       <r>    2.5522   -0.0000 </r>
       <r>    2.5751   -0.0000 </r>
       <r>    2.5775   -0.0000 </r>
      </set>
      <set comment="kpoint 3">
       <r>  -56.5321    1.0000 </r>
       <r>  -56.5312    1.0000 </r>
       <r>  -56.5272    1.0000 </r>
       <r>  -56.5007    1.0000 </r>
       <r>  -56.1693    1.0000 </r>
       <r>  -56.1679    1.0000 </r>
       <r>  -56.1357    1.0000 </r>
       <r>  -56.1320    1.0000 </r>
       <r>  -55.9280    1.0000 </r>
       <r>  -55.9220    1.0000 </r>
       <r>  -55.9206    1.0000 </r>
       <r>  -55.9191    1.0000 </r>
       <r>  -55.9174    1.0000 </r>
       <r>  -55.9156    1.0000 </r>
       <r>  -55.9051    1.0000 </r>
       <r>  -55.8951    1.0000 </r>
       <r>  -55.8727    1.0000 </r>
       <r>  -55.8685    1.0000 </r>
       <r>  -55.8635    1.0000 </r>
       <r>  -55.8634    1.0000 </r>
       <r>  -55.8623    1.0000 </r>
       <r>  -55.8530    1.0000 </r>
       <r>  -55.8461    1.0000 </r>
       <r>  -55.8417    1.0000 </r>
       <r>  -32.9956    1.0000 </r>
       <r>  -32.9815    1.0000 </r>
       <r>  -32.9809    1.0000 </r>
       <r>  -32.9551    1.0000 </r>
       <r>  -32.7228    1.0000 </r>
       <r>  -32.7126    1.0000 </r>
       <r>  -32.7036    1.0000 </r>
       <r>  -32.7011    1.0000 </r>
       <r>  -32.6974    1.0000 </r>
       <r>  -32.6953    1.0000 </r>
       <r>  -32.6790    1.0000 </r>
       <r>  -32.6718    1.0000 </r>
       <r>  -32.5691    1.0000 </r>
       <r>  -32.5663    1.0000 </r>
       <r>  -32.5421    1.0000 </r>
       <r>  -32.5319    1.0000 </r>
       <r>  -32.4363    1.0000 </r>
       <r>  -32.4130    1.0000 </r>
       <r>  -32.3996    1.0000 </r>
       <r>  -32.3756    1.0000 </r>
       <r>  -32.3587    1.0000 </r>
       <r>  -32.3538    1.0000 </r>
       <r>  -32.3437    1.0000 </r>
       <r>  -32.3391    1.0000 </r>
       <r>  -32.3376    1.0000 </r>
       <r>  -32.3318    1.0000 </r>
       <r>  -32.3248    1.0000 </r>
       <r>  -32.3227    1.0000 </r>
       <r>  -32.3030    1.0000 </r>
       <r>  -32.2976    1.0000 </r>
       <r>  -32.2949    1.0000 </r>
       <r>  -32.2796    1.0000 </r>
       <r>  -32.2691    1.0000 </r>
       <r>  -32.2605    1.0000 </r>
       <r>  -32.2601    1.0000 </r>
       <r>  -32.2561    1.0000 </r>
       <r>  -32.2548    1.0000 </r>
       <r>  -32.2483    1.0000 </r>
       <r>  -32.2482    1.0000 </r>
       <r>  -32.2417    1.0000 </r>
       <r>  -32.2388    1.0000 </r>
       <r>  -32.2355    1.0000 </r>
       <r>  -32.2354    1.0000 </r>
       <r>  -32.2245    1.0000 </r>
       <r>  -32.2197    1.0000 </r>
       <r>  -32.2181    1.0000 </r>
       <r>  -32.2121    1.0000 </r>
       <r>  -32.2097    1.0000 </r>
       <r>  -32.1673    1.0000 </r>
       <r>  -32.1618    1.0000 </r>
       <r>  -32.1587    1.0000 </r>
       <r>  -32.1547    1.0000 </r>
       <r>  -32.1488    1.0000 </r>
       <r>  -32.1441    1.0000 </r>
       <r>  -32.1418    1.0000 </r>
       <r>  -32.1411    1.0000 </r>
       <r>  -32.0769    1.0000 </r>
       <r>  -32.0714    1.0000 </r>
       <r>  -32.0603    1.0000 </r>
       <r>  -32.0530    1.0000 </r>
       <r>  -32.0506    1.0000 </r>
       <r>  -32.0423    1.0000 </r>
       <r>  -32.0364    1.0000 </r>
       <r>  -32.0363    1.0000 </r>
       <r>  -32.0251    1.0000 </r>
       <r>  -32.0240    1.0000 </r>
       <r>  -31.9938    1.0000 </r>
       <r>  -31.9930    1.0000 </r>
       <r>  -31.9849    1.0000 </r>
       <r>  -31.9843    1.0000 </r>
       <r>  -31.9802    1.0000 </r>
       <r>  -31.9771    1.0000 </r>
       <r>  -13.7006    1.0000 </r>
       <r>  -13.6992    1.0000 </r>
       <r>  -13.6866    1.0000 </r>
       <r>  -13.6801    1.0000 </r>
       <r>  -13.6797    1.0000 </r>
       <r>  -13.6729    1.0000 </r>
       <r>  -13.6614    1.0000 </r>
       <r>  -13.6528    1.0000 </r>
       <r>  -13.6464    1.0000 </r>
       <r>  -13.6273    1.0000 </r>
       <r>  -13.3944    1.0000 </r>
       <r>  -13.3857    1.0000 </r>
       <r>  -13.3764    1.0000 </r>
       <r>  -13.3655    1.0000 </r>
       <r>  -13.3257    1.0000 </r>
       <r>   -7.7119    1.0000 </r>
       <r>   -7.5333    1.0000 </r>
       <r>   -6.8616    1.0000 </r>
       <r>   -6.7130    1.0000 </r>
       <r>   -6.0429    1.0000 </r>
       <r>   -5.6744    1.0000 </r>
       <r>   -5.6087    1.0000 </r>
       <r>   -5.5682    1.0000 </r>
       <r>   -5.2057    1.0000 </r>
       <r>   -4.8700    1.0000 </r>
       <r>   -4.8606    1.0000 </r>
       <r>   -4.7471    1.0000 </r>
       <r>   -4.6315    1.0000 </r>
       <r>   -4.5942    1.0000 </r>
       <r>   -4.5282    1.0000 </r>
       <r>   -4.4174    1.0000 </r>
       <r>   -4.3628    1.0000 </r>
       <r>   -3.9904    1.0000 </r>
       <r>   -3.8971    1.0000 </r>
       <r>   -3.8602    1.0000 </r>
       <r>   -3.7184    1.0000 </r>
       <r>   -3.5793    1.0000 </r>
       <r>   -3.0811    1.0000 </r>
       <r>   -2.9660    1.0000 </r>
       <r>   -2.8410    1.0000 </r>
       <r>   -2.7592    1.0000 </r>
       <r>   -2.7337    1.0000 </r>
       <r>   -2.5908    1.0000 </r>
       <r>   -2.4776    1.0000 </r>
       <r>   -2.4514    1.0000 </r>
       <r>   -2.1278    1.0000 </r>
       <r>   -1.9071    1.0000 </r>
       <r>   -1.8268    1.0000 </r>
       <r>   -1.7589    1.0000 </r>
       <r>   -1.7565    1.0000 </r>
       <r>   -1.7168    1.0000 </r>
       <r>   -1.3926    1.0000 </r>
       <r>   -1.3843    1.0000 </r>
       <r>   -1.3484    1.0000 </r>
       <r>   -1.3251    1.0000 </r>
       <r>   -1.2463    1.0000 </r>
       <r>   -1.1294    1.0000 </r>
       <r>   -0.9715    1.0000 </r>
       <r>   -0.9502    1.0000 </r>
       <r>   -0.8607    1.0000 </r>
       <r>   -0.8289    1.0000 </r>
       <r>   -0.8011    1.0000 </r>
       <r>   -0.7009    1.0000 </r>
       <r>   -0.5974    1.0000 </r>
       <r>   -0.5805    1.0000 </r>
       <r>   -0.5375    1.0000 </r>
       <r>   -0.4863    1.0000 </r>
       <r>   -0.4783    1.0000 </r>
       <r>   -0.4647    1.0000 </r>
       <r>   -0.4432    1.0000 </r>
       <r>   -0.4121    1.0000 </r>
       <r>   -0.3996    1.0000 </r>
       <r>   -0.3623    1.0000 </r>
       <r>   -0.1020    1.0000 </r>
       <r>   -0.0734    1.0000 </r>
       <r>    0.0217    1.0000 </r>
       <r>    0.0736    1.0000 </r>
       <r>    0.1106    1.0000 </r>
       <r>    0.1262    1.0000 </r>
       <r>    0.1369    1.0000 </r>
       <r>    0.1654    1.0000 </r>
       <r>    0.1977    1.0000 </r>
       <r>    0.2030    1.0000 </r>
       <r>    0.2050    1.0000 </r>
       <r>    0.2725    1.0000 </r>
       <r>    0.3405    1.0000 </r>
       <r>    0.3406    1.0000 </r>
       <r>    0.4158    1.0000 </r>
       <r>    0.4173    1.0000 </r>
       <r>    0.4246    1.0000 </r>
       <r>    0.4332    1.0000 </r>
       <r>    0.5748    1.0065 </r>
       <r>    0.6092    1.0178 </r>
       <r>    0.6113    1.0187 </r>
       <r>    0.6360    1.0298 </r>
       <r>    0.6370    1.0303 </r>
       <r>    0.6743    1.0307 </r>
       <r>    0.7860    0.4571 </r>
       <r>    0.7921    0.4056 </r>
       <r>    0.8054    0.2995 </r>
       <r>    0.8794   -0.0235 </r>
       <r>    0.9357   -0.0255 </r>
       <r>    0.9468   -0.0204 </r>
       <r>    0.9542   -0.0171 </r>
       <r>    0.9577   -0.0157 </r>
       <r>    1.0193   -0.0019 </r>
       <r>    1.0513   -0.0004 </r>
       <r>    1.0618   -0.0003 </r>
       <r>    1.0838   -0.0001 </r>
       <r>    1.1898   -0.0000 </r>
       <r>    1.2280   -0.0000 </r>
       <r>    1.2721   -0.0000 </r>
       <r>    1.3492   -0.0000 </r>
       <r>    1.3517   -0.0000 </r>
       <r>    1.4628   -0.0000 </r>
       <r>    1.4670   -0.0000 </r>
       <r>    1.4766   -0.0000 </r>
       <r>    1.4816   -0.0000 </r>
       <r>    1.5776   -0.0000 </r>
       <r>    1.6086   -0.0000 </r>
       <r>    1.6207   -0.0000 </r>
       <r>    1.6392   -0.0000 </r>
       <r>    1.6824   -0.0000 </r>
       <r>    1.7104   -0.0000 </r>
       <r>    1.7488   -0.0000 </r>
       <r>    1.7596   -0.0000 </r>
       <r>    1.7704   -0.0000 </r>
       <r>    1.8049   -0.0000 </r>
       <r>    1.8194   -0.0000 </r>
       <r>    1.8961   -0.0000 </r>
       <r>    1.9297   -0.0000 </r>
       <r>    1.9450   -0.0000 </r>
       <r>    1.9496   -0.0000 </r>
       <r>    2.0383   -0.0000 </r>
       <r>    2.0454   -0.0000 </r>
       <r>    2.0480   -0.0000 </r>
       <r>    2.0738   -0.0000 </r>
       <r>    2.0749   -0.0000 </r>
       <r>    2.0976   -0.0000 </r>
       <r>    2.1098   -0.0000 </r>
       <r>    2.1128   -0.0000 </r>
       <r>    2.1512   -0.0000 </r>
       <r>    2.1855   -0.0000 </r>
       <r>    2.1939   -0.0000 </r>
       <r>    2.2666   -0.0000 </r>
       <r>    2.2711   -0.0000 </r>
       <r>    2.2791   -0.0000 </r>
       <r>    2.2826   -0.0000 </r>
       <r>    2.2907   -0.0000 </r>
       <r>    2.3393   -0.0000 </r>
       <r>    2.3560   -0.0000 </r>
       <r>    2.3951   -0.0000 </r>
       <r>    2.4365   -0.0000 </r>
       <r>    2.4367   -0.0000 </r>
       <r>    2.4540   -0.0000 </r>
       <r>    2.4676   -0.0000 </r>
       <r>    2.4812   -0.0000 </r>
       <r>    2.5115   -0.0000 </r>
       <r>    2.5248   -0.0000 </r>
       <r>    2.5353   -0.0000 </r>
      </set>
      <set comment="kpoint 4">
       <r>  -56.5320    1.0000 </r>
       <r>  -56.5313    1.0000 </r>
       <r>  -56.5271    1.0000 </r>
       <r>  -56.5007    1.0000 </r>
       <r>  -56.1691    1.0000 </r>
       <r>  -56.1680    1.0000 </r>
       <r>  -56.1357    1.0000 </r>
       <r>  -56.1320    1.0000 </r>
       <r>  -55.9272    1.0000 </r>
       <r>  -55.9212    1.0000 </r>
       <r>  -55.9204    1.0000 </r>
       <r>  -55.9196    1.0000 </r>
       <r>  -55.9181    1.0000 </r>
       <r>  -55.9160    1.0000 </r>
       <r>  -55.9052    1.0000 </r>
       <r>  -55.8960    1.0000 </r>
       <r>  -55.8724    1.0000 </r>
       <r>  -55.8673    1.0000 </r>
       <r>  -55.8636    1.0000 </r>
       <r>  -55.8628    1.0000 </r>
       <r>  -55.8622    1.0000 </r>
       <r>  -55.8539    1.0000 </r>
       <r>  -55.8458    1.0000 </r>
       <r>  -55.8421    1.0000 </r>
       <r>  -32.9956    1.0000 </r>
       <r>  -32.9815    1.0000 </r>
       <r>  -32.9810    1.0000 </r>
       <r>  -32.9551    1.0000 </r>
       <r>  -32.7216    1.0000 </r>
       <r>  -32.7132    1.0000 </r>
       <r>  -32.7034    1.0000 </r>
       <r>  -32.7010    1.0000 </r>
       <r>  -32.6984    1.0000 </r>
       <r>  -32.6942    1.0000 </r>
       <r>  -32.6790    1.0000 </r>
       <r>  -32.6729    1.0000 </r>
       <r>  -32.5688    1.0000 </r>
       <r>  -32.5665    1.0000 </r>
       <r>  -32.5419    1.0000 </r>
       <r>  -32.5320    1.0000 </r>
       <r>  -32.4342    1.0000 </r>
       <r>  -32.4154    1.0000 </r>
       <r>  -32.3975    1.0000 </r>
       <r>  -32.3781    1.0000 </r>
       <r>  -32.3588    1.0000 </r>
       <r>  -32.3543    1.0000 </r>
       <r>  -32.3447    1.0000 </r>
       <r>  -32.3395    1.0000 </r>
       <r>  -32.3370    1.0000 </r>
       <r>  -32.3301    1.0000 </r>
       <r>  -32.3252    1.0000 </r>
       <r>  -32.3226    1.0000 </r>
       <r>  -32.3045    1.0000 </r>
       <r>  -32.2960    1.0000 </r>
       <r>  -32.2936    1.0000 </r>
       <r>  -32.2775    1.0000 </r>
       <r>  -32.2677    1.0000 </r>
       <r>  -32.2603    1.0000 </r>
       <r>  -32.2598    1.0000 </r>
       <r>  -32.2540    1.0000 </r>
       <r>  -32.2523    1.0000 </r>
       <r>  -32.2499    1.0000 </r>
       <r>  -32.2478    1.0000 </r>
       <r>  -32.2418    1.0000 </r>
       <r>  -32.2400    1.0000 </r>
       <r>  -32.2356    1.0000 </r>
       <r>  -32.2343    1.0000 </r>
       <r>  -32.2271    1.0000 </r>
       <r>  -32.2232    1.0000 </r>
       <r>  -32.2191    1.0000 </r>
       <r>  -32.2165    1.0000 </r>
       <r>  -32.2082    1.0000 </r>
       <r>  -32.1671    1.0000 </r>
       <r>  -32.1603    1.0000 </r>
       <r>  -32.1556    1.0000 </r>
       <r>  -32.1547    1.0000 </r>
       <r>  -32.1494    1.0000 </r>
       <r>  -32.1465    1.0000 </r>
       <r>  -32.1435    1.0000 </r>
       <r>  -32.1408    1.0000 </r>
       <r>  -32.0755    1.0000 </r>
       <r>  -32.0684    1.0000 </r>
       <r>  -32.0641    1.0000 </r>
       <r>  -32.0586    1.0000 </r>
       <r>  -32.0519    1.0000 </r>
       <r>  -32.0495    1.0000 </r>
       <r>  -32.0356    1.0000 </r>
       <r>  -32.0345    1.0000 </r>
       <r>  -32.0151    1.0000 </r>
       <r>  -32.0140    1.0000 </r>
       <r>  -31.9952    1.0000 </r>
       <r>  -31.9943    1.0000 </r>
       <r>  -31.9867    1.0000 </r>
       <r>  -31.9853    1.0000 </r>
       <r>  -31.9806    1.0000 </r>
       <r>  -31.9789    1.0000 </r>
       <r>  -13.7006    1.0000 </r>
       <r>  -13.6992    1.0000 </r>
       <r>  -13.6867    1.0000 </r>
       <r>  -13.6801    1.0000 </r>
       <r>  -13.6797    1.0000 </r>
       <r>  -13.6729    1.0000 </r>
       <r>  -13.6614    1.0000 </r>
       <r>  -13.6528    1.0000 </r>
       <r>  -13.6464    1.0000 </r>
       <r>  -13.6273    1.0000 </r>
       <r>  -13.3944    1.0000 </r>
       <r>  -13.3857    1.0000 </r>
       <r>  -13.3764    1.0000 </r>
       <r>  -13.3655    1.0000 </r>
       <r>  -13.3256    1.0000 </r>
       <r>   -7.9563    1.0000 </r>
       <r>   -7.1711    1.0000 </r>
       <r>   -6.6099    1.0000 </r>
       <r>   -6.4131    1.0000 </r>
       <r>   -6.1410    1.0000 </r>
       <r>   -5.9961    1.0000 </r>
       <r>   -5.8889    1.0000 </r>
       <r>   -5.5933    1.0000 </r>
       <r>   -5.5093    1.0000 </r>
       <r>   -5.2413    1.0000 </r>
[...]
       <r>    1.9000   -0.0000 </r>
       <r>    1.9935   -0.0000 </r>
       <r>    2.0387   -0.0000 </r>
       <r>    2.0645   -0.0000 </r>
       <r>    2.0902   -0.0000 </r>
       <r>    2.1313   -0.0000 </r>
       <r>    2.1543   -0.0000 </r>
       <r>    2.2110   -0.0000 </r>
       <r>    2.2213   -0.0000 </r>
       <r>    2.2639   -0.0000 </r>
       <r>    2.2814   -0.0000 </r>
       <r>    2.3175   -0.0000 </r>
       <r>    2.3719   -0.0000 </r>
       <r>    2.3757   -0.0000 </r>
       <r>    2.3914   -0.0000 </r>
       <r>    2.4096   -0.0000 </r>
       <r>    2.4200   -0.0000 </r>
       <r>    2.4986   -0.0000 </r>
       <r>    2.5247   -0.0000 </r>
       <r>    2.5487   -0.0000 </r>
       <r>    2.6055   -0.0000 </r>
       <r>    2.6205   -0.0000 </r>
       <r>    2.6344   -0.0000 </r>
       <r>    2.6601   -0.0000 </r>
       <r>    2.6757   -0.0000 </r>
       <r>    2.6840   -0.0000 </r>
       <r>    2.7476   -0.0000 </r>
       <r>    2.7534   -0.0000 </r>
      </set>
     </set>
    </set>
   </array>
  </eigenvalues>
  <separator name="orbital magnetization" >
   <v name="MAGDIPOLOUT">      0.00000000      0.00000000      0.00000000</v>
  </separator>
  <dos>
   <i name="efermi">      0.78089121 </i>
   <total>
    <array>
     <dimension dim="1">gridpoints</dimension>
     <dimension dim="2">spin</dimension>
     <field>energy</field>
     <field>total</field>
     <field>integrated</field>
     <set>
      <set comment="spin 1">
       <r>   -59.4970     0.0000     0.0000 </r>
       <r>   -59.2795     0.0000     0.0000 </r>
       <r>   -59.0621     0.0000     0.0000 </r>
       <r>   -58.8447     0.0000     0.0000 </r>
       <r>   -58.6273     0.0000     0.0000 </r>
       <r>   -58.4099     0.0000     0.0000 </r>
       <r>   -58.1924     0.0000     0.0000 </r>
       <r>   -57.9750     0.0000     0.0000 </r>
       <r>   -57.7576     0.0000     0.0000 </r>
       <r>   -57.5402    -0.0000    -0.0000 </r>
       <r>   -57.3227    -0.0000    -0.0000 </r>
       <r>   -57.1053    -0.0000    -0.0000 </r>
       <r>   -56.8879    -0.0001    -0.0000 </r>
       <r>   -56.6705    -1.0443    -0.2271 </r>
       <r>   -56.4530    36.0228     7.6051 </r>
       <r>   -56.2356     2.2647     8.0975 </r>
       <r>   -56.0182    33.9007    15.4683 </r>
       <r>   -55.8008   145.0903    47.0143 </r>
       <r>   -55.5834     4.5635    48.0065 </r>
       <r>   -55.3659    -0.0297    48.0000 </r>
       <r>   -55.1485    -0.0000    48.0000 </r>
       <r>   -54.9311     0.0000    48.0000 </r>
       <r>   -54.7137     0.0000    48.0000 </r>
       <r>   -54.4962     0.0000    48.0000 </r>
       <r>   -54.2788     0.0000    48.0000 </r>
       <r>   -54.0614     0.0000    48.0000 </r>
       <r>   -53.8440     0.0000    48.0000 </r>
       <r>   -53.6266     0.0000    48.0000 </r>
       <r>   -53.4091     0.0000    48.0000 </r>
       <r>   -53.1917     0.0000    48.0000 </r>
       <r>   -52.9743     0.0000    48.0000 </r>
       <r>   -52.7569     0.0000    48.0000 </r>
       <r>   -52.5394     0.0000    48.0000 </r>
       <r>   -52.3220     0.0000    48.0000 </r>
       <r>   -52.1046     0.0000    48.0000 </r>
       <r>   -51.8872     0.0000    48.0000 </r>
       <r>   -51.6697     0.0000    48.0000 </r>
       <r>   -51.4523     0.0000    48.0000 </r>
       <r>   -51.2349     0.0000    48.0000 </r>
       <r>   -51.0175     0.0000    48.0000 </r>
       <r>   -50.8001     0.0000    48.0000 </r>
       <r>   -50.5826     0.0000    48.0000 </r>
       <r>   -50.3652     0.0000    48.0000 </r>
       <r>   -50.1478     0.0000    48.0000 </r>
       <r>   -49.9304     0.0000    48.0000 </r>
       <r>   -49.7129     0.0000    48.0000 </r>
       <r>   -49.4955     0.0000    48.0000 </r>
       <r>   -49.2781     0.0000    48.0000 </r>
       <r>   -49.0607     0.0000    48.0000 </r>
       <r>   -48.8432     0.0000    48.0000 </r>
       <r>   -48.6258     0.0000    48.0000 </r>
       <r>   -48.4084     0.0000    48.0000 </r>
       <r>   -48.1910     0.0000    48.0000 </r>
       <r>   -47.9736     0.0000    48.0000 </r>
       <r>   -47.7561     0.0000    48.0000 </r>
       <r>   -47.5387     0.0000    48.0000 </r>
       <r>   -47.3213     0.0000    48.0000 </r>
       <r>   -47.1039     0.0000    48.0000 </r>
       <r>   -46.8864     0.0000    48.0000 </r>
       <r>   -46.6690     0.0000    48.0000 </r>
       <r>   -46.4516     0.0000    48.0000 </r>
       <r>   -46.2342     0.0000    48.0000 </r>
       <r>   -46.0168     0.0000    48.0000 </r>
       <r>   -45.7993     0.0000    48.0000 </r>
       <r>   -45.5819     0.0000    48.0000 </r>
       <r>   -45.3645     0.0000    48.0000 </r>
       <r>   -45.1471     0.0000    48.0000 </r>
       <r>   -44.9296     0.0000    48.0000 </r>
       <r>   -44.7122     0.0000    48.0000 </r>
       <r>   -44.4948     0.0000    48.0000 </r>
       <r>   -44.2774     0.0000    48.0000 </r>
       <r>   -44.0599     0.0000    48.0000 </r>
       <r>   -43.8425     0.0000    48.0000 </r>
       <r>   -43.6251     0.0000    48.0000 </r>
       <r>   -43.4077     0.0000    48.0000 </r>
       <r>   -43.1903     0.0000    48.0000 </r>
       <r>   -42.9728     0.0000    48.0000 </r>
       <r>   -42.7554     0.0000    48.0000 </r>
       <r>   -42.5380     0.0000    48.0000 </r>
       <r>   -42.3206     0.0000    48.0000 </r>
       <r>   -42.1031     0.0000    48.0000 </r>
       <r>   -41.8857     0.0000    48.0000 </r>
       <r>   -41.6683     0.0000    48.0000 </r>
       <r>   -41.4509     0.0000    48.0000 </r>
       <r>   -41.2334     0.0000    48.0000 </r>
       <r>   -41.0160     0.0000    48.0000 </r>
       <r>   -40.7986     0.0000    48.0000 </r>
       <r>   -40.5812     0.0000    48.0000 </r>
       <r>   -40.3638     0.0000    48.0000 </r>
       <r>   -40.1463     0.0000    48.0000 </r>
       <r>   -39.9289     0.0000    48.0000 </r>
       <r>   -39.7115     0.0000    48.0000 </r>
       <r>   -39.4941     0.0000    48.0000 </r>
       <r>   -39.2766     0.0000    48.0000 </r>
       <r>   -39.0592     0.0000    48.0000 </r>
       <r>   -38.8418     0.0000    48.0000 </r>
       <r>   -38.6244     0.0000    48.0000 </r>
       <r>   -38.4070     0.0000    48.0000 </r>
       <r>   -38.1895     0.0000    48.0000 </r>
       <r>   -37.9721     0.0000    48.0000 </r>
       <r>   -37.7547     0.0000    48.0000 </r>
       <r>   -37.5373     0.0000    48.0000 </r>
       <r>   -37.3198     0.0000    48.0000 </r>
       <r>   -37.1024     0.0000    48.0000 </r>
       <r>   -36.8850     0.0000    48.0000 </r>
       <r>   -36.6676     0.0000    48.0000 </r>
       <r>   -36.4501     0.0000    48.0000 </r>
       <r>   -36.2327     0.0000    48.0000 </r>
       <r>   -36.0153     0.0000    48.0000 </r>
       <r>   -35.7979     0.0000    48.0000 </r>
       <r>   -35.5805     0.0000    48.0000 </r>
       <r>   -35.3630     0.0000    48.0000 </r>
       <r>   -35.1456     0.0000    48.0000 </r>
       <r>   -34.9282     0.0000    48.0000 </r>
       <r>   -34.7108     0.0000    48.0000 </r>
       <r>   -34.4933     0.0000    48.0000 </r>
       <r>   -34.2759     0.0000    48.0000 </r>
       <r>   -34.0585     0.0000    48.0000 </r>
       <r>   -33.8411    -0.0000    48.0000 </r>
       <r>   -33.6236    -0.0000    48.0000 </r>
       <r>   -33.4062    -0.0000    48.0000 </r>
       <r>   -33.1888    -0.2267    47.9507 </r>
       <r>   -32.9714    20.6904    52.4493 </r>
       <r>   -32.7540    24.2467    57.7211 </r>
       <r>   -32.5365    88.5154    76.9663 </r>
       <r>   -32.3191   111.7301   101.2590 </r>
       <r>   -32.1017   275.2048   161.0948 </r>
       <r>   -31.8843   145.6888   192.7709 </r>
       <r>   -31.6668    -3.5438   192.0004 </r>
       <r>   -31.4494    -0.0018   192.0000 </r>
       <r>   -31.2320    -0.0000   192.0000 </r>
       <r>   -31.0146     0.0000   192.0000 </r>
       <r>   -30.7972     0.0000   192.0000 </r>
       <r>   -30.5797     0.0000   192.0000 </r>
       <r>   -30.3623     0.0000   192.0000 </r>
       <r>   -30.1449     0.0000   192.0000 </r>
       <r>   -29.9275     0.0000   192.0000 </r>
       <r>   -29.7100     0.0000   192.0000 </r>
       <r>   -29.4926     0.0000   192.0000 </r>
       <r>   -29.2752     0.0000   192.0000 </r>
       <r>   -29.0578     0.0000   192.0000 </r>
       <r>   -28.8403     0.0000   192.0000 </r>
       <r>   -28.6229     0.0000   192.0000 </r>
       <r>   -28.4055     0.0000   192.0000 </r>
       <r>   -28.1881     0.0000   192.0000 </r>
       <r>   -27.9707     0.0000   192.0000 </r>
       <r>   -27.7532     0.0000   192.0000 </r>
       <r>   -27.5358     0.0000   192.0000 </r>
       <r>   -27.3184     0.0000   192.0000 </r>
       <r>   -27.1010     0.0000   192.0000 </r>
       <r>   -26.8835     0.0000   192.0000 </r>
       <r>   -26.6661     0.0000   192.0000 </r>
       <r>   -26.4487     0.0000   192.0000 </r>
       <r>   -26.2313     0.0000   192.0000 </r>
       <r>   -26.0138     0.0000   192.0000 </r>
       <r>   -25.7964     0.0000   192.0000 </r>
       <r>   -25.5790     0.0000   192.0000 </r>
       <r>   -25.3616     0.0000   192.0000 </r>
       <r>   -25.1442     0.0000   192.0000 </r>
       <r>   -24.9267     0.0000   192.0000 </r>
       <r>   -24.7093     0.0000   192.0000 </r>
       <r>   -24.4919     0.0000   192.0000 </r>
       <r>   -24.2745     0.0000   192.0000 </r>
       <r>   -24.0570     0.0000   192.0000 </r>
       <r>   -23.8396     0.0000   192.0000 </r>
       <r>   -23.6222     0.0000   192.0000 </r>
       <r>   -23.4048     0.0000   192.0000 </r>
       <r>   -23.1874     0.0000   192.0000 </r>
       <r>   -22.9699     0.0000   192.0000 </r>
       <r>   -22.7525     0.0000   192.0000 </r>
       <r>   -22.5351     0.0000   192.0000 </r>
       <r>   -22.3177     0.0000   192.0000 </r>
       <r>   -22.1002     0.0000   192.0000 </r>
       <r>   -21.8828     0.0000   192.0000 </r>
       <r>   -21.6654     0.0000   192.0000 </r>
       <r>   -21.4480     0.0000   192.0000 </r>
       <r>   -21.2305     0.0000   192.0000 </r>
       <r>   -21.0131     0.0000   192.0000 </r>
       <r>   -20.7957     0.0000   192.0000 </r>
       <r>   -20.5783     0.0000   192.0000 </r>
       <r>   -20.3609     0.0000   192.0000 </r>
       <r>   -20.1434     0.0000   192.0000 </r>
       <r>   -19.9260     0.0000   192.0000 </r>
       <r>   -19.7086     0.0000   192.0000 </r>
       <r>   -19.4912     0.0000   192.0000 </r>
       <r>   -19.2737     0.0000   192.0000 </r>
       <r>   -19.0563     0.0000   192.0000 </r>
       <r>   -18.8389     0.0000   192.0000 </r>
       <r>   -18.6215     0.0000   192.0000 </r>
       <r>   -18.4040     0.0000   192.0000 </r>
       <r>   -18.1866     0.0000   192.0000 </r>
       <r>   -17.9692     0.0000   192.0000 </r>
       <r>   -17.7518     0.0000   192.0000 </r>
       <r>   -17.5344     0.0000   192.0000 </r>
       <r>   -17.3169     0.0000   192.0000 </r>
       <r>   -17.0995     0.0000   192.0000 </r>
       <r>   -16.8821     0.0000   192.0000 </r>
       <r>   -16.6647     0.0000   192.0000 </r>
       <r>   -16.4472     0.0000   192.0000 </r>
       <r>   -16.2298     0.0000   192.0000 </r>
       <r>   -16.0124     0.0000   192.0000 </r>
       <r>   -15.7950     0.0000   192.0000 </r>
       <r>   -15.5775     0.0000   192.0000 </r>
       <r>   -15.3601     0.0000   192.0000 </r>
       <r>   -15.1427     0.0000   192.0000 </r>
       <r>   -14.9253     0.0000   192.0000 </r>
       <r>   -14.7079    -0.0000   192.0000 </r>
       <r>   -14.4904    -0.0000   192.0000 </r>
       <r>   -14.2730    -0.0000   192.0000 </r>
       <r>   -14.0556    -0.0001   192.0000 </r>
       <r>   -13.8382    -1.8777   191.5917 </r>
       <r>   -13.6207    79.7184   208.9243 </r>
       <r>   -13.4033    25.9887   214.5749 </r>
       <r>   -13.1859    34.8062   222.1425 </r>
       <r>   -12.9685    -0.6555   222.0000 </r>
       <r>   -12.7511    -0.0000   222.0000 </r>
       <r>   -12.5336    -0.0000   222.0000 </r>
       <r>   -12.3162     0.0000   222.0000 </r>
       <r>   -12.0988     0.0000   222.0000 </r>
       <r>   -11.8814     0.0000   222.0000 </r>
       <r>   -11.6639     0.0000   222.0000 </r>
       <r>   -11.4465     0.0000   222.0000 </r>
       <r>   -11.2291     0.0000   222.0000 </r>
       <r>   -11.0117     0.0000   222.0000 </r>
       <r>   -10.7942     0.0000   222.0000 </r>
       <r>   -10.5768     0.0000   222.0000 </r>
       <r>   -10.3594     0.0000   222.0000 </r>
       <r>   -10.1420     0.0000   222.0000 </r>
       <r>    -9.9246     0.0000   222.0000 </r>
       <r>    -9.7071     0.0000   222.0000 </r>
       <r>    -9.4897     0.0000   222.0000 </r>
       <r>    -9.2723     0.0000   222.0000 </r>
       <r>    -9.0549    -0.0000   222.0000 </r>
       <r>    -8.8374    -0.0000   222.0000 </r>
       <r>    -8.6200    -0.0000   222.0000 </r>
       <r>    -8.4026    -0.0000   222.0000 </r>
       <r>    -8.1852    -0.0224   221.9951 </r>
       <r>    -7.9677     1.4683   222.3144 </r>
       <r>    -7.7503     2.6373   222.8878 </r>
       <r>    -7.5329     4.0891   223.7768 </r>
       <r>    -7.3155     2.3347   224.2844 </r>
       <r>    -7.0981     7.2210   225.8545 </r>
       <r>    -6.8806     4.4814   226.8288 </r>
       <r>    -6.6632     4.5389   227.8157 </r>
       <r>    -6.4458     8.3733   229.6362 </r>
       <r>    -6.2284     7.9092   231.3559 </r>
       <r>    -6.0109     7.8822   233.0697 </r>
       <r>    -5.7935     8.5099   234.9199 </r>
       <r>    -5.5761    10.1295   237.1223 </r>
       <r>    -5.3587    12.0355   239.7391 </r>
       <r>    -5.1413    10.2634   241.9706 </r>
       <r>    -4.9238     8.5381   243.8270 </r>
       <r>    -4.7064    12.5759   246.5613 </r>
       <r>    -4.4890    12.4482   249.2678 </r>
       <r>    -4.2716    17.4637   253.0648 </r>
       <r>    -4.0541     8.1627   254.8396 </r>
       <r>    -3.8367    15.9896   258.3161 </r>
       <r>    -3.6193    16.2037   261.8391 </r>
       <r>    -3.4019     9.7386   263.9565 </r>
       <r>    -3.1844    16.9097   267.6331 </r>
       <r>    -2.9670     8.9370   269.5762 </r>
       <r>    -2.7496    11.9461   272.1736 </r>
       <r>    -2.5322    10.7327   274.5071 </r>
       <r>    -2.3148    13.6490   277.4747 </r>
       <r>    -2.0973    15.2429   280.7888 </r>
       <r>    -1.8799    16.3848   284.3513 </r>
       <r>    -1.6625    29.6512   290.7981 </r>
       <r>    -1.4451    24.4583   296.1159 </r>
       <r>    -1.2276    33.5436   303.4091 </r>
       <r>    -1.0102    32.6279   310.5031 </r>
       <r>    -0.7928    39.9241   319.1836 </r>
       <r>    -0.5754    32.9379   326.3450 </r>
       <r>    -0.3579    39.7410   334.9856 </r>
       <r>    -0.1405    37.3972   343.1166 </r>
       <r>     0.0769    42.4206   352.3399 </r>
       <r>     0.2943    48.2426   362.8289 </r>
       <r>     0.5117    55.0924   374.8072 </r>
       <r>     0.7292    55.5243   386.8795 </r>
       <r>     0.9466    53.8009   398.5770 </r>
       <r>     1.1640    60.1093   411.6462 </r>
       <r>     1.3814    50.2022   422.5613 </r>
       <r>     1.5989    69.5035   437.6729 </r>
       <r>     1.8163    51.2413   448.8140 </r>
       <r>     2.0337    63.0277   462.5176 </r>
       <r>     2.2511    72.2845   478.2339 </r>
       <r>     2.4685    70.9353   493.6569 </r>
       <r>     2.6860    74.3721   509.8271 </r>
       <r>     2.9034    10.1908   512.0428 </r>
       <r>     3.1208    -0.1968   512.0000 </r>
       <r>     3.3382    -0.0000   512.0000 </r>
       <r>     3.5557    -0.0000   512.0000 </r>
       <r>     3.7731     0.0000   512.0000 </r>
       <r>     3.9905     0.0000   512.0000 </r>
       <r>     4.2079     0.0000   512.0000 </r>
       <r>     4.4254     0.0000   512.0000 </r>
       <r>     4.6428     0.0000   512.0000 </r>
       <r>     4.8602     0.0000   512.0000 </r>
       <r>     5.0776     0.0000   512.0000 </r>
       <r>     5.2950     0.0000   512.0000 </r>
       <r>     5.5125     0.0000   512.0000 </r>
       <r>     5.7299     0.0000   512.0000 </r>
      </set>
     </set>
    </array>
   </total>
  </dos>
 </calculation>
 <structure name="finalpos" >
  <crystal>
   <varray name="basis" >
    <v>       6.65615711       7.30319401       0.00000000 </v>
    <v>      -3.22519250       7.30319401       0.00000000 </v>
    <v>      -3.43096461      -1.51516190      29.92506928 </v>
   </varray>
   <i name="volume">   2159.55499341 </i>
   <varray name="rec_basis" >
    <v>       0.10120075       0.04469167       0.01386568 </v>
    <v>      -0.10120075       0.09223473      -0.00693284 </v>
    <v>       0.00000000       0.00000000       0.03341680 </v>
   </varray>
  </crystal>
  <varray name="positions" >
   <v>       0.99971998       0.00014001       0.32062219 </v>
   <v>       0.33305331       0.33347335       0.44030383 </v>
   <v>       0.66638664       0.66680668       0.55998548 </v>
   <v>       0.66720957       0.16639522       0.38031527 </v>
   <v>       0.00054290       0.49972855       0.49999692 </v>
   <v>       0.33387623       0.83306188       0.61967857 </v>
   <v>       0.16625521       0.16667524       0.38041582 </v>
   <v>       0.49958854       0.50000857       0.50009746 </v>
   <v>       0.83292187       0.83334191       0.61977911 </v>
   <v>       0.83374479       0.33293045       0.44010891 </v>
   <v>       0.16707813       0.66626378       0.55979055 </v>
   <v>       0.50041146       0.99959711       0.67947220 </v>
   <v>       0.16625521       0.66706955       0.38041582 </v>
   <v>       0.49958854       0.00040289       0.50009746 </v>
   <v>       0.83292187       0.33373622       0.61977911 </v>
   <v>       0.83374479       0.83332476       0.44010891 </v>
   <v>       0.16707813       0.16665809       0.55979055 </v>
   <v>       0.50041146       0.49999143       0.67947220 </v>
   <v>       0.33279043       0.83360478       0.44020945 </v>
   <v>       0.66612377       0.16693812       0.55989109 </v>
   <v>       0.99945710       0.50027145       0.32052780 </v>
   <v>       0.00028002       0.99985999       0.49990254 </v>
   <v>       0.33361336       0.33319332       0.61958418 </v>
   <v>       0.66694669       0.66652665       0.38022089 </v>
   <v>       0.00000000       0.00000000       0.41026236 </v>
   <v>       0.33333333       0.33333333       0.52994401 </v>
   <v>       0.66666667       0.66666667       0.64962565 </v>
   <v>       0.66666667       0.16666667       0.47010318 </v>
   <v>       0.00000000       0.50000000       0.58978483 </v>
   <v>       0.33333333       0.83333333       0.35042154 </v>
   <v>       0.16666667       0.16666667       0.47010318 </v>
   <v>       0.50000000       0.50000000       0.58978483 </v>
   <v>       0.83333333       0.83333333       0.35042154 </v>
   <v>       0.83333333       0.33333333       0.52994401 </v>
   <v>       0.16666667       0.66666667       0.64962565 </v>
   <v>       0.50000000       0.00000000       0.41026236 </v>
   <v>       0.16666667       0.66666667       0.47010318 </v>
   <v>       0.50000000       0.00000000       0.58978483 </v>
   <v>       0.83333333       0.33333333       0.35042154 </v>
   <v>       0.83333333       0.83333333       0.52994401 </v>
   <v>       0.16666667       0.16666667       0.64962565 </v>
   <v>       0.50000000       0.50000000       0.41026236 </v>
   <v>       0.33333333       0.83333333       0.52994401 </v>
   <v>       0.66666667       0.16666667       0.64962565 </v>
   <v>       0.00000000       0.50000000       0.41026236 </v>
   <v>       0.00000000       0.00000000       0.58978483 </v>
   <v>       0.33333333       0.33333333       0.35042154 </v>
   <v>       0.66666667       0.66666667       0.47010318 </v>
  </varray>
 </structure>
</modeling>
