unknown system                          
           1
     6.656157    7.303194    0.000000
    -3.225193    7.303194    0.000000
    -3.430965   -1.515162   29.925069
   Ti   Ga   Al
    24     3    21
Direct configuration=     1
   0.99971998  0.00014001  0.32062219
   0.33305331  0.33347335  0.44030383
   0.66638664  0.66680668  0.55998548
   0.66720957  0.16639522  0.38031527
   0.00054290  0.49972855  0.49999692
   0.33387623  0.83306188  0.61967857
   0.16625521  0.16667524  0.38041582
   0.49958854  0.50000857  0.50009746
   0.83292187  0.83334191  0.61977911
   0.83374479  0.33293045  0.44010891
   0.16707813  0.66626378  0.55979055
   0.50041146  0.99959711  0.67947220
   0.16625521  0.66706955  0.38041582
   0.49958854  0.00040289  0.50009746
   0.83292187  0.33373622  0.61977911
   0.83374479  0.83332476  0.44010891
   0.16707813  0.16665809  0.55979055
   0.50041146  0.49999143  0.67947220
   0.33279043  0.83360478  0.44020945
   0.66612377  0.16693812  0.55989109
   0.99945710  0.50027145  0.32052780
   0.00028002  0.99985999  0.49990254
   0.33361336  0.33319332  0.61958418
   0.66694669  0.66652665  0.38022089
   0.00000000  0.00000000  0.41026236
   0.33333333  0.33333333  0.52994401
   0.66666667  0.66666667  0.64962565
   0.66666667  0.16666667  0.47010318
   0.00000000  0.50000000  0.58978483
   0.33333333  0.83333333  0.35042154
   0.16666667  0.16666667  0.47010318
   0.50000000  0.50000000  0.58978483
   0.83333333  0.83333333  0.35042154
   0.83333333  0.33333333  0.52994401
   0.16666667  0.66666667  0.64962565
   0.50000000  0.00000000  0.41026236
   0.16666667  0.66666667  0.47010318
   0.50000000  0.00000000  0.58978483
   0.83333333  0.33333333  0.35042154
   0.83333333  0.83333333  0.52994401
   0.16666667  0.16666667  0.64962565
   0.50000000  0.50000000  0.41026236
   0.33333333  0.83333333  0.52994401
   0.66666667  0.16666667  0.64962565
   0.00000000  0.50000000  0.41026236
   0.00000000  0.00000000  0.58978483
   0.33333333  0.33333333  0.35042154
   0.66666667  0.66666667  0.47010318
