  24  24   0   0
  0.1034623E+02  0.5571496E-09  0.5571496E-09  0.7999259E-09  0.1500000E-16
  1.000000000000000E-004
  CAR 
 unknown system                          
     16.40619124    -51.26039992  301      8.33671012      1.00000000
    -51.260  0.0000E+00  0.0000E+00
    -51.035  0.0000E+00  0.0000E+00
    -50.809  0.0000E+00  0.0000E+00
    -50.584  0.0000E+00  0.0000E+00
    -50.358  0.0000E+00  0.0000E+00
    -50.133  0.0000E+00  0.0000E+00
    -49.907 -0.1941E-33 -0.4379E-34
    -49.682 -0.1526E-25 -0.3441E-26
    -49.456 -0.9497E-19 -0.2142E-19
    -49.230 -0.4533E-13 -0.1023E-13
    -49.005 -0.1746E-08 -0.3939E-09
    -48.779 -0.5184E-05 -0.1170E-05
    -48.554 -0.1067E-02 -0.2418E-03
    -48.328 -0.3800E-02 -0.1099E-02
    -48.103  0.1270E+00  0.2755E-01
    -47.877  0.1028E+00  0.5074E-01
    -47.652 -0.6063E-02  0.4937E-01
    -47.426 -0.6234E-03  0.4923E-01
    -47.200 -0.2090E-05  0.4923E-01
    -46.975 -0.4972E-09  0.4923E-01
    -46.749 -0.9144E-14  0.4923E-01
    -46.524  0.0000E+00  0.4923E-01
    -46.298  0.0000E+00  0.4923E-01
    -46.073  0.0000E+00  0.4923E-01
    -45.847  0.0000E+00  0.4923E-01
    -45.622  0.0000E+00  0.4923E-01
    -45.396  0.0000E+00  0.4923E-01
    -45.170  0.0000E+00  0.4923E-01
    -44.945  0.0000E+00  0.4923E-01
    -44.719  0.0000E+00  0.4923E-01
    -44.494  0.0000E+00  0.4923E-01
    -44.268  0.0000E+00  0.4923E-01
    -44.043  0.0000E+00  0.4923E-01
    -43.817  0.0000E+00  0.4923E-01
    -43.592  0.0000E+00  0.4923E-01
    -43.366  0.0000E+00  0.4923E-01
    -43.140  0.0000E+00  0.4923E-01
    -42.915  0.0000E+00  0.4923E-01
    -42.689  0.0000E+00  0.4923E-01
    -42.464  0.0000E+00  0.4923E-01
    -42.238  0.0000E+00  0.4923E-01
    -42.013  0.0000E+00  0.4923E-01
    -41.787  0.0000E+00  0.4923E-01
    -41.562  0.0000E+00  0.4923E-01
    -41.336  0.0000E+00  0.4923E-01
    -41.110  0.0000E+00  0.4923E-01
    -40.885  0.0000E+00  0.4923E-01
    -40.659  0.0000E+00  0.4923E-01
    -40.434  0.0000E+00  0.4923E-01
    -40.208  0.0000E+00  0.4923E-01
    -39.983  0.0000E+00  0.4923E-01
    -39.757  0.0000E+00  0.4923E-01
    -39.532  0.0000E+00  0.4923E-01
    -39.306  0.0000E+00  0.4923E-01
    -39.080  0.0000E+00  0.4923E-01
    -38.855  0.0000E+00  0.4923E-01
    -38.629  0.0000E+00  0.4923E-01
    -38.404  0.0000E+00  0.4923E-01
    -38.178  0.0000E+00  0.4923E-01
    -37.953  0.0000E+00  0.4923E-01
    -37.727  0.0000E+00  0.4923E-01
    -37.502  0.0000E+00  0.4923E-01
    -37.276  0.0000E+00  0.4923E-01
    -37.050  0.0000E+00  0.4923E-01
    -36.825  0.0000E+00  0.4923E-01
    -36.599  0.0000E+00  0.4923E-01
    -36.374  0.0000E+00  0.4923E-01
    -36.148  0.0000E+00  0.4923E-01
    -35.923  0.0000E+00  0.4923E-01
    -35.697  0.0000E+00  0.4923E-01
    -35.472  0.0000E+00  0.4923E-01
    -35.246  0.0000E+00  0.4923E-01
    -35.020  0.0000E+00  0.4923E-01
    -34.795  0.0000E+00  0.4923E-01
    -34.569  0.0000E+00  0.4923E-01
    -34.344  0.0000E+00  0.4923E-01
    -34.118  0.0000E+00  0.4923E-01
    -33.893  0.0000E+00  0.4923E-01
    -33.667  0.0000E+00  0.4923E-01
    -33.442  0.0000E+00  0.4923E-01
    -33.216  0.0000E+00  0.4923E-01
    -32.990  0.0000E+00  0.4923E-01
    -32.765  0.0000E+00  0.4923E-01
    -32.539  0.0000E+00  0.4923E-01
    -32.314  0.0000E+00  0.4923E-01
    -32.088  0.0000E+00  0.4923E-01
    -31.863  0.0000E+00  0.4923E-01
    -31.637  0.0000E+00  0.4923E-01
    -31.412  0.0000E+00  0.4923E-01
    -31.186  0.0000E+00  0.4923E-01
    -30.960  0.0000E+00  0.4923E-01
    -30.735  0.0000E+00  0.4923E-01
    -30.509  0.0000E+00  0.4923E-01
    -30.284  0.0000E+00  0.4923E-01
    -30.058  0.0000E+00  0.4923E-01
    -29.833  0.0000E+00  0.4923E-01
    -29.607  0.0000E+00  0.4923E-01
    -29.382  0.0000E+00  0.4923E-01
    -29.156  0.0000E+00  0.4923E-01
    -28.930  0.0000E+00  0.4923E-01
    -28.705  0.0000E+00  0.4923E-01
    -28.479  0.0000E+00  0.4923E-01
    -28.254  0.0000E+00  0.4923E-01
    -28.028  0.0000E+00  0.4923E-01
    -27.803  0.0000E+00  0.4923E-01
    -27.577  0.0000E+00  0.4923E-01
    -27.352  0.0000E+00  0.4923E-01
    -27.126  0.0000E+00  0.4923E-01
    -26.900  0.0000E+00  0.4923E-01
    -26.675  0.0000E+00  0.4923E-01
    -26.449 -0.3346E-36  0.4923E-01
    -26.224 -0.5693E-28  0.4923E-01
    -25.998 -0.7413E-21  0.4923E-01
    -25.773 -0.7407E-15  0.4923E-01
    -25.547 -0.5960E-10  0.4923E-01
    -25.322 -0.3787E-06  0.4923E-01
    -25.096 -0.1881E-03  0.4919E-01
    -24.870 -0.6214E-02  0.4779E-01
    -24.645  0.4238E-01  0.5734E-01
    -24.419  0.3037E+00  0.1258E+00
    -24.194  0.2169E+00  0.1748E+00
    -23.968  0.9953E-01  0.1972E+00
    -23.743  0.4010E-04  0.1972E+00
    -23.517 -0.1284E-02  0.1969E+00
    -23.292 -0.1006E-04  0.1969E+00
    -23.066 -0.5253E-08  0.1969E+00
    -22.840 -0.2068E-12  0.1969E+00
    -22.615  0.0000E+00  0.1969E+00
    -22.389  0.0000E+00  0.1969E+00
    -22.164  0.0000E+00  0.1969E+00
    -21.938  0.0000E+00  0.1969E+00
    -21.713  0.0000E+00  0.1969E+00
    -21.487  0.0000E+00  0.1969E+00
    -21.262  0.0000E+00  0.1969E+00
    -21.036  0.0000E+00  0.1969E+00
    -20.810  0.0000E+00  0.1969E+00
    -20.585  0.0000E+00  0.1969E+00
    -20.359  0.0000E+00  0.1969E+00
    -20.134  0.0000E+00  0.1969E+00
    -19.908  0.0000E+00  0.1969E+00
    -19.683  0.0000E+00  0.1969E+00
    -19.457  0.0000E+00  0.1969E+00
    -19.232  0.0000E+00  0.1969E+00
    -19.006  0.0000E+00  0.1969E+00
    -18.780  0.0000E+00  0.1969E+00
    -18.555  0.0000E+00  0.1969E+00
    -18.329  0.0000E+00  0.1969E+00
    -18.104  0.0000E+00  0.1969E+00
    -17.878  0.0000E+00  0.1969E+00
    -17.653  0.0000E+00  0.1969E+00
    -17.427  0.0000E+00  0.1969E+00
    -17.202  0.0000E+00  0.1969E+00
    -16.976  0.0000E+00  0.1969E+00
    -16.750  0.0000E+00  0.1969E+00
    -16.525  0.0000E+00  0.1969E+00
    -16.299  0.0000E+00  0.1969E+00
    -16.074  0.0000E+00  0.1969E+00
    -15.848  0.0000E+00  0.1969E+00
    -15.623  0.0000E+00  0.1969E+00
    -15.397  0.0000E+00  0.1969E+00
    -15.172  0.0000E+00  0.1969E+00
    -14.946  0.0000E+00  0.1969E+00
    -14.720  0.0000E+00  0.1969E+00
    -14.495  0.0000E+00  0.1969E+00
    -14.269  0.0000E+00  0.1969E+00
    -14.044  0.0000E+00  0.1969E+00
    -13.818  0.0000E+00  0.1969E+00
    -13.593  0.0000E+00  0.1969E+00
    -13.367  0.0000E+00  0.1969E+00
    -13.142  0.0000E+00  0.1969E+00
    -12.916  0.0000E+00  0.1969E+00
    -12.690  0.0000E+00  0.1969E+00
    -12.465  0.0000E+00  0.1969E+00
    -12.239  0.0000E+00  0.1969E+00
    -12.014  0.0000E+00  0.1969E+00
    -11.788  0.0000E+00  0.1969E+00
    -11.563  0.0000E+00  0.1969E+00
    -11.337  0.0000E+00  0.1969E+00
    -11.112  0.0000E+00  0.1969E+00
    -10.886  0.0000E+00  0.1969E+00
    -10.660  0.0000E+00  0.1969E+00
    -10.435  0.0000E+00  0.1969E+00
    -10.209  0.0000E+00  0.1969E+00
     -9.984  0.0000E+00  0.1969E+00
     -9.758  0.0000E+00  0.1969E+00
     -9.533  0.0000E+00  0.1969E+00
     -9.307  0.0000E+00  0.1969E+00
     -9.082  0.0000E+00  0.1969E+00
     -8.856  0.0000E+00  0.1969E+00
     -8.630  0.0000E+00  0.1969E+00
     -8.405  0.0000E+00  0.1969E+00
     -8.179  0.0000E+00  0.1969E+00
     -7.954  0.0000E+00  0.1969E+00
     -7.728  0.0000E+00  0.1969E+00
     -7.503  0.0000E+00  0.1969E+00
     -7.277  0.0000E+00  0.1969E+00
     -7.052  0.0000E+00  0.1969E+00
     -6.826  0.0000E+00  0.1969E+00
     -6.600  0.0000E+00  0.1969E+00
     -6.375  0.0000E+00  0.1969E+00
     -6.149  0.0000E+00  0.1969E+00
     -5.924  0.0000E+00  0.1969E+00
     -5.698  0.0000E+00  0.1969E+00
     -5.473  0.0000E+00  0.1969E+00
     -5.247  0.0000E+00  0.1969E+00
     -5.022  0.0000E+00  0.1969E+00
     -4.796  0.0000E+00  0.1969E+00
     -4.570  0.0000E+00  0.1969E+00
     -4.345  0.0000E+00  0.1969E+00
     -4.119  0.0000E+00  0.1969E+00
     -3.894  0.0000E+00  0.1969E+00
     -3.668  0.0000E+00  0.1969E+00
     -3.443  0.0000E+00  0.1969E+00
     -3.217  0.0000E+00  0.1969E+00
     -2.992  0.0000E+00  0.1969E+00
     -2.766  0.0000E+00  0.1969E+00
     -2.540  0.0000E+00  0.1969E+00
     -2.315  0.0000E+00  0.1969E+00
     -2.089 -0.1988E-39  0.1969E+00
     -1.864 -0.4022E-31  0.1969E+00
     -1.638 -0.6276E-24  0.1969E+00
     -1.413 -0.7549E-18  0.1969E+00
     -1.187 -0.7450E-13  0.1969E+00
     -0.962 -0.6127E-09  0.1969E+00
     -0.736 -0.4288E-06  0.1969E+00
     -0.510 -0.2259E-04  0.1969E+00
     -0.285  0.7641E-04  0.1969E+00
     -0.059  0.1359E-02  0.1972E+00
      0.166  0.2861E-02  0.1979E+00
      0.392  0.3878E-02  0.1988E+00
      0.617  0.4622E-02  0.1998E+00
      0.843  0.5540E-02  0.2011E+00
      1.068  0.6430E-02  0.2025E+00
      1.294  0.7153E-02  0.2041E+00
      1.520  0.9206E-02  0.2062E+00
      1.745  0.8962E-02  0.2082E+00
      1.971  0.9192E-02  0.2103E+00
      2.196  0.1023E-01  0.2126E+00
      2.422  0.9313E-02  0.2147E+00
      2.647  0.9199E-02  0.2168E+00
      2.873  0.1140E-01  0.2193E+00
      3.098  0.9796E-02  0.2216E+00
      3.324  0.1013E-01  0.2238E+00
      3.550  0.1188E-01  0.2265E+00
      3.775  0.1436E-01  0.2298E+00
      4.001  0.1460E-01  0.2330E+00
      4.226  0.1278E-01  0.2359E+00
      4.452  0.1550E-01  0.2394E+00
      4.677  0.1325E-01  0.2424E+00
      4.903  0.1296E-01  0.2453E+00
      5.128  0.1489E-01  0.2487E+00
      5.354  0.2007E-01  0.2532E+00
      5.580  0.1731E-01  0.2571E+00
      5.805  0.1757E-01  0.2611E+00
      6.031  0.2429E-01  0.2666E+00
      6.256  0.3405E-01  0.2742E+00
      6.482  0.3832E-01  0.2829E+00
      6.707  0.3853E-01  0.2916E+00
      6.933  0.4729E-01  0.3022E+00
      7.158  0.5854E-01  0.3155E+00
      7.384  0.3868E-01  0.3242E+00
      7.610  0.3560E-01  0.3322E+00
      7.835  0.5214E-01  0.3440E+00
      8.061  0.6289E-01  0.3581E+00
      8.286  0.8506E-01  0.3773E+00
      8.512  0.8429E-01  0.3963E+00
      8.737  0.1988E+00  0.4412E+00
      8.963  0.3687E+00  0.5244E+00
      9.188  0.2989E+00  0.5918E+00
      9.414  0.1439E+00  0.6242E+00
      9.640  0.3323E-01  0.6317E+00
      9.865  0.3979E-01  0.6407E+00
     10.091  0.6789E-01  0.6560E+00
     10.316  0.8293E-01  0.6747E+00
     10.542  0.1027E+00  0.6979E+00
     10.767  0.8902E-01  0.7180E+00
     10.993  0.6729E-01  0.7331E+00
     11.218  0.4423E-01  0.7431E+00
     11.444  0.3038E-01  0.7500E+00
     11.670  0.2913E-01  0.7565E+00
     11.895  0.2247E-01  0.7616E+00
     12.121  0.1481E-01  0.7649E+00
     12.346  0.1933E-01  0.7693E+00
     12.572  0.3705E-01  0.7777E+00
     12.797  0.3457E-01  0.7855E+00
     13.023  0.8412E-02  0.7874E+00
     13.248  0.9558E-03  0.7876E+00
     13.474  0.5343E-03  0.7877E+00
     13.700 -0.5375E-05  0.7877E+00
     13.925 -0.7388E-05  0.7877E+00
     14.151 -0.5329E-07  0.7877E+00
     14.376 -0.2515E-10  0.7877E+00
     14.602 -0.8656E-15  0.7877E+00
     14.827  0.0000E+00  0.7877E+00
     15.053  0.0000E+00  0.7877E+00
     15.278  0.0000E+00  0.7877E+00
     15.504  0.0000E+00  0.7877E+00
     15.730  0.0000E+00  0.7877E+00
     15.955  0.0000E+00  0.7877E+00
     16.181  0.0000E+00  0.7877E+00
     16.406  0.0000E+00  0.7877E+00
