   24   24  325    1
  0.1034623E+02  0.5571496E-09  0.5571496E-09  0.7999259E-09  0.1500000E-16
  1.000000000000000E-004
  CAR 
 unknown system                          
    124     60    128
 
  0.1276756E-14  0.1276756E-14  0.1276756E-14  0.2057613E-02
      1        -48.184646   1.000000
      2        -48.183852   1.000000
      3        -48.116981   1.000000
      4        -48.116981   1.000000
      5        -48.116309   1.000000
      6        -48.116309   1.000000
      7        -48.051938   1.000000
      8        -48.051322   1.000000
      9        -24.660929   1.000000
     10        -24.660906   1.000000
     11        -24.657997   1.000000
     12        -24.657972   1.000000
     13        -24.583726   1.000000
     14        -24.583726   1.000000
     15        -24.581995   1.000000
     16        -24.581995   1.000000
     17        -24.551479   1.000000
     18        -24.531261   1.000000
     19        -24.480514   1.000000
     20        -24.480514   1.000000
     21        -24.465435   1.000000
     22        -24.465435   1.000000
     23        -24.417519   1.000000
     24        -24.404884   1.000000
     25        -24.126223   1.000000
     26        -24.126223   1.000000
     27        -24.125473   1.000000
     28        -24.125473   1.000000
     29        -24.078785   1.000000
     30        -24.078763   1.000000
     31        -24.078019   1.000000
     32        -24.077996   1.000000
     33         -0.271981   1.000000
     34          1.378805   1.000000
     35          3.278916   1.000000
     36          3.879820   1.000000
     37          3.880037   1.000000
     38          4.148290   1.000000
     39          4.148290   1.000000
     40          4.361561   1.000000
     41          4.361816   1.000000
     42          5.272555   1.000000
     43          5.871835   1.000000
     44          5.909858   1.000000
     45          5.909858   1.000000
     46          6.350153   1.000000
     47          6.350153   1.000000
     48          6.440037   1.000000
     49          6.838083   1.000000
     50          6.838170   1.000000
     51          7.041398   1.000000
     52          7.041398   1.000000
     53          7.402292   1.000000
     54          7.484883   1.000000
     55          7.569067   1.000000
     56          7.569212   1.000000
     57          7.683338   1.000019
     58          7.771313   1.000238
     59          7.771313   1.000238
     60          8.174244   0.993135
     61          8.174244   0.993135
     62          8.344445   0.467298
     63          8.441054   0.118208
     64          8.441054   0.118208
     65          8.546622  -0.029535
     66          8.708229  -0.012318
     67          8.712543  -0.011579
     68          8.713010  -0.011501
     69          8.716423  -0.010941
     70          8.716423  -0.010941
     71          8.719443  -0.010460
     72          8.719443  -0.010460
     73          8.801299  -0.002462
     74          8.801891  -0.002432
     75          8.804197  -0.002321
     76          8.804846  -0.002290
     77          8.807444  -0.002171
     78          8.847693  -0.000903
     79          8.867334  -0.000569
     80          8.867943  -0.000560
     81          8.911230  -0.000187
     82          8.911230  -0.000187
     83          8.912543  -0.000181
     84          8.912543  -0.000181
     85          8.923264  -0.000135
     86          8.938289  -0.000089
     87          8.938289  -0.000089
     88          8.959242  -0.000049
     89          8.964953  -0.000041
     90          8.992909  -0.000018
     91          8.992909  -0.000018
     92          9.016650  -0.000008
     93          9.016650  -0.000008
     94          9.083694  -0.000001
     95          9.102736  -0.000000
     96          9.135922  -0.000000
     97          9.136553  -0.000000
     98          9.142707  -0.000000
     99          9.143163  -0.000000
    100          9.165747  -0.000000
    101          9.166408  -0.000000
    102          9.191777  -0.000000
    103          9.628204  -0.000000
    104          9.628204  -0.000000
    105          9.797230  -0.000000
    106         10.196173  -0.000000
    107         10.196173  -0.000000
    108         10.358748  -0.000000
    109         10.358748  -0.000000
    110         10.398775  -0.000000
    111         10.398775  -0.000000
    112         10.426418  -0.000000
    113         10.426418  -0.000000
    114         10.720629  -0.000000
    115         10.861162  -0.000000
    116         10.861162  -0.000000
    117         10.972713  -0.000000
    118         10.972731  -0.000000
    119         11.060294  -0.000000
    120         11.060312  -0.000000
    121         11.319705  -0.000000
    122         11.826587  -0.000000
    123         11.826788  -0.000000
    124         12.766810   0.000000
    125         12.769244   0.000000
    126         12.841476   0.000000
    127         12.841641   0.000000
    128         12.896239   0.000000
 
  0.1111111E+00  0.1276756E-14  0.1276756E-14  0.8230453E-02
      1        -48.182618   1.000000
      2        -48.181826   1.000000
      3        -48.119041   1.000000
      4        -48.118364   1.000000
      5        -48.115041   1.000000
      6        -48.114368   1.000000
      7        -48.053909   1.000000
      8        -48.053296   1.000000
      9        -24.658614   1.000000
     10        -24.655713   1.000000
     11        -24.645265   1.000000
     12        -24.642410   1.000000
     13        -24.586066   1.000000
     14        -24.584296   1.000000
     15        -24.568904   1.000000
     16        -24.567196   1.000000
     17        -24.549352   1.000000
     18        -24.529286   1.000000
     19        -24.482666   1.000000
     20        -24.478623   1.000000
     21        -24.467428   1.000000
     22        -24.463624   1.000000
     23        -24.419430   1.000000
     24        -24.406717   1.000000
     25        -24.142840   1.000000
     26        -24.142026   1.000000
     27        -24.124798   1.000000
     28        -24.124044   1.000000
     29        -24.094442   1.000000
     30        -24.093648   1.000000
     31        -24.080222   1.000000
     32        -24.079454   1.000000
     33         -0.209505   1.000000
     34          1.422264   1.000000
     35          3.349643   1.000000
     36          3.384317   1.000000
     37          3.694607   1.000000
     38          3.928362   1.000000
     39          4.209891   1.000000
     40          4.391218   1.000000
     41          5.155595   1.000000
     42          5.254156   1.000000
     43          5.911226   1.000000
     44          5.926481   1.000000
     45          6.128355   1.000000
     46          6.215195   1.000000
     47          6.342129   1.000000
     48          6.488544   1.000000
     49          6.683127   1.000000
     50          6.866139   1.000000
     51          6.876178   1.000000
     52          7.123279   1.000000
     53          7.223306   1.000000
     54          7.426241   1.000000
     55          7.493650   1.000000
     56          7.716525   1.000053
     57          7.746387   1.000122
     58          7.805477   1.000560
     59          7.807631   1.000590
     60          8.097715   1.035316
     61          8.234835   0.875205
     62          8.360121   0.401687
     63          8.391793   0.276436
     64          8.462978   0.066417
     65          8.524539  -0.017604
     66          8.694991  -0.014764
     67          8.696370  -0.014497
     68          8.700248  -0.013761
     69          8.701249  -0.013574
     70          8.721441  -0.010151
     71          8.724461  -0.009695
     72          8.749640  -0.006451
     73          8.793386  -0.002884
     74          8.801975  -0.002428
     75          8.804938  -0.002286
     76          8.805397  -0.002265
     77          8.808632  -0.002119
     78          8.859070  -0.000693
     79          8.870164  -0.000531
     80          8.878116  -0.000437
     81          8.904367  -0.000224
     82          8.905750  -0.000216
     83          8.914641  -0.000171
     84          8.916916  -0.000161
     85          8.929667  -0.000114
     86          8.935913  -0.000095
     87          8.956407  -0.000053
     88          8.958671  -0.000050
     89          8.965099  -0.000041
     90          8.967468  -0.000039
     91          8.991738  -0.000018
     92          9.013661  -0.000009
     93          9.023561  -0.000007
     94          9.095786  -0.000001
     95          9.105290  -0.000000
     96          9.136542  -0.000000
     97          9.143569  -0.000000
     98          9.145460  -0.000000
     99          9.162752  -0.000000
    100          9.172476  -0.000000
    101          9.180296  -0.000000
    102          9.245306  -0.000000
    103          9.587433  -0.000000
    104          9.641509  -0.000000
    105          9.908278  -0.000000
    106         10.132436  -0.000000
    107         10.236129  -0.000000
    108         10.279827  -0.000000
    109         10.377918  -0.000000
    110         10.404676  -0.000000
    111         10.432937  -0.000000
    112         10.434253  -0.000000
    113         10.491463  -0.000000
    114         10.706434  -0.000000
    115         10.866657  -0.000000
    116         10.954318  -0.000000
    117         10.955534  -0.000000
    118         10.964441  -0.000000
    119         10.969975  -0.000000
    120         11.053761  -0.000000
    121         11.475303  -0.000000
    122         11.763286  -0.000000
    123         11.772982  -0.000000
    124         12.367786   0.000000
    125         12.525873   0.000000
    126         12.702349   0.000000
    127         12.837097   0.000000
    128         12.868408   0.000000
 
  0.2222222E+00  0.1276756E-14  0.1276756E-14  0.8230453E-02
      1        -48.176784   1.000000
      2        -48.176007   1.000000
      3        -48.124958   1.000000
      4        -48.124267   1.000000
      5        -48.109433   1.000000
      6        -48.108762   1.000000
      7        -48.059592   1.000000
      8        -48.058976   1.000000
      9        -24.651956   1.000000
     10        -24.649162   1.000000
     11        -24.600056   1.000000
     12        -24.597367   1.000000
     13        -24.592817   1.000000
     14        -24.590955   1.000000
     15        -24.543231   1.000000
     16        -24.526114   1.000000
     17        -24.524499   1.000000
     18        -24.523608   1.000000
     19        -24.488860   1.000000
     20        -24.473190   1.000000
     21        -24.473185   1.000000
     22        -24.458399   1.000000
     23        -24.424941   1.000000
     24        -24.412005   1.000000
     25        -24.190528   1.000000
     26        -24.189522   1.000000
     27        -24.139380   1.000000
     28        -24.138496   1.000000
     29        -24.120699   1.000000
     30        -24.119944   1.000000
     31        -24.084354   1.000000
     32        -24.083592   1.000000
     33         -0.023394   1.000000
     34          1.551862   1.000000
     35          2.584886   1.000000
     36          3.290826   1.000000
     37          3.558023   1.000000
     38          4.072402   1.000000
     39          4.392043   1.000000
     40          4.476789   1.000000
     41          5.194631   1.000000
     42          5.875570   1.000000
     43          5.973702   1.000000
     44          6.017970   1.000000
     45          6.026965   1.000000
     46          6.091713   1.000000
     47          6.316533   1.000000
     48          6.625738   1.000000
     49          6.626423   1.000000
     50          6.692741   1.000000
     51          6.947527   1.000000
     52          6.988110   1.000000
     53          7.293910   1.000000
     54          7.356597   1.000000
     55          7.487313   1.000000
     56          7.671993   1.000014
     57          7.809235   1.000613
     58          7.911478   1.005207
     59          7.913556   1.005403
     60          8.053770   1.031222
     61          8.248996   0.834517
     62          8.307459   0.622316
     63          8.395614   0.262337
     64          8.406052   0.225227
     65          8.617848  -0.031562
     66          8.639311  -0.027068
     67          8.643337  -0.026153
     68          8.643550  -0.026104
     69          8.649458  -0.024744
     70          8.736173  -0.008064
     71          8.739195  -0.007678
     72          8.767555  -0.004707
     73          8.793282  -0.002890
     74          8.804943  -0.002286
     75          8.816940  -0.001780
     76          8.820104  -0.001665
     77          8.821311  -0.001622
     78          8.876159  -0.000459
     79          8.877895  -0.000440
     80          8.885096  -0.000367
     81          8.886644  -0.000353
     82          8.924337  -0.000131
     83          8.925110  -0.000129
     84          8.925377  -0.000128
     85          8.926007  -0.000126
     86          8.928308  -0.000118
     87          8.940933  -0.000083
     88          8.945852  -0.000072
     89          8.948241  -0.000067
     90          8.987878  -0.000021
     91          9.005019  -0.000012
     92          9.045474  -0.000003
     93          9.051877  -0.000003
     94          9.104246  -0.000000
     95          9.116324  -0.000000
     96          9.137585  -0.000000
     97          9.144419  -0.000000
     98          9.153719  -0.000000
     99          9.175226  -0.000000
    100          9.192797  -0.000000
    101          9.276277  -0.000000
    102          9.370460  -0.000000
    103          9.483459  -0.000000
    104          9.684391  -0.000000
    105          9.974017  -0.000000
    106         10.064033  -0.000000
    107         10.087032  -0.000000
    108         10.326131  -0.000000
    109         10.353407  -0.000000
    110         10.432637  -0.000000
    111         10.457560  -0.000000
    112         10.534224  -0.000000
    113         10.662501  -0.000000
    114         10.696532  -0.000000
    115         10.746491  -0.000000
    116         10.882650  -0.000000
    117         10.901474  -0.000000
    118         10.952061  -0.000000
    119         11.035152  -0.000000
    120         11.263090  -0.000000
    121         11.588359  -0.000000
    122         11.622075  -0.000000
    123         11.622990  -0.000000
    124         11.857998  -0.000000
    125         11.993283  -0.000000
    126         12.583511   0.000000
    127         12.589695   0.000000
    128         12.821195   0.000000
 
  0.3333333E+00  0.1276756E-14  0.1276756E-14  0.8230453E-02
      1        -48.167830   1.000000
      2        -48.167070   1.000000
      3        -48.134010   1.000000
      4        -48.133299   1.000000
      5        -48.100821   1.000000
      6        -48.100171   1.000000
      7        -48.068292   1.000000
      8        -48.067666   1.000000
      9        -24.641733   1.000000
     10        -24.639103   1.000000
     11        -24.603134   1.000000
     12        -24.601100   1.000000
     13        -24.533827   1.000000
     14        -24.530331   1.000000
     15        -24.527918   1.000000
     16        -24.514891   1.000000
     17        -24.498344   1.000000
     18        -24.481975   1.000000
     19        -24.464842   1.000000
     20        -24.460158   1.000000
     21        -24.458647   1.000000
     22        -24.450366   1.000000
     23        -24.433339   1.000000
     24        -24.420092   1.000000
     25        -24.263075   1.000000
     26        -24.261759   1.000000
     27        -24.207761   1.000000
     28        -24.206748   1.000000
     29        -24.114407   1.000000
     30        -24.113655   1.000000
     31        -24.090677   1.000000
     32        -24.089918   1.000000
     33          0.282834   1.000000
     34          1.765192   1.000000
     35          1.863330   1.000000
     36          2.842373   1.000000
     37          3.893471   1.000000
     38          4.307989   1.000000
     39          4.609022   1.000000
     40          4.687175   1.000000
     41          5.088038   1.000000
     42          5.447646   1.000000
     43          5.469765   1.000000
     44          6.043859   1.000000
     45          6.114381   1.000000
     46          6.211606   1.000000
     47          6.270607   1.000000
     48          6.749669   1.000000
     49          6.832076   1.000000
     50          7.023898   1.000000
     51          7.073991   1.000000
     52          7.167240   1.000000
     53          7.208946   1.000000
     54          7.548236   1.000000
     55          7.551932   1.000000
     56          7.681160   1.000018
     57          7.698135   1.000031
     58          7.940612   1.008511
     59          7.970614   1.013288
     60          8.067115   1.033490
     61          8.170268   0.997836
     62          8.272857   0.755526
     63          8.477447   0.038847
     64          8.503994   0.001213
     65          8.534984  -0.024208
     66          8.544007  -0.028511
     67          8.557534  -0.032831
     68          8.569026  -0.034789
     69          8.661673  -0.021922
     70          8.719655  -0.010427
     71          8.759326  -0.005455
     72          8.762251  -0.005179
     73          8.791201  -0.003011
     74          8.803465  -0.002356
     75          8.835258  -0.001196
     76          8.836993  -0.001151
     77          8.856456  -0.000737
     78          8.858109  -0.000709
     79          8.880944  -0.000408
     80          8.886855  -0.000351
     81          8.889732  -0.000327
     82          8.894161  -0.000292
     83          8.903634  -0.000228
     84          8.915569  -0.000167
     85          8.935728  -0.000096
     86          8.939031  -0.000088
     87          8.943347  -0.000077
     88          8.960720  -0.000047
     89          8.981268  -0.000025
     90          8.991554  -0.000019
     91          9.077996  -0.000001
     92          9.085574  -0.000001
     93          9.110357  -0.000000
     94          9.139084  -0.000000
     95          9.141151  -0.000000
     96          9.144211  -0.000000
     97          9.146828  -0.000000
     98          9.223366  -0.000000
     99          9.224292  -0.000000
    100          9.231953  -0.000000
    101          9.356099  -0.000000
    102          9.383891  -0.000000
    103          9.541241  -0.000000
    104          9.766493  -0.000000
    105          9.775287  -0.000000
    106          9.788519  -0.000000
    107         10.064134  -0.000000
    108         10.175578  -0.000000
    109         10.388266  -0.000000
    110         10.496003  -0.000000
    111         10.515395  -0.000000
    112         10.539922  -0.000000
    113         10.546154  -0.000000
    114         10.697485  -0.000000
    115         10.820633  -0.000000
    116         10.889768  -0.000000
    117         10.907661  -0.000000
    118         10.968266  -0.000000
    119         11.007171  -0.000000
    120         11.119338  -0.000000
    121         11.339003  -0.000000
    122         11.405506  -0.000000
    123         11.555212  -0.000000
    124         11.684595  -0.000000
    125         12.270173  -0.000000
    126         12.412514   0.000000
    127         12.562483   0.000000
    128         12.633205   0.000000
 
  0.4444444E+00  0.1276756E-14  0.1276756E-14  0.8230453E-02
      1        -48.156824   1.000000
      2        -48.156074   1.000000
      3        -48.145074   1.000000
      4        -48.144346   1.000000
      5        -48.090235   1.000000
      6        -48.089587   1.000000
      7        -48.078938   1.000000
      8        -48.078305   1.000000
      9        -24.629171   1.000000
     10        -24.626742   1.000000
     11        -24.615765   1.000000
     12        -24.613540   1.000000
     13        -24.522279   1.000000
     14        -24.509954   1.000000
     15        -24.504172   1.000000
     16        -24.492738   1.000000
     17        -24.454584   1.000000
     18        -24.444031   1.000000
     19        -24.443645   1.000000
     20        -24.441958   1.000000
     21        -24.440505   1.000000
     22        -24.429986   1.000000
     23        -24.378583   1.000000
     24        -24.377234   1.000000
     25        -24.351219   1.000000
     26        -24.349533   1.000000
     27        -24.290937   1.000000
     28        -24.289756   1.000000
     29        -24.106673   1.000000
     30        -24.105923   1.000000
     31        -24.098428   1.000000
     32        -24.097674   1.000000
     33          0.703846   1.000000
     34          1.233241   1.000000
     35          2.057725   1.000000
     36          2.421555   1.000000
     37          4.339339   1.000000
     38          4.627201   1.000000
     39          4.771325   1.000000
     40          4.873785   1.000000
     41          4.940017   1.000000
     42          5.015684   1.000000
     43          5.083671   1.000000
     44          5.566351   1.000000
     45          6.125334   1.000000
     46          6.204744   1.000000
     47          6.452593   1.000000
     48          6.731776   1.000000
     49          7.069256   1.000000
     50          7.177858   1.000000
     51          7.230998   1.000000
     52          7.398117   1.000000
     53          7.402436   1.000000
     54          7.483767   1.000000
     55          7.539976   1.000000
     56          7.677639   1.000016
     57          7.769018   1.000224
     58          8.062575   1.032789
     59          8.075280   1.034525
     60          8.166896   1.001559
     61          8.219762   0.913048
     62          8.247939   0.837721
     63          8.318101   0.578364
     64          8.350815   0.440482
     65          8.420470   0.177699
     66          8.423686   0.167735
     67          8.563670  -0.034053
     68          8.649439  -0.024749
     69          8.653052  -0.023912
     70          8.673179  -0.019323
     71          8.789418  -0.003118
     72          8.791877  -0.002971
     73          8.794785  -0.002805
     74          8.799769  -0.002539
     75          8.823017  -0.001564
     76          8.825291  -0.001489
     77          8.856082  -0.000743
     78          8.859490  -0.000686
     79          8.872556  -0.000501
     80          8.878668  -0.000431
     81          8.883029  -0.000387
     82          8.887250  -0.000348
     83          8.904577  -0.000223
     84          8.920524  -0.000146
     85          8.933735  -0.000101
     86          8.956531  -0.000053
     87          8.958491  -0.000050
     88          8.958630  -0.000050
     89          8.971507  -0.000034
     90          8.974936  -0.000031
     91          9.118049  -0.000000
     92          9.128532  -0.000000
     93          9.141126  -0.000000
     94          9.142926  -0.000000
     95          9.148566  -0.000000
     96          9.198702  -0.000000
     97          9.235053  -0.000000
     98          9.239150  -0.000000
     99          9.333168  -0.000000
    100          9.398201  -0.000000
    101          9.495559  -0.000000
    102          9.510174  -0.000000
    103          9.538501  -0.000000
    104          9.625717  -0.000000
    105          9.747015  -0.000000
    106          9.783425  -0.000000
    107          9.903638  -0.000000
    108          9.969601  -0.000000
    109         10.044207  -0.000000
    110         10.111362  -0.000000
    111         10.549508  -0.000000
    112         10.615667  -0.000000
    113         10.624916  -0.000000
    114         10.721512  -0.000000
    115         10.781671  -0.000000
    116         10.911481  -0.000000
    117         10.939166  -0.000000
    118         10.973728  -0.000000
    119         11.053746  -0.000000
    120         11.057668  -0.000000
    121         11.156810  -0.000000
    122         11.242787  -0.000000
    123         11.574283  -0.000000
    124         12.086770  -0.000000
    125         12.198798  -0.000000
    126         12.555960   0.000000
    127         12.589127   0.000000
    128         12.665914   0.000000
 
  0.1111111E+00  0.1111111E+00  0.1276756E-14  0.8230453E-02
      1        -48.180594   1.000000
      2        -48.179807   1.000000
      3        -48.117092   1.000000
      4        -48.117092   1.000000
      5        -48.116417   1.000000
      6        -48.116417   1.000000
      7        -48.055888   1.000000
      8        -48.055273   1.000000
      9        -24.642990   1.000000
     10        -24.642968   1.000000
     11        -24.640171   1.000000
     12        -24.640147   1.000000
     13        -24.572183   1.000000
     14        -24.570408   1.000000
     15        -24.570276   1.000000
     16        -24.568581   1.000000
     17        -24.547232   1.000000
     18        -24.527318   1.000000
     19        -24.480771   1.000000
     20        -24.480771   1.000000
     21        -24.465607   1.000000
     22        -24.465607   1.000000
     23        -24.421354   1.000000
     24        -24.408563   1.000000
     25        -24.142401   1.000000
     26        -24.141554   1.000000
     27        -24.140371   1.000000
     28        -24.139599   1.000000
     29        -24.095915   1.000000
     30        -24.095893   1.000000
     31        -24.095121   1.000000
     32        -24.095097   1.000000
     33         -0.147225   1.000000
     34          1.465749   1.000000
     35          3.419906   1.000000
     36          3.435470   1.000000
     37          3.435585   1.000000
     38          3.741585   1.000000
     39          3.741782   1.000000
     40          5.194556   1.000000
     41          5.194688   1.000000
     42          5.206514   1.000000
     43          5.947205   1.000000
     44          6.003998   1.000000
     45          6.145199   1.000000
     46          6.145218   1.000000
     47          6.430753   1.000000
     48          6.536364   1.000000
     49          6.726795   1.000000
     50          6.726864   1.000000
     51          6.903613   1.000000
     52          6.903700   1.000000
     53          7.048070   1.000000
     54          7.451073   1.000000
     55          7.746344   1.000122
     56          7.750315   1.000136
     57          7.778455   1.000286
     58          7.778525   1.000286
     59          7.820070   1.000792
     60          8.150608   1.016332
     61          8.150618   1.016325
     62          8.370972   0.357357
     63          8.393872   0.268733
     64          8.414960   0.195321
     65          8.527327  -0.019548
     66          8.686136  -0.016543
     67          8.693862  -0.014985
     68          8.705408  -0.012816
     69          8.705408  -0.012816
     70          8.719184  -0.010501
     71          8.738128  -0.007813
     72          8.738551  -0.007760
     73          8.794291  -0.002833
     74          8.794620  -0.002814
     75          8.795372  -0.002773
     76          8.811097  -0.002013
     77          8.811451  -0.001998
     78          8.867405  -0.000568
     79          8.881912  -0.000398
     80          8.882478  -0.000392
     81          8.895895  -0.000279
     82          8.906321  -0.000213
     83          8.906382  -0.000213
     84          8.918871  -0.000152
     85          8.936792  -0.000093
     86          8.945007  -0.000074
     87          8.952637  -0.000059
     88          8.953400  -0.000058
     89          8.965818  -0.000040
     90          8.965905  -0.000040
     91          8.998403  -0.000015
     92          9.020535  -0.000007
     93          9.020553  -0.000007
     94          9.107514  -0.000000
     95          9.110085  -0.000000
     96          9.144603  -0.000000
     97          9.145469  -0.000000
     98          9.146106  -0.000000
     99          9.169079  -0.000000
    100          9.169743  -0.000000
    101          9.206064  -0.000000
    102          9.287515  -0.000000
    103          9.561692  -0.000000
    104          9.640984  -0.000000
    105          9.991089  -0.000000
    106         10.175290  -0.000000
    107         10.175322  -0.000000
    108         10.241417  -0.000000
    109         10.358297  -0.000000
    110         10.400780  -0.000000
    111         10.400962  -0.000000
    112         10.519041  -0.000000
    113         10.519180  -0.000000
    114         10.691973  -0.000000
    115         10.792584  -0.000000
    116         10.944569  -0.000000
    117         10.944603  -0.000000
    118         10.946700  -0.000000
    119         10.946736  -0.000000
    120         11.145216  -0.000000
    121         11.617063  -0.000000
    122         11.697311  -0.000000
    123         11.718108  -0.000000
    124         12.150515  -0.000000
    125         12.317862  -0.000000
    126         12.637080   0.000000
    127         12.862617   0.000000
    128         12.862638   0.000000
 
  0.2222222E+00  0.1111111E+00  0.1276756E-14  0.1646091E-01
      1        -48.174768   1.000000
      2        -48.173992   1.000000
      3        -48.123003   1.000000
      4        -48.122311   1.000000
      5        -48.111479   1.000000
      6        -48.110810   1.000000
      7        -48.061580   1.000000
      8        -48.060960   1.000000
      9        -24.636401   1.000000
     10        -24.633678   1.000000
     11        -24.597849   1.000000
     12        -24.595191   1.000000
     13        -24.577965   1.000000
     14        -24.576116   1.000000
     15        -24.541129   1.000000
     16        -24.528292   1.000000
     17        -24.526637   1.000000
     18        -24.521650   1.000000
     19        -24.486944   1.000000
     20        -24.475314   1.000000
     21        -24.471353   1.000000
     22        -24.460363   1.000000
     23        -24.426868   1.000000
     24        -24.413861   1.000000
     25        -24.189062   1.000000