       N       E                     dE             d eps       ncg     rms          rms(c)
DAV:   1     0.143133493035E+04    0.14313E+04   -0.64451E+04 15360   0.118E+03
DAV:   2     0.408742944137E+03   -0.10226E+04   -0.97737E+03 15488   0.307E+02
DAV:   3     0.328401180361E+03   -0.80342E+02   -0.78529E+02 30720   0.725E+01
DAV:   4     0.325396486547E+03   -0.30047E+01   -0.30027E+01 15360   0.129E+01
DAV:   5     0.325231461382E+03   -0.16503E+00   -0.16498E+00 26624   0.254E+00    0.329E+01
DAV:   6    -0.337743855235E+02   -0.35901E+03   -0.16315E+03 23232   0.255E+01    0.170E+02
DAV:   7     0.367651282805E+03    0.40143E+03   -0.74696E+02 29184   0.282E+01    0.169E+01
DAV:   8     0.360621529243E+03   -0.70298E+01   -0.50753E+01 19200   0.115E+01    0.132E+01
DAV:   9     0.368246574231E+03    0.76250E+01   -0.37859E+00 22912   0.421E+00    0.616E+00
DAV:  10     0.367304604100E+03   -0.94197E+00   -0.39111E+00 21824   0.276E+00    0.210E+01
DAV:  11     0.365926643229E+03   -0.13780E+01   -0.74436E-01 20864   0.188E+00    0.256E+01
DAV:  12     0.365742665005E+03   -0.18398E+00   -0.43299E-02 18560   0.339E-01    0.266E+01
DAV:  13     0.365298793048E+03   -0.44387E+00   -0.48262E-01 20352   0.112E+00    0.270E+01
DAV:  14     0.367311239139E+03    0.20124E+01   -0.10897E+00 20224   0.199E+00    0.211E+01
DAV:  15     0.369360468329E+03    0.20492E+01   -0.68506E+00 20608   0.448E+00    0.512E+00
DAV:  16     0.369313288943E+03   -0.47179E-01   -0.15143E-01 17728   0.883E-01    0.484E+00
DAV:  17     0.369362458593E+03    0.49170E-01   -0.43935E-03 22080   0.203E-01    0.428E+00
DAV:  18     0.369654790817E+03    0.29233E+00   -0.66755E-01 19584   0.171E+00    0.896E-01
DAV:  19     0.369663580030E+03    0.87892E-02   -0.53319E-02 23232   0.457E-01    0.533E-01
DAV:  20     0.369664122853E+03    0.54282E-03   -0.23133E-03 18944   0.146E-01    0.486E-01
DAV:  21     0.369667380313E+03    0.32575E-02   -0.11363E-03 23872   0.999E-02    0.209E-01
DAV:  22     0.369667831900E+03    0.45159E-03   -0.96742E-04 21312   0.669E-02    0.939E-02
DAV:  23     0.369667921704E+03    0.89804E-04   -0.82094E-05 22784   0.182E-02    0.874E-02
DAV:  24     0.369667995566E+03    0.73862E-04   -0.18035E-05 22144   0.127E-02    0.187E-02
DAV:  25     0.369668003662E+03    0.80957E-05   -0.75579E-06 20032   0.690E-03    0.134E-02
DAV:  26     0.369668001453E+03   -0.22085E-05   -0.20982E-05 19200   0.922E-03    0.227E-02
DAV:  27     0.369668006168E+03    0.47145E-05   -0.17231E-06 20928   0.315E-03    0.610E-03
DAV:  28     0.369668006890E+03    0.72168E-06   -0.70015E-07 14528   0.191E-03
   1 F= 0.36966801E+03 E0= 0.36964511E+03  d E =0.686976E-01
 Found     6 degrees of freedom:
 Adding 6 more for cell shape distortion
       N       E                     dE             d eps       ncg     rms          rms(c)
DAV:   1     0.369590463566E+03   -0.77543E-01   -0.13453E+01 25664   0.156E+01    0.678E+00
DAV:   2     0.328530455853E+03   -0.41060E+02   -0.31408E+01 39808   0.106E+01    0.894E+01
DAV:   3     0.365852364923E+03    0.37322E+02   -0.27627E+02 37568   0.121E+01    0.128E+01
DAV:   4     0.361676139970E+03   -0.41762E+01   -0.47664E+00 41344   0.489E+00    0.132E+01
DAV:   5     0.364768922002E+03    0.30928E+01   -0.33856E-01 37120   0.174E+00    0.120E+01
DAV:   6     0.369133154435E+03    0.43642E+01   -0.52901E-01 35456   0.168E+00    0.629E+00
DAV:   7     0.369448747542E+03    0.31559E+00   -0.38250E-02 32640   0.438E-01    0.527E+00
DAV:   8     0.369739354675E+03    0.29061E+00   -0.34358E-02 37760   0.350E-01    0.381E+00
DAV:   9     0.369802779422E+03    0.63425E-01   -0.15357E-02 35264   0.250E-01    0.376E+00
DAV:  10     0.370009252037E+03    0.20647E+00   -0.80240E-01 34304   0.136E+00    0.415E+00
DAV:  11     0.370021710281E+03    0.12458E-01   -0.42803E-01 38848   0.933E-01    0.273E+00
DAV:  12     0.370013282819E+03   -0.84275E-02   -0.43487E-01 36416   0.981E-01    0.384E+00
DAV:  13     0.370122614534E+03    0.10933E+00   -0.45834E-02 38080   0.326E-01    0.975E-01
DAV:  14     0.370115224256E+03   -0.73903E-02   -0.40185E-02 38144   0.326E-01    0.128E+00
DAV:  15     0.370130314692E+03    0.15090E-01   -0.30300E-03 38336   0.125E-01    0.439E-01
DAV:  16     0.370131942571E+03    0.16279E-02   -0.13494E-03 34880   0.662E-02    0.213E-01
DAV:  17     0.370131910224E+03   -0.32347E-04   -0.15569E-04 32640   0.304E-02    0.225E-01
DAV:  18     0.370132246302E+03    0.33608E-03   -0.19269E-04 38912   0.341E-02    0.757E-02
DAV:  19     0.370132346533E+03    0.10023E-03   -0.12665E-04 35200   0.255E-02    0.329E-02
DAV:  20     0.370132347624E+03    0.10906E-05   -0.15238E-05 32896   0.898E-03    0.315E-02
DAV:  21     0.370132347932E+03    0.30850E-06   -0.56885E-06 39744   0.806E-03
   2 F= 0.37013235E+03 E0= 0.37010724E+03  d E =0.753323E-01
       N       E                     dE             d eps       ncg     rms          rms(c)
DAV:   1     0.367170371835E+03   -0.29620E+01   -0.47393E+01 31040   0.288E+01    0.129E+01
DAV:   2     0.346878603755E+03   -0.20292E+02   -0.23544E+01 49664   0.202E+01    0.213E+01
DAV:   3     0.367939204173E+03    0.21061E+02   -0.20916E+01 41792   0.102E+01    0.161E+01
DAV:   4     0.355829858217E+03   -0.12109E+02   -0.44993E+01 42560   0.104E+01    0.154E+01
DAV:   5     0.363189313682E+03    0.73595E+01   -0.37654E+00 38336   0.333E+00    0.131E+01
DAV:   6     0.367249638005E+03    0.40603E+01   -0.40437E-01 35200   0.162E+00    0.981E+00
DAV:   7     0.368715142563E+03    0.14655E+01   -0.13384E-01 39296   0.830E-01    0.604E+00
DAV:   8     0.367312688103E+03   -0.14025E+01   -0.16487E-01 38272   0.916E-01    0.992E+00
DAV:   9     0.368952644107E+03    0.16400E+01   -0.10991E+00 37440   0.184E+00    0.567E+00
DAV:  10     0.368950970918E+03   -0.16732E-02   -0.62624E-02 29312   0.475E-01    0.563E+00
DAV:  11     0.369034630705E+03    0.83660E-01   -0.11706E-02 38336   0.177E-01    0.421E+00
DAV:  12     0.368950423978E+03   -0.84207E-01   -0.56017E-03 38656   0.136E-01    0.557E+00
DAV:  13     0.368827569003E+03   -0.12285E+00   -0.10848E-02 38656   0.124E-01    0.710E+00
DAV:  14     0.369148644852E+03    0.32108E+00   -0.20714E-01 39104   0.542E-01    0.227E+00
DAV:  15     0.369136972831E+03   -0.11672E-01   -0.17128E-02 31744   0.495E-01    0.292E+00
DAV:  16     0.369142261403E+03    0.52886E-02   -0.47447E-02 35584   0.799E-01    0.310E+00
DAV:  17     0.369129280421E+03   -0.12981E-01   -0.46682E-03 34944   0.241E-01    0.360E+00
DAV:  18     0.369194793102E+03    0.65513E-01   -0.17635E-02 38912   0.227E-01    0.239E+00
DAV:  19     0.369193728138E+03   -0.10650E-02   -0.11473E-03 36224   0.629E-02    0.236E+00
DAV:  20     0.369191379855E+03   -0.23483E-02   -0.69287E-05 36480   0.193E-02    0.238E+00
DAV:  21     0.369185407768E+03   -0.59721E-02   -0.42687E-05 34432   0.831E-02    0.252E+00
DAV:  22     0.369181985633E+03   -0.34221E-02   -0.15355E-04 39360   0.401E-02    0.258E+00
DAV:  23     0.369177668624E+03   -0.43170E-02   -0.22704E-04 39296   0.686E-02    0.263E+00
DAV:  24     0.369168458630E+03   -0.92100E-02   -0.72079E-04 38272   0.544E-02    0.286E+00
DAV:  25     0.369170365811E+03    0.19072E-02   -0.45645E-05 35648   0.170E-02    0.285E+00
DAV:  26     0.369172642700E+03    0.22769E-02   -0.14299E-05 37632   0.871E-03    0.281E+00
DAV:  27     0.369172451061E+03   -0.19164E-03   -0.85932E-07 30080   0.233E-03    0.281E+00
DAV:  28     0.369173971198E+03    0.15201E-02   -0.97008E-06 38848   0.118E-02    0.279E+00
DAV:  29     0.369177697173E+03    0.37260E-02   -0.52514E-04 39424   0.102E-01    0.277E+00
DAV:  30     0.369200242359E+03    0.22545E-01   -0.24524E-03 30272   0.160E-01    0.230E+00
DAV:  31     0.369218868681E+03    0.18626E-01   -0.30721E-03 35648   0.200E-01    0.190E+00
DAV:  32     0.369245585503E+03    0.26717E-01   -0.98965E-03 32384   0.391E-01    0.118E+00
DAV:  33     0.369258375309E+03    0.12790E-01   -0.66749E-03 35968   0.300E-01    0.657E-01
DAV:  34     0.369261406374E+03    0.30311E-02   -0.93840E-04 35264   0.119E-01    0.489E-01
DAV:  35     0.369263217398E+03    0.18110E-02   -0.30923E-04 34432   0.579E-02    0.307E-01
DAV:  36     0.369264109079E+03    0.89168E-03   -0.88135E-05 35456   0.309E-02    0.162E-01
DAV:  37     0.369264425786E+03    0.31671E-03   -0.61884E-05 36672   0.225E-02    0.411E-02
DAV:  38     0.369264457772E+03    0.31986E-04   -0.45090E-06 34240   0.859E-03    0.112E-02
DAV:  39     0.369264459628E+03    0.18558E-05   -0.70612E-07 35648   0.217E-03    0.537E-03
DAV:  40     0.369264457070E+03   -0.25572E-05   -0.90606E-07 38400   0.259E-03    0.175E-02
DAV:  41     0.369264457707E+03    0.63656E-06   -0.84808E-08 13632   0.117E-03
   3 F= 0.36926446E+03 E0= 0.36924386E+03  d E =0.617964E-01
       N       E                     dE             d eps       ncg     rms          rms(c)
DAV:   1     0.368318972406E+03   -0.94548E+00   -0.42450E+01 32384   0.274E+01    0.133E+01
DAV:   2     0.217650794222E+03   -0.15067E+03   -0.81418E+01 37568   0.207E+01    0.135E+02
DAV:   3     0.357049035118E+03    0.13940E+03   -0.99962E+02 43008   0.224E+01    0.151E+01
DAV:   4     0.354512826022E+03   -0.25362E+01   -0.39546E+00 37952   0.413E+00    0.143E+01
DAV:   5     0.359251867617E+03    0.47390E+01   -0.38019E-01 40704   0.160E+00    0.134E+01
DAV:   6     0.365322042074E+03    0.60702E+01   -0.35334E-01 41856   0.120E+00    0.107E+01
DAV:   7     0.368630352758E+03    0.33083E+01   -0.25845E-01 37568   0.125E+00    0.661E+00
DAV:   8     0.368581319310E+03   -0.49033E-01   -0.14654E-02 28672   0.236E-01    0.681E+00
DAV:   9     0.369814436030E+03    0.12331E+01   -0.50945E-01 34880   0.137E+00    0.269E+00
DAV:  10     0.369907879636E+03    0.93444E-01   -0.14938E-01 34688   0.869E-01    0.279E+00
DAV:  11     0.369389399684E+03   -0.51848E+00   -0.18820E+00 35072   0.185E+00    0.112E+01
DAV:  12     0.369371944257E+03   -0.17455E-01   -0.40458E-02 29056   0.436E-01    0.113E+01
DAV:  13     0.369439910039E+03    0.67966E-01   -0.30912E-03 39616   0.839E-02    0.108E+01
DAV:  14     0.369595157705E+03    0.15525E+00   -0.19112E-02 40960   0.167E-01    0.927E+00
DAV:  15     0.369899733075E+03    0.30458E+00   -0.53240E-02 41472   0.392E-01    0.554E+00
DAV:  16     0.370119379258E+03    0.21965E+00   -0.37557E-01 38592   0.743E-01    0.127E+00
DAV:  17     0.370072798300E+03   -0.46581E-01   -0.60754E-02 38656   0.433E-01    0.248E+00
DAV:  18     0.370122212011E+03    0.49414E-01   -0.15537E-02 38400   0.214E-01    0.832E-01
DAV:  19     0.370119300104E+03   -0.29119E-02   -0.50829E-04 27456   0.504E-02    0.899E-01
DAV:  20     0.370114363705E+03   -0.49364E-02   -0.26700E-04 39808   0.409E-02    0.116E+00
DAV:  21     0.370118761741E+03    0.43980E-02   -0.35924E-04 37824   0.398E-02    0.988E-01
DAV:  22     0.370115778630E+03   -0.29831E-02   -0.20816E-04 33280   0.378E-02    0.116E+00
DAV:  23     0.370116417671E+03    0.63904E-03   -0.40149E-04 32960   0.435E-02    0.111E+00
DAV:  24     0.370129207955E+03    0.12790E-01   -0.18288E-04 35136   0.117E-01    0.412E-01
DAV:  25     0.370130254476E+03    0.10465E-02   -0.70052E-04 35968   0.562E-02    0.358E-01
DAV:  26     0.370131779371E+03    0.15249E-02   -0.27217E-03 34176   0.106E-01    0.222E-01
DAV:  27     0.370132141253E+03    0.36188E-03   -0.17886E-04 34496   0.325E-02    0.120E-01
DAV:  28     0.370132090178E+03   -0.51074E-04   -0.76237E-05 38656   0.212E-02    0.138E-01
DAV:  29     0.370132302540E+03    0.21236E-03   -0.11806E-04 37248   0.260E-02    0.635E-02
DAV:  30     0.370132344252E+03    0.41711E-04   -0.13378E-06 36288   0.119E-02    0.271E-02
DAV:  31     0.370132312654E+03   -0.31598E-04   -0.15102E-05 38016   0.116E-02    0.699E-02
DAV:  32     0.370132356535E+03    0.43881E-04   -0.59929E-06 40384   0.865E-03    0.212E-03
DAV:  33     0.370132352898E+03   -0.36378E-05   -0.78659E-07 35968   0.241E-03    0.197E-02
DAV:  34     0.370132356455E+03    0.35579E-05   -0.32495E-07 30400   0.222E-03    0.158E-03
DAV:  35     0.370132356312E+03   -0.14300E-06   -0.75894E-08 12928   0.613E-04
   4 F= 0.37013236E+03 E0= 0.37010751E+03  d E =0.745366E-01
       N       E                     dE             d eps       ncg     rms          rms(c)
DAV:   1     0.367162320319E+03   -0.29700E+01   -0.48154E+01 30592   0.288E+01    0.130E+01
DAV:   2     0.346810987481E+03   -0.20351E+02   -0.23932E+01 49600   0.202E+01    0.213E+01
DAV:   3     0.367928479939E+03    0.21117E+02   -0.21005E+01 42176   0.102E+01    0.162E+01
DAV:   4     0.355725688436E+03   -0.12203E+02   -0.45735E+01 42880   0.104E+01    0.154E+01
DAV:   5     0.363093009856E+03    0.73673E+01   -0.37635E+00 38592   0.332E+00    0.131E+01
DAV:   6     0.367196753067E+03    0.41037E+01   -0.40303E-01 35328   0.161E+00    0.989E+00
DAV:   7     0.368719875225E+03    0.15231E+01   -0.13928E-01 39424   0.847E-01    0.600E+00
DAV:   8     0.367269474885E+03   -0.14504E+01   -0.17713E-01 38528   0.941E-01    0.999E+00
DAV:   9     0.368877404652E+03    0.16079E+01   -0.11723E+00 37248   0.189E+00    0.664E+00
DAV:  10     0.368921777590E+03    0.44373E-01   -0.69843E-02 29376   0.494E-01    0.603E+00
DAV:  11     0.368883723860E+03   -0.38054E-01   -0.22339E-03 42624   0.843E-02    0.663E+00
DAV:  12     0.368847445559E+03   -0.36278E-01   -0.12004E-03 37056   0.633E-02    0.709E+00
DAV:  13     0.368949279757E+03    0.10183E+00   -0.61058E-03 38464   0.108E-01    0.588E+00
DAV:  14     0.369251651785E+03    0.30237E+00   -0.52655E-01 39232   0.860E-01    0.118E+00
DAV:  15     0.369092275775E+03   -0.15938E+00   -0.16343E-01 39040   0.574E-01    0.459E+00
DAV:  16     0.369210354225E+03    0.11808E+00   -0.19898E-02 38528   0.259E-01    0.229E+00
DAV:  17     0.369202631773E+03   -0.77225E-02   -0.76251E-04 31488   0.863E-02    0.254E+00
DAV:  18     0.369243621182E+03    0.40989E-01   -0.56330E-03 38144   0.160E-01    0.135E+00
DAV:  19     0.369252961147E+03    0.93400E-02   -0.12215E-03 37248   0.888E-02    0.957E-01
DAV:  20     0.369258276486E+03    0.53153E-02   -0.33951E-04 34560   0.541E-02    0.694E-01
DAV:  21     0.369261879255E+03    0.36028E-02   -0.28852E-04 37568   0.394E-02    0.419E-01
DAV:  22     0.369262146325E+03    0.26707E-03   -0.54434E-06 29696   0.984E-03    0.414E-01
DAV:  23     0.369263559733E+03    0.14134E-02   -0.26593E-05 36544   0.250E-02    0.265E-01
DAV:  24     0.369263860350E+03    0.30062E-03   -0.26240E-07 35072   0.110E-02    0.231E-01
DAV:  25     0.369264215189E+03    0.35484E-03   -0.25982E-05 36288   0.131E-02    0.147E-01
DAV:  26     0.369264390311E+03    0.17512E-03   -0.16595E-05 37568   0.977E-03    0.757E-02
DAV:  27     0.369264432846E+03    0.42535E-04   -0.18576E-06 36544   0.391E-03    0.483E-02
DAV:  28     0.369264452232E+03    0.19386E-04   -0.15010E-06 36864   0.287E-03    0.259E-02
DAV:  29     0.369264459899E+03    0.76668E-05   -0.11884E-06 37056   0.276E-03    0.345E-03
DAV:  30     0.369264460121E+03    0.22224E-06   -0.82169E-08 19840   0.758E-04
   5 F= 0.36926446E+03 E0= 0.36924394E+03  d E =0.615495E-01
       N       E                     dE             d eps       ncg     rms          rms(c)
DAV:   1     0.367808276668E+03   -0.14562E+01   -0.39783E+01 22080   0.259E+01    0.153E+01
DAV:   2     0.117556339254E+03   -0.25025E+03   -0.12098E+02 22592   0.244E+01    0.156E+02
DAV:   3     0.352451287842E+03    0.23489E+03   -0.14528E+03 28224   0.285E+01    0.155E+01
DAV:   4     0.352157159219E+03   -0.29413E+00   -0.23531E+00 22208   0.275E+00    0.146E+01
DAV:   5     0.358760776948E+03    0.66036E+01   -0.57404E-01 24512   0.159E+00    0.132E+01
DAV:   6     0.365473617027E+03    0.67128E+01   -0.36275E-01 26176   0.132E+00    0.102E+01
DAV:   7     0.368140481006E+03    0.26669E+01   -0.16927E-01 22528   0.108E+00    0.685E+00
DAV:   8     0.368545581750E+03    0.40510E+00   -0.32078E-02 24128   0.444E-01    0.544E+00
DAV:   9     0.369205708344E+03    0.66013E+00   -0.21551E-01 20672   0.807E-01    0.433E+00
DAV:  10     0.369537277424E+03    0.33157E+00   -0.42526E-01 20352   0.107E+00    0.723E+00
DAV:  11     0.369601306941E+03    0.64030E-01   -0.15930E-02 18112   0.263E-01    0.614E+00
DAV:  12     0.369789456153E+03    0.18815E+00   -0.25204E-01 18880   0.972E-01    0.663E+00
DAV:  13     0.369319221770E+03   -0.47023E+00   -0.74523E-02 24960   0.477E-01    0.114E+01
DAV:  14     0.368771618654E+03   -0.54760E+00   -0.83954E-01 19008   0.131E+00    0.170E+01
DAV:  15     0.369013712210E+03    0.24209E+00   -0.31695E-02 21696   0.326E-01    0.153E+01
DAV:  16     0.368694726789E+03   -0.31899E+00   -0.14555E-01 18432   0.225E-01    0.183E+01
DAV:  17     0.369835487480E+03    0.11408E+01   -0.13560E+00 22016   0.645E-01    0.647E+00
DAV:  18     0.369787713301E+03   -0.47774E-01   -0.36705E-02 19008   0.410E-01    0.676E+00
DAV:  19     0.369649287724E+03   -0.13843E+00   -0.19732E-02 22784   0.295E-01    0.826E+00
DAV:  20     0.369761878855E+03    0.11259E+00   -0.89594E-03 22336   0.167E-01    0.708E+00
DAV:  21     0.370062683686E+03    0.30080E+00   -0.12754E-01 23104   0.491E-01    0.230E+00
DAV:  22     0.370102356948E+03    0.39673E-01   -0.11895E-02 22336   0.208E-01    0.113E+00
DAV:  23     0.370111901649E+03    0.95447E-02   -0.30636E-03 20672   0.108E-01    0.688E-01
DAV:  24     0.370111558524E+03   -0.34313E-03   -0.64465E-03 21248   0.158E-01    0.853E-01
DAV:  25     0.370117188662E+03    0.56301E-02   -0.23070E-04 20928   0.525E-02    0.602E-01
DAV:  26     0.370113739655E+03   -0.34490E-02   -0.52034E-04 22016   0.497E-02    0.842E-01
DAV:  27     0.370119289796E+03    0.55501E-02    0.36365E-05 24704   0.363E-02    0.578E-01
DAV:  28     0.370121349217E+03    0.20594E-02   -0.88745E-06 21504   0.181E-02    0.463E-01
DAV:  29     0.370123376294E+03    0.20271E-02   -0.72297E-05 22464   0.242E-02    0.281E-01
DAV:  30     0.370124054334E+03    0.67804E-03   -0.18672E-05 22272   0.126E-02    0.211E-01
DAV:  31     0.370124396720E+03    0.34239E-03   -0.20727E-05 22784   0.103E-02    0.170E-01
DAV:  32     0.370124511318E+03    0.11460E-03   -0.51868E-07 19840   0.327E-03    0.160E-01
DAV:  33     0.370125035021E+03    0.52370E-03    0.62641E-05 21952   0.116E-02    0.112E-01
DAV:  34     0.370125242109E+03    0.20709E-03   -0.39693E-06 22144   0.136E-02    0.807E-02
DAV:  35     0.370125339280E+03    0.97171E-04    0.17037E-05 23040   0.702E-03    0.703E-02
DAV:  36     0.370125369738E+03    0.30459E-04    0.20809E-05 21568   0.511E-03    0.654E-02
DAV:  37     0.370125392024E+03    0.22286E-04   -0.61122E-07 23232   0.404E-03    0.394E-02
DAV:  38     0.370125401254E+03    0.92298E-05   -0.12361E-06 21760   0.238E-03    0.274E-02
DAV:  39     0.370125409516E+03    0.82620E-05   -0.48766E-07 21760   0.254E-03    0.743E-03
DAV:  40     0.370125410042E+03    0.52667E-06   -0.49284E-08  9344   0.803E-04
   6 F= 0.37012541E+03 E0= 0.37010069E+03  d E =0.741648E-01
       N       E                     dE             d eps       ncg     rms          rms(c)
DAV:   1     0.366342530759E+03   -0.37829E+01   -0.54377E+01 17600   0.310E+01    0.173E+01
DAV:   2     0.311281100373E+03   -0.55061E+02   -0.18740E+02 29888   0.378E+01    0.279E+01
DAV:   3     0.353671047797E+03    0.42390E+02   -0.71885E+01 25536   0.173E+01    0.162E+01
DAV:   4     0.358592012690E+03    0.49210E+01   -0.76706E+00 22144   0.371E+00    0.148E+01
DAV:   5     0.358257243637E+03   -0.33477E+00   -0.12846E+00 18432   0.327E+00    0.158E+01
DAV:   6     0.982036322142E+02   -0.26005E+03   -0.77956E+01 19776   0.148E+01    0.165E+02
DAV:   7     0.244995903226E+03    0.14679E+03   -0.10125E+02 18304   0.985E+00    0.134E+02
DAV:   8     0.264959360213E+03    0.19963E+02   -0.42823E+00 18944   0.216E+00    0.129E+02
DAV:   9     0.362763291726E+03    0.97804E+02   -0.13188E+02 19136   0.955E+00    0.378E+01
DAV:  10     0.354497621624E+03   -0.82657E+01   -0.17155E+02 26880   0.166E+01    0.168E+01
DAV:  11     0.358769953739E+03    0.42723E+01   -0.10151E+01 23232   0.516E+00    0.142E+01
DAV:  12     0.359985458173E+03    0.12155E+01   -0.17736E-01 22400   0.108E+00    0.139E+01
DAV:  13     0.362978818764E+03    0.29934E+01   -0.69917E-02 23424   0.714E-01    0.126E+01
DAV:  14     0.367458437733E+03    0.44796E+01   -0.30347E-01 20608   0.145E+00    0.863E+00
DAV:  15     0.367090336381E+03   -0.36810E+00   -0.34005E-02 18752   0.399E-01    0.926E+00
DAV:  16     0.368234768061E+03    0.11444E+01   -0.29341E-02 25088   0.621E-01    0.658E+00
DAV:  17     0.368896375581E+03    0.66161E+00   -0.88875E-02 22720   0.625E-01    0.317E+00
DAV:  18     0.368750201444E+03   -0.14617E+00   -0.97737E-03 21888   0.255E-01    0.426E+00
DAV:  19     0.368503347192E+03   -0.24685E+00   -0.13311E-02 24064   0.299E-01    0.570E+00
DAV:  20     0.369001958358E+03    0.49861E+00   -0.65546E-02 22464   0.519E-01    0.243E+00
DAV:  21     0.369048607484E+03    0.46649E-01   -0.14961E-02 21312   0.247E-01    0.204E+00
DAV:  22     0.368919264867E+03   -0.12934E+00   -0.23367E-02 22656   0.407E-01    0.368E+00
DAV:  23     0.369038182337E+03    0.11892E+00   -0.72838E-03 24768   0.200E-01    0.247E+00
DAV:  24     0.369098933476E+03    0.60751E-01   -0.13906E-02 21760   0.238E-01    0.173E+00
DAV:  25     0.369113322161E+03    0.14389E-01   -0.31379E-03 22080   0.116E-01    0.159E+00
DAV:  26     0.369135288660E+03    0.21966E-01   -0.15892E-02 19648   0.250E-01    0.148E+00
DAV:  27     0.369139510491E+03    0.42218E-02   -0.49400E-03 22592   0.120E-01    0.144E+00
DAV:  28     0.369145020625E+03    0.55101E-02   -0.14333E-03 20160   0.607E-02    0.138E+00
DAV:  29     0.369153950082E+03    0.89295E-02   -0.17228E-04 23296   0.286E-02    0.134E+00
DAV:  30     0.369158423366E+03    0.44733E-02   -0.90546E-05 21312   0.189E-02    0.132E+00
DAV:  31     0.369162400781E+03    0.39774E-02   -0.47179E-04 22592   0.486E-02    0.129E+00
DAV:  32     0.369167530852E+03    0.51301E-02   -0.42147E-05 21760   0.180E-02    0.127E+00
DAV:  33     0.369217427230E+03    0.49896E-01   -0.34518E-03 20672   0.146E-01    0.880E-01
DAV:  34     0.369219572503E+03    0.21453E-02   -0.13228E-03 22336   0.877E-02    0.831E-01
DAV:  35     0.369233209830E+03    0.13637E-01   -0.62187E-05 20672   0.613E-02    0.642E-01
DAV:  36     0.369234224162E+03    0.10143E-02   -0.39205E-05 19264   0.136E-02    0.627E-01
DAV:  37     0.369243741508E+03    0.95173E-02   -0.23769E-04 18560   0.682E-02    0.459E-01
DAV:  38     0.369251306423E+03    0.75649E-02    0.11561E-04 19712   0.685E-02    0.244E-01
DAV:  39     0.369252991371E+03    0.16849E-02   -0.61960E-06 21440   0.306E-02    0.164E-01
DAV:  40     0.369253501222E+03    0.50985E-03    0.18131E-05 22720   0.170E-02    0.107E-01
DAV:  41     0.369253913833E+03    0.41261E-03   -0.14858E-05 19136   0.231E-02    0.554E-02
DAV:  42     0.369253881440E+03   -0.32393E-04    0.36783E-06 19904   0.221E-02    0.481E-02
DAV:  43     0.369253864668E+03   -0.16772E-04   -0.59501E-06 22528   0.575E-03    0.567E-02
DAV:  44     0.369253896676E+03    0.32008E-04   -0.21076E-06 20864   0.434E-03    0.433E-02
DAV:  45     0.369253971102E+03    0.74426E-04    0.11767E-05 20672   0.597E-03    0.183E-02
DAV:  46     0.369253980720E+03    0.96183E-05   -0.13229E-06 21312   0.437E-03    0.201E-02
DAV:  47     0.369253980367E+03   -0.35324E-06   -0.11617E-06 19584   0.227E-03
   7 F= 0.36925398E+03 E0= 0.36923214E+03  d E =0.655100E-01
       N       E                     dE             d eps       ncg     rms          rms(c)
DAV:   1     0.368879026225E+03   -0.37495E+00   -0.17026E+01 44800   0.181E+01    0.847E+00
DAV:   2     0.249156277055E+03   -0.11972E+03   -0.69118E+01 68416   0.149E+01    0.127E+02
DAV:   3     0.362625896263E+03    0.11347E+03   -0.62592E+02 62720   0.179E+01    0.139E+01
DAV:   4     0.358075306019E+03   -0.45506E+01   -0.44125E+00 65792   0.472E+00    0.137E+01
DAV:   5     0.361879607536E+03    0.38043E+01   -0.41044E-01 59584   0.188E+00    0.127E+01
DAV:   6     0.366286623285E+03    0.44070E+01   -0.28656E-01 68032   0.129E+00    0.947E+00
DAV:   7     0.367891573092E+03    0.16049E+01   -0.87796E-02 60864   0.744E-01    0.713E+00
DAV:   8     0.367621728395E+03   -0.26984E+00   -0.14915E-02 54656   0.253E-01    0.742E+00
DAV:   9     0.369357961420E+03    0.17362E+01   -0.61771E-01 56832   0.145E+00    0.256E+00
DAV:  10     0.368117222157E+03   -0.12407E+01   -0.52736E-01 64512   0.125E+00    0.757E+00
DAV:  11     0.369549215948E+03    0.14320E+01   -0.11456E+00 55040   0.195E+00    0.349E+00
DAV:  12     0.369474452698E+03   -0.74763E-01   -0.56620E-02 49472   0.483E-01    0.461E+00
DAV:  13     0.369564903869E+03    0.90451E-01   -0.45893E-01 62464   0.744E-01    0.254E+00
DAV:  14     0.369217444006E+03   -0.34746E+00   -0.84057E-01 60544   0.105E+00    0.825E+00
DAV:  15     0.369214921686E+03   -0.25223E-02   -0.13615E-02 45760   0.230E-01    0.830E+00
DAV:  16     0.369305125903E+03    0.90204E-01   -0.52260E-03 63552   0.842E-02    0.709E+00
DAV:  17     0.369363646299E+03    0.58520E-01   -0.23764E-03 60224   0.861E-02    0.622E+00
DAV:  18     0.369575247170E+03    0.21160E+00   -0.84456E-02 62656   0.274E-01    0.263E+00
DAV:  19     0.369509047640E+03   -0.66200E-01   -0.88901E-03 61120   0.187E-01    0.388E+00
DAV:  20     0.369577418609E+03    0.68371E-01   -0.20485E-03 62528   0.110E-01    0.284E+00
DAV:  21     0.369599335554E+03    0.21917E-01   -0.17610E-03 57024   0.801E-02    0.241E+00
DAV:  22     0.369597666956E+03   -0.16686E-02   -0.21335E-04 54784   0.275E-02    0.246E+00
DAV:  23     0.369592723316E+03   -0.49436E-02   -0.13155E-04 56576   0.225E-02    0.257E+00
DAV:  24     0.369612232567E+03    0.19509E-01    0.29774E-04 59200   0.496E-02    0.223E+00
DAV:  25     0.369658858555E+03    0.46626E-01   -0.49192E-03 62528   0.156E-01    0.899E-01
DAV:  26     0.369670290619E+03    0.11432E-01    0.34320E-04 62656   0.102E-01    0.309E-01
DAV:  27     0.369672013329E+03    0.17227E-02    0.18517E-04 62144   0.371E-02    0.156E-01
DAV:  28     0.369672262797E+03    0.24947E-03    0.54043E-06 58752   0.132E-02    0.111E-01
DAV:  29     0.369671691449E+03   -0.57135E-03   -0.20667E-04 57216   0.317E-02    0.214E-01
DAV:  30     0.369671821264E+03    0.12982E-03   -0.42010E-06 47040   0.768E-03    0.194E-01
DAV:  31     0.369671956512E+03    0.13525E-03   -0.15751E-06 59520   0.385E-03    0.170E-01
DAV:  32     0.369672078742E+03    0.12223E-03   -0.20127E-06 60416   0.380E-03    0.146E-01
DAV:  33     0.369672218754E+03    0.14001E-03   -0.57892E-06 53568   0.567E-03    0.117E-01
DAV:  34     0.369672416808E+03    0.19805E-03   -0.29502E-05 56768   0.125E-02    0.501E-02
DAV:  35     0.369672445187E+03    0.28379E-04   -0.31750E-06 57536   0.488E-03    0.340E-02
DAV:  36     0.369672464371E+03    0.19184E-04   -0.15526E-06 63424   0.544E-03    0.810E-03
DAV:  37     0.369672464308E+03   -0.62688E-07   -0.36816E-07 52032   0.200E-03
   8 F= 0.36967246E+03 E0= 0.36964973E+03  d E =0.682166E-01
       N       E                     dE             d eps       ncg     rms          rms(c)
DAV:   1     0.369428202452E+03   -0.24426E+00   -0.73737E+00 50112   0.973E+00    0.378E+00
DAV:   2     0.369595090637E+03    0.16689E+00   -0.24078E-01 53376   0.182E+00    0.217E+00
DAV:   3     0.366542983103E+03   -0.30521E+01   -0.19076E+00 70080   0.347E+00    0.123E+01
DAV:   4     0.369643514509E+03    0.31005E+01   -0.52711E-01 61440   0.218E+00    0.131E+00
DAV:   5     0.369669581706E+03    0.26067E-01   -0.46696E-02 51776   0.528E-01    0.566E-01
DAV:   6     0.369665183039E+03   -0.43987E-02   -0.67727E-03 61312   0.231E-01    0.856E-01
DAV:   7     0.369672411865E+03    0.72288E-02   -0.22568E-03 68288   0.116E-01    0.703E-02
DAV:   8     0.369672356405E+03   -0.55460E-04   -0.18736E-04 49600   0.368E-02    0.972E-02
DAV:   9     0.369672127041E+03   -0.22936E-03   -0.14935E-05 68800   0.195E-02    0.191E-01
DAV:  10     0.369672460784E+03    0.33374E-03   -0.69594E-05 63168   0.229E-02    0.243E-02
DAV:  11     0.369672450304E+03   -0.10480E-04   -0.15135E-05 60160   0.985E-03    0.388E-02
DAV:  12     0.369672464162E+03    0.13857E-04   -0.22804E-06 62848   0.422E-03    0.772E-03
DAV:  13     0.369672464688E+03    0.52654E-06   -0.37654E-07 47936   0.128E-03
   9 F= 0.36967246E+03 E0= 0.36964981E+03  d E =0.679698E-01
       N       E                     dE             d eps       ncg     rms          rms(c)
DAV:   1     0.369560032565E+03   -0.11243E+00   -0.74342E+00 35968   0.118E+01    0.254E+00
DAV:   2     0.369638889102E+03    0.78857E-01   -0.28516E-01 46784   0.193E+00    0.141E+00
DAV:   3     0.369596826950E+03   -0.42062E-01    0.49323E-03 56384   0.113E+00    0.173E+00
DAV:   4     0.369478241887E+03   -0.11859E+00   -0.20543E-01 59136   0.790E-01    0.534E+00
DAV:   5     0.369688087642E+03    0.20985E+00   -0.19141E-01 57856   0.629E-01    0.327E-01
DAV:   6     0.369687721808E+03   -0.36583E-03   -0.37051E-03 39808   0.237E-01    0.233E-01
DAV:   7     0.369688340500E+03    0.61869E-03    0.33091E-04 51392   0.789E-02    0.246E-01
DAV:   8     0.369688902293E+03    0.56179E-03    0.28106E-05 53632   0.516E-02    0.106E-01
DAV:   9     0.369689016517E+03    0.11422E-03   -0.41259E-05 53440   0.186E-02    0.208E-02
DAV:  10     0.369689023143E+03    0.66254E-05   -0.15674E-06 52416   0.729E-03    0.173E-02
DAV:  11     0.369689024286E+03    0.11436E-05    0.82029E-07 52928   0.331E-03    0.784E-03
DAV:  12     0.369689025849E+03    0.15633E-05    0.38049E-07 37760   0.160E-03    0.623E-03
DAV:  13     0.369689026225E+03    0.37525E-06   -0.84703E-08 25408   0.111E-03
  10 F= 0.36968903E+03 E0= 0.36966608E+03  d E =0.688404E-01
       N       E                     dE             d eps       ncg     rms          rms(c)
DAV:   1     0.369368132960E+03   -0.32089E+00   -0.11310E+01 37376   0.133E+01    0.411E+00
DAV:   2     0.369578203279E+03    0.21007E+00   -0.53606E-01 47104   0.251E+00    0.234E+00
DAV:   3     0.366418011787E+03   -0.31602E+01   -0.22375E+00 57856   0.351E+00    0.123E+01
DAV:   4     0.369411782954E+03    0.29938E+01   -0.57844E-01 51008   0.221E+00    0.297E+00
DAV:   5     0.369623816701E+03    0.21203E+00   -0.11513E-01 50560   0.684E-01    0.236E+00
DAV:   6     0.369686304377E+03    0.62488E-01   -0.34290E-02 53824   0.372E-01    0.421E-01
DAV:   7     0.369685092470E+03   -0.12119E-02   -0.16609E-03 49024   0.190E-01    0.584E-01
DAV:   8     0.369688233221E+03    0.31408E-02   -0.13470E-03 55040   0.117E-01    0.284E-01
DAV:   9     0.369687927383E+03   -0.30584E-03   -0.23589E-04 43776   0.521E-02    0.342E-01
DAV:  10     0.369689003114E+03    0.10757E-02   -0.26415E-04 54080   0.432E-02    0.383E-02
DAV:  11     0.369689000340E+03   -0.27741E-05   -0.30057E-05 51584   0.141E-02    0.478E-02
DAV:  12     0.369689018421E+03    0.18080E-04   -0.32915E-06 48640   0.541E-03    0.278E-02
DAV:  13     0.369689025963E+03    0.75420E-05   -0.37558E-06 52864   0.499E-03    0.515E-03
DAV:  14     0.369689025932E+03   -0.30801E-07   -0.25550E-07 32512   0.134E-03
  11 F= 0.36968903E+03 E0= 0.36966605E+03  d E =0.689310E-01
       N       E                     dE             d eps       ncg     rms          rms(c)
DAV:   1     0.369540099672E+03   -0.14893E+00   -0.60084E+00 41856   0.896E+00    0.257E+00
DAV:   2     0.369624113305E+03    0.84014E-01   -0.28471E-01 48128   0.178E+00    0.174E+00
DAV:   3     0.367795704389E+03   -0.18284E+01   -0.13052E+00 59520   0.243E+00    0.105E+01
DAV:   4     0.369595987515E+03    0.18003E+01   -0.37664E-01 53248   0.182E+00    0.166E+00
DAV:   5     0.369683923639E+03    0.87936E-01   -0.37154E-03 44992   0.473E-01    0.689E-01
DAV:   6     0.369649005136E+03   -0.34919E-01   -0.38156E-02 54976   0.402E-01    0.216E+00
DAV:   7     0.369689110710E+03    0.40106E-01   -0.17135E-02 55040   0.269E-01    0.134E-01
DAV:   8     0.369689006355E+03   -0.10435E-03   -0.87237E-04 41344   0.833E-02    0.724E-02
DAV:   9     0.369688916110E+03   -0.90246E-04   -0.71926E-06 48896   0.241E-02    0.127E-01
DAV:  10     0.369689042373E+03    0.12626E-03   -0.28594E-05 58688   0.171E-02    0.154E-02
DAV:  11     0.369689027834E+03   -0.14539E-04   -0.58898E-06 53120   0.669E-03    0.308E-02
DAV:  12     0.369689034277E+03    0.64432E-05   -0.59422E-07 51328   0.306E-03    0.678E-03
DAV:  13     0.369689032874E+03   -0.14033E-05   -0.33021E-07 33728   0.129E-03    0.245E-03
DAV:  14     0.369689032587E+03   -0.28745E-06   -0.22749E-08 18880   0.400E-04
  12 F= 0.36968903E+03 E0= 0.36966610E+03  d E =0.687986E-01
       N       E                     dE             d eps       ncg     rms          rms(c)
DAV:   1     0.369365947698E+03   -0.32309E+00   -0.10784E+01 38400   0.129E+01    0.412E+00
DAV:   2     0.369577571355E+03    0.21162E+00   -0.52424E-01 48896   0.250E+00    0.234E+00
DAV:   3     0.366485271072E+03   -0.30923E+01   -0.22366E+00 57600   0.348E+00    0.122E+01
DAV:   4     0.369399379103E+03    0.29141E+01   -0.57470E-01 50944   0.219E+00    0.308E+00
DAV:   5     0.369615452699E+03    0.21607E+00   -0.13840E-01 51456   0.708E-01    0.251E+00
DAV:   6     0.369686898300E+03    0.71446E-01   -0.33988E-02 53696   0.371E-01    0.301E-01
DAV:   7     0.369684715609E+03   -0.21827E-02   -0.11858E-03 47744   0.179E-01    0.612E-01
DAV:   8     0.369688296634E+03    0.35810E-02   -0.15462E-03 54720   0.120E-01    0.274E-01
DAV:   9     0.369687660504E+03   -0.63613E-03   -0.27431E-04 47360   0.578E-02    0.381E-01
DAV:  10     0.369689012113E+03    0.13516E-02   -0.33561E-04 53952   0.481E-02    0.332E-02
DAV:  11     0.369688978675E+03   -0.33438E-04   -0.44979E-05 52160   0.163E-02    0.708E-02
DAV:  12     0.369689024022E+03    0.45347E-04   -0.65108E-06 51968   0.748E-03    0.287E-02
DAV:  13     0.369689032251E+03    0.82289E-05   -0.37117E-06 52800   0.483E-03    0.192E-03
DAV:  14     0.369689031860E+03   -0.39091E-06   -0.22657E-07 36864   0.134E-03
  13 F= 0.36968903E+03 E0= 0.36966605E+03  d E =0.689383E-01
       N       E                     dE             d eps       ncg     rms          rms(c)
DAV:   1     0.369607782762E+03   -0.81249E-01   -0.46532E+00 25664   0.109E+01    0.155E+00
DAV:   2     0.369431441426E+03   -0.17634E+00   -0.20632E-01 34816   0.184E+00    0.626E+00
DAV:   3     0.369583968024E+03    0.15253E+00    0.22157E-01 38848   0.778E-01    0.283E+00
DAV:   4     0.369598808331E+03    0.14840E-01   -0.45904E-02 36032   0.963E-01    0.346E+00
DAV:   5     0.369583546060E+03   -0.15262E-01   -0.63482E-02 41472   0.574E-01    0.281E+00
DAV:   6     0.369664134864E+03    0.80589E-01   -0.17057E-02 38400   0.406E-01    0.621E-01
DAV:   7     0.369667738463E+03    0.36036E-02   -0.40413E-03 36288   0.287E-01    0.426E-01
DAV:   8     0.369667963206E+03    0.22474E-03   -0.76144E-04 40192   0.161E-01    0.384E-01
DAV:   9     0.369668975410E+03    0.10122E-02   -0.71086E-05 39936   0.884E-02    0.809E-02
DAV:  10     0.369668975467E+03    0.57224E-07   -0.73443E-05 42240   0.581E-02    0.660E-02
DAV:  11     0.369668988444E+03    0.12977E-04   -0.45908E-05 43392   0.489E-02    0.700E-02
DAV:  12     0.369668992898E+03    0.44544E-05   -0.96065E-06 38912   0.159E-02    0.615E-02
DAV:  13     0.369669003981E+03    0.11083E-04   -0.82200E-07 41152   0.134E-02    0.370E-02
DAV:  14     0.369669010553E+03    0.65725E-05    0.13958E-06 37696   0.986E-03    0.230E-02
DAV:  15     0.369669014117E+03    0.35640E-05   -0.21002E-06 38656   0.731E-03    0.661E-03
DAV:  16     0.369669012640E+03   -0.14774E-05   -0.40431E-07 29952   0.472E-03    0.130E-02
DAV:  17     0.369669013764E+03    0.11240E-05   -0.12644E-07 17856   0.263E-03    0.548E-03
DAV:  18     0.369669013958E+03    0.19392E-06   -0.17539E-07 19520   0.195E-03
  14 F= 0.36966901E+03 E0= 0.36964617E+03  d E =0.685404E-01
       N       E                     dE             d eps       ncg     rms          rms(c)
DAV:   1     0.369672785629E+03    0.37719E-02   -0.26956E+00 25600   0.113E+01    0.420E-01
DAV:   2     0.368856380144E+03   -0.81641E+00    0.11782E-02 34176   0.129E+00    0.136E+01
DAV:   3     0.369612147499E+03    0.75577E+00   -0.88066E-01 38528   0.103E+00    0.243E+00
DAV:   4     0.369654235751E+03    0.42088E-01   -0.33138E-02 35136   0.392E-01    0.157E+00
DAV:   5     0.369656939469E+03    0.27037E-02   -0.27646E-03 38528   0.282E-01    0.112E+00
DAV:   6     0.369664049529E+03    0.71101E-02   -0.15433E-03 42304   0.207E-01    0.717E-01
DAV:   7     0.369668791958E+03    0.47424E-02   -0.14639E-03 38592   0.143E-01    0.109E-01
DAV:   8     0.369668766926E+03   -0.25032E-04    0.65806E-05 36800   0.625E-02    0.179E-01
DAV:   9     0.369668796733E+03    0.29807E-04   -0.69222E-05 41344   0.491E-02    0.179E-01
DAV:  10     0.369668895481E+03    0.98748E-04   -0.29338E-05 43328   0.467E-02    0.127E-01
DAV:  11     0.369668757732E+03   -0.13775E-03   -0.90220E-05 41216   0.522E-02    0.165E-01
DAV:  12     0.369668825604E+03    0.67872E-04   -0.16295E-05 41216   0.304E-02    0.142E-01
DAV:  13     0.369668944646E+03    0.11904E-03   -0.73170E-06 38336   0.130E-02    0.872E-02
DAV:  14     0.369669009491E+03    0.64845E-04   -0.84607E-06 38208   0.123E-02    0.246E-02
DAV:  15     0.369669013281E+03    0.37901E-05   -0.36727E-07 36928   0.559E-03    0.925E-03
DAV:  16     0.369669013779E+03    0.49735E-06   -0.95475E-09 18752   0.265E-03
  15 F= 0.36966901E+03 E0= 0.36964614E+03  d E =0.686067E-01
       N       E                     dE             d eps       ncg     rms          rms(c)
DAV:   1     0.369670684669E+03    0.16714E-02   -0.16588E+00 15360   0.910E+00    0.331E-01
DAV:   2     0.368925654384E+03   -0.74503E+00   -0.18007E-01 23168   0.112E+00    0.126E+01
DAV:   3     0.369630213754E+03    0.70456E+00   -0.15033E-01 23872   0.932E-01    0.202E+00
DAV:   4     0.369656955909E+03    0.26742E-01   -0.29843E-02 22144   0.341E-01    0.152E+00
DAV:   5     0.369662308608E+03    0.53527E-02   -0.54719E-03 23424   0.205E-01    0.813E-01
DAV:   6     0.369666942316E+03    0.46337E-02   -0.92841E-04 23424   0.129E-01    0.415E-01
DAV:   7     0.369667962604E+03    0.10203E-02   -0.86849E-04 23232   0.969E-02    0.364E-01
DAV:   8     0.369667666849E+03   -0.29575E-03   -0.25076E-04 23872   0.518E-02    0.384E-01
DAV:   9     0.369668284970E+03    0.61812E-03   -0.98453E-05 24768   0.538E-02    0.220E-01
DAV:  10     0.369668576723E+03    0.29175E-03   -0.85235E-05 24448   0.518E-02    0.106E-01
DAV:  11     0.369668655846E+03    0.79123E-04   -0.22163E-05 24128   0.266E-02    0.727E-02
DAV:  12     0.369668688083E+03    0.32237E-04   -0.54334E-06 23040   0.138E-02    0.455E-02
DAV:  13     0.369668708306E+03    0.20223E-04   -0.47537E-06 23360   0.107E-02    0.135E-02
DAV:  14     0.369668710987E+03    0.26812E-05   -0.93178E-07 20672   0.469E-03    0.527E-03
DAV:  15     0.369668711914E+03    0.92755E-06   -0.38974E-07  9344   0.321E-03
  16 F= 0.36966871E+03 E0= 0.36964588E+03  d E =0.684967E-01
       N       E                     dE             d eps       ncg     rms          rms(c)
DAV:   1     0.369673504764E+03    0.47938E-02   -0.32807E+00 15552   0.130E+01    0.615E-01
DAV:   2     0.366570606639E+03   -0.31029E+01   -0.85999E-01 23104   0.204E+00    0.302E+01
DAV:   3     0.369336851394E+03    0.27662E+01   -0.53775E+00 23488   0.214E+00    0.542E+00
DAV:   4     0.369614955444E+03    0.27810E+00   -0.19859E-01 22016   0.848E-01    0.323E+00
DAV:   5     0.369561066470E+03   -0.53889E-01   -0.60513E-02 23552   0.473E-01    0.314E+00
DAV:   6     0.369606950467E+03    0.45884E-01   -0.53599E-03 22464   0.284E-01    0.253E+00
DAV:   7     0.369634241787E+03    0.27291E-01   -0.27863E-03 22336   0.233E-01    0.193E+00
DAV:   8     0.369654490153E+03    0.20248E-01   -0.49418E-03 22528   0.178E-01    0.113E+00
DAV:   9     0.369658559630E+03    0.40695E-02   -0.30929E-04 19264   0.685E-02    0.975E-01
DAV:  10     0.369660728735E+03    0.21691E-02   -0.10044E-04 23808   0.283E-02    0.869E-01
DAV:  11     0.369667116379E+03    0.63876E-02   -0.14132E-03 23040   0.104E-01    0.369E-01
DAV:  12     0.369667985894E+03    0.86952E-03   -0.49099E-04 22848   0.958E-02    0.321E-01
DAV:  13     0.369668660628E+03    0.67473E-03    0.13003E-05 22720   0.622E-02    0.660E-02
DAV:  14     0.369668475856E+03   -0.18477E-03   -0.73504E-05 22208   0.488E-02    0.189E-01
DAV:  15     0.369668470709E+03   -0.51474E-05   -0.20852E-05 22464   0.219E-02    0.172E-01
DAV:  16     0.369668658967E+03    0.18826E-03   -0.57253E-06 22720   0.158E-02    0.821E-02
DAV:  17     0.369668710348E+03    0.51381E-04   -0.81938E-06 23232   0.127E-02    0.191E-02
DAV:  18     0.369668711164E+03    0.81588E-06   -0.21310E-06 23040   0.929E-03
  17 F= 0.36966871E+03 E0= 0.36964596E+03  d E =0.682580E-01
       N       E                     dE             d eps       ncg     rms          rms(c)
DAV:   1     0.213957009931E+04    0.17699E+04   -0.85911E-01 26048   0.653E+00    0.350E-01
DAV:   2     0.213903276751E+04   -0.53733E+00   -0.17369E-01 38976   0.121E+00    0.977E+00
DAV:   3     0.213954925546E+04    0.51649E+00   -0.19919E-01 39360   0.816E-01    0.148E+00
DAV:   4     0.213954974560E+04    0.49014E-03   -0.95629E-03 32704   0.338E-01    0.170E+00
DAV:   5     0.213954740127E+04   -0.23443E-02    0.20610E-02 38272   0.445E-01    0.199E+00
DAV:   6     0.213956322022E+04    0.15819E-01    0.43007E-04 38464   0.230E-01    0.740E-01
DAV:   7     0.213953121643E+04   -0.32004E-01    0.30447E-02 32256   0.258E-01    0.253E+00
DAV:   8     0.213956576091E+04    0.34544E-01    0.15404E-02 38976   0.291E-01    0.564E-01
DAV:   9     0.213956661786E+04    0.85695E-03    0.78786E-04 32256   0.598E-02    0.418E-01
DAV:  10     0.213956527535E+04   -0.13425E-02    0.11004E-04 38336   0.868E-02    0.623E-01
DAV:  11     0.213956696907E+04    0.16937E-02    0.18659E-03 34112   0.501E-02    0.352E-01
DAV:  12     0.213956729316E+04    0.32409E-03   -0.28867E-05 38336   0.340E-02    0.310E-01
DAV:  13     0.213956763535E+04    0.34218E-03    0.20647E-04 34816   0.212E-02    0.204E-01
DAV:  14     0.213956792728E+04    0.29194E-03   -0.30092E-06 38656   0.208E-02    0.858E-02
DAV:  15     0.213956769132E+04   -0.23596E-03    0.26713E-04 33088   0.182E-02    0.212E-01
DAV:  16     0.213956796558E+04    0.27426E-03    0.21055E-04 36928   0.166E-02    0.395E-02
DAV:  17     0.213956797021E+04    0.46309E-05   -0.45894E-06 27072   0.449E-03    0.229E-02
DAV:  18     0.213956797299E+04    0.27803E-05    0.73481E-07 34944   0.210E-03    0.152E-02
DAV:  19     0.213956797459E+04    0.15982E-05   -0.15450E-07 32704   0.182E-03    0.736E-03
DAV:  20     0.213956797452E+04   -0.75874E-07   -0.12436E-07 24512   0.124E-03
  18 F= 0.21395680E+04 E0= 0.21395452E+04  d E =0.684707E-01
       N       E                     dE             d eps       ncg     rms          rms(c)
DAV:   1     0.213956666170E+04   -0.13129E-02   -0.18727E-01 25600   0.769E-01    0.249E-01
DAV:   2     0.213956280638E+04   -0.38553E-02   -0.20331E-02 43712   0.892E-01    0.620E-01
DAV:   3     0.213954976947E+04   -0.13037E-01    0.35931E-03 42688   0.610E-01    0.187E+00
DAV:   4     0.213956727247E+04    0.17503E-01    0.10539E-02 38272   0.180E-01    0.345E-01
DAV:   5     0.213954618941E+04   -0.21083E-01    0.14274E-03 37696   0.150E-01    0.213E+00
DAV:   6     0.213956589963E+04    0.19710E-01    0.29333E-04 39360   0.177E-01    0.584E-01
DAV:   7     0.213956760378E+04    0.17041E-02    0.27501E-03 34304   0.615E-02    0.250E-01
DAV:   8     0.213956577562E+04   -0.18282E-02    0.72594E-04 37952   0.659E-02    0.508E-01
DAV:   9     0.213956702903E+04    0.12534E-02    0.74128E-04 37056   0.625E-02    0.400E-01
DAV:  10     0.213956789481E+04    0.86578E-03    0.44107E-04 37440   0.327E-02    0.118E-01
DAV:  11     0.213956714307E+04   -0.75174E-03    0.61018E-04 32256   0.295E-02    0.370E-01
DAV:  12     0.213956794280E+04    0.79973E-03    0.51545E-04 37568   0.283E-02    0.632E-02
DAV:  13     0.213956784142E+04   -0.10138E-03    0.60646E-05 32576   0.131E-02    0.147E-01
DAV:  14     0.213956796737E+04    0.12595E-03    0.82002E-05 35776   0.111E-02    0.338E-02
DAV:  15     0.213956797123E+04    0.38652E-05    0.81309E-06 32832   0.488E-03    0.227E-02
DAV:  16     0.213956797147E+04    0.23706E-06    0.17077E-06 33024   0.204E-03
  19 F= 0.21395680E+04 E0= 0.21395452E+04  d E =0.683364E-01
       N       E                     dE             d eps       ncg     rms          rms(c)
DAV:   1     0.213956719628E+04   -0.77496E-03   -0.11738E-01 15360   0.620E-01    0.154E-01
DAV:   2     0.213956272320E+04   -0.44731E-02   -0.86584E-03 25728   0.343E-01    0.730E-01
DAV:   3     0.213952358967E+04   -0.39134E-01    0.47100E-02 22144   0.268E-01    0.353E+00
DAV:   4     0.213956703514E+04    0.43445E-01   -0.24723E-02 23040   0.248E-01    0.372E-01
DAV:   5     0.213956483430E+04   -0.22008E-02    0.41265E-03 19264   0.833E-02    0.688E-01
DAV:   6     0.213956274673E+04   -0.20876E-02    0.87232E-04 22528   0.103E-01    0.913E-01
DAV:   7     0.213956713001E+04    0.43833E-02    0.56865E-04 23232   0.794E-02    0.353E-01
DAV:   8     0.213956774384E+04    0.61383E-03   -0.52812E-05 23104   0.421E-02    0.159E-01
DAV:   9     0.213956690480E+04   -0.83904E-03    0.68491E-04 21248   0.413E-02    0.412E-01
DAV:  10     0.213956799630E+04    0.10915E-02    0.70084E-04 23104   0.331E-02    0.394E-02
DAV:  11     0.213956791257E+04   -0.83724E-04    0.68967E-05 20096   0.228E-02    0.151E-01
DAV:  12     0.213956800285E+04    0.90281E-04    0.11494E-04 20736   0.121E-02    0.956E-02
DAV:  13     0.213956804647E+04    0.43614E-04   -0.52775E-06 23552   0.119E-02    0.687E-02
DAV:  14     0.213956807872E+04    0.32256E-04    0.37958E-06 20544   0.821E-03    0.285E-02
DAV:  15     0.213956808500E+04    0.62756E-05    0.29739E-06 18176   0.388E-03    0.619E-03
DAV:  16     0.213956808597E+04    0.97337E-06    0.47961E-07 18816   0.377E-03
  20 F= 0.21395681E+04 E0= 0.21395452E+04  d E =0.686176E-01
       N       E                     dE             d eps       ncg     rms          rms(c)
DAV:   1     0.213956685548E+04   -0.12295E-02   -0.23769E-01 15360   0.876E-01    0.233E-01
DAV:   2     0.213955840302E+04   -0.84525E-02   -0.33319E-02 25024   0.567E-01    0.769E-01
DAV:   3     0.213955933482E+04    0.93180E-03   -0.21415E-02 24448   0.397E-01    0.129E+00
DAV:   4     0.213956762654E+04    0.82917E-02   -0.13708E-03 24640   0.107E-01    0.303E-01
DAV:   5     0.213955075419E+04   -0.16872E-01    0.13644E-02 20928   0.146E-01    0.158E+00
DAV:   6     0.213956329606E+04    0.12542E-01    0.14979E-02 21952   0.151E-01    0.762E-01
DAV:   7     0.213956771327E+04    0.44172E-02    0.72893E-04 22400   0.831E-02    0.241E-01
DAV:   8     0.213956794385E+04    0.23058E-03    0.33741E-04 21760   0.347E-02    0.154E-01
DAV:   9     0.213956676902E+04   -0.11748E-02    0.12373E-03 19264   0.424E-02    0.448E-01
DAV:  10     0.213956805567E+04    0.12866E-02    0.11645E-03 21824   0.352E-02    0.647E-02
DAV:  11     0.213956798764E+04   -0.68031E-04    0.55704E-06 22400   0.164E-02    0.124E-01
DAV:  12     0.213956806444E+04    0.76802E-04    0.58002E-05 20288   0.106E-02    0.496E-02
DAV:  13     0.213956808344E+04    0.18995E-04    0.10749E-06 21696   0.488E-03    0.204E-02
DAV:  14     0.213956808616E+04    0.27221E-05   -0.12581E-06 23168   0.342E-03    0.104E-02
DAV:  15     0.213956808692E+04    0.76149E-06   -0.13054E-07 14912   0.149E-03
  21 F= 0.21395681E+04 E0= 0.21395452E+04  d E =0.685748E-01
       N       E                     dE             d eps       ncg     rms          rms(c)
DAV:   1     0.213956694581E+04   -0.11404E-02   -0.45899E-01 25600   0.109E+00    0.126E-01
DAV:   2     0.213956647300E+04   -0.47281E-03   -0.14845E-03 25600   0.103E-01    0.278E-01
DAV:   3     0.213956589311E+04   -0.57988E-03    0.11000E-05 41792   0.532E-02    0.433E-01
DAV:   4     0.213956309014E+04   -0.28030E-02    0.29937E-04 39360   0.116E-01    0.816E-01
DAV:   5     0.213956669483E+04    0.36047E-02    0.35288E-03 38336   0.782E-02    0.177E-01
DAV:   6     0.213956351453E+04   -0.31803E-02    0.17838E-03 35456   0.129E-01    0.727E-01
DAV:   7     0.213956690582E+04    0.33913E-02    0.24293E-03 38528   0.832E-02    0.122E-01
DAV:   8     0.213956646894E+04   -0.43688E-03    0.66465E-05 38656   0.616E-02    0.261E-01
DAV:   9     0.213956699170E+04    0.52276E-03    0.13894E-04 39872   0.474E-02    0.106E-01
DAV:  10     0.213956704433E+04    0.52628E-04    0.89234E-05 35008   0.150E-02    0.572E-02
DAV:  11     0.213956693662E+04   -0.10771E-03    0.74586E-05 33280   0.189E-02    0.148E-01
DAV:  12     0.213956707729E+04    0.14067E-03    0.86135E-05 38400   0.128E-02    0.170E-02
DAV:  13     0.213956708456E+04    0.72688E-05   -0.11482E-06 30400   0.543E-03    0.219E-02
DAV:  14     0.213956708582E+04    0.12625E-05    0.32522E-06 32512   0.278E-03    0.193E-02
DAV:  15     0.213956709819E+04    0.12373E-04   -0.32474E-06 40256   0.736E-03    0.905E-03
DAV:  16     0.213956710393E+04    0.57370E-05   -0.20934E-06 36544   0.577E-03    0.127E-02
DAV:  17     0.213956710471E+04    0.77739E-06    0.80881E-07 22720   0.188E-03
  22 F= 0.21395671E+04 E0= 0.21395442E+04  d E =0.686177E-01
       N       E                     dE             d eps       ncg     rms          rms(c)
DAV:   1     0.213956762570E+04    0.52177E-03   -0.12585E+00 25600   0.168E+00    0.204E-01
DAV:   2     0.213956668892E+04   -0.93678E-03   -0.17777E-03 25600   0.143E-01    0.335E-01
DAV:   3     0.213956401574E+04   -0.26732E-02    0.18406E-03 36544   0.888E-02    0.722E-01
DAV:   4     0.213955934984E+04   -0.46659E-02   -0.16947E-03 40896   0.251E-01    0.121E+00
DAV:   5     0.213956582407E+04    0.64742E-02    0.49536E-04 38400   0.120E-01    0.456E-01
DAV:   6     0.213956026915E+04   -0.55549E-02    0.13540E-03 38656   0.186E-01    0.958E-01
DAV:   7     0.213956609253E+04    0.58234E-02    0.36852E-03 39296   0.141E-01    0.364E-01
DAV:   8     0.213956707280E+04    0.98027E-03    0.36532E-04 38080   0.454E-02    0.841E-02
DAV:   9     0.213956562309E+04   -0.14497E-02    0.15427E-03 32960   0.431E-02    0.478E-01
DAV:  10     0.213956708087E+04    0.14578E-02    0.13851E-03 36992   0.402E-02    0.700E-02
DAV:  11     0.213956698911E+04   -0.91764E-04    0.48253E-05 32320   0.135E-02    0.141E-01
DAV:  12     0.213956710806E+04    0.11895E-03    0.74480E-05 38528   0.111E-02    0.213E-02
DAV:  13     0.213956709795E+04   -0.10104E-04    0.80957E-06 32960   0.490E-03    0.464E-02
DAV:  14     0.213956710992E+04    0.11966E-04    0.62098E-06 33024   0.355E-03    0.136E-02
DAV:  15     0.213956711106E+04    0.11428E-05   -0.35117E-07 36800   0.228E-03    0.697E-03
DAV:  16     0.213956710995E+04   -0.11109E-05    0.73764E-07 21248   0.133E-03    0.153E-02
DAV:  17     0.213956711141E+04    0.14600E-05    0.67949E-07 20864   0.149E-03    0.372E-03
DAV:  18     0.213956711153E+04    0.12112E-06   -0.26034E-08 13696   0.773E-04
  23 F= 0.21395671E+04 E0= 0.21395443E+04  d E =0.685819E-01
       N       E                     dE             d eps       ncg     rms          rms(c)
DAV:   1     0.213956705958E+04   -0.51827E-04   -0.79517E-01 15360   0.135E+00    0.139E-01
DAV:   2     0.213956597956E+04   -0.10800E-02   -0.15808E-03 15360   0.107E-01    0.406E-01
DAV:   3     0.213956623571E+04    0.25615E-03    0.34049E-04 23168   0.515E-02    0.371E-01
DAV:   4     0.213956147651E+04   -0.47592E-02    0.52307E-04 22912   0.103E-01    0.945E-01
DAV:   5     0.213956656983E+04    0.50933E-02    0.44128E-03 22784   0.898E-02    0.227E-01
DAV:   6     0.213956276757E+04   -0.38023E-02    0.22657E-03 20992   0.887E-02    0.779E-01
DAV:   7     0.213956660223E+04    0.38347E-02    0.34062E-03 22592   0.911E-02    0.212E-01
DAV:   8     0.213956643812E+04   -0.16410E-03    0.73150E-05 23936   0.472E-02    0.253E-01
DAV:   9     0.213956644780E+04    0.96752E-05    0.82614E-04 22208   0.460E-02    0.297E-01
DAV:  10     0.213956701967E+04    0.57187E-03    0.43394E-04 22656   0.267E-02    0.291E-02
DAV:  11     0.213956683572E+04   -0.18396E-03    0.13742E-04 19200   0.157E-02    0.172E-01
DAV:  12     0.213956702167E+04    0.18595E-03    0.13981E-04 22592   0.143E-02    0.239E-02
DAV:  13     0.213956702597E+04    0.43048E-05   -0.42628E-07 16576   0.322E-03    0.986E-03
DAV:  14     0.213956702647E+04    0.49253E-06   -0.36406E-07 21248   0.182E-03
  24 F= 0.21395670E+04 E0= 0.21395442E+04  d E =0.684748E-01
       N       E                     dE             d eps       ncg     rms          rms(c)
DAV:   1     0.213956760592E+04    0.57995E-03   -0.15942E+00 15360   0.189E+00    0.168E-01
DAV:   2     0.213956617479E+04   -0.14311E-02   -0.23204E-03 15360   0.143E-01    0.439E-01
DAV:   3     0.213956622361E+04    0.48823E-04    0.47308E-04 21952   0.601E-02    0.417E-01
DAV:   4     0.213955800838E+04   -0.82152E-02    0.17971E-06 23360   0.137E-01    0.127E+00
DAV:   5     0.213956635389E+04    0.83455E-02    0.28978E-03 23168   0.116E-01    0.308E-01
DAV:   6     0.213956054152E+04   -0.58124E-02    0.24666E-03 22656   0.118E-01    0.998E-01
DAV:   7     0.213956592219E+04    0.53807E-02    0.59249E-03 23040   0.109E-01    0.393E-01
DAV:   8     0.213956694218E+04    0.10200E-02    0.36720E-04 23040   0.504E-02    0.108E-01
DAV:   9     0.213956571680E+04   -0.12254E-02    0.15576E-03 19840   0.406E-02    0.444E-01
DAV:  10     0.213956701916E+04    0.13024E-02    0.12657E-03 22848   0.383E-02    0.341E-02
DAV:  11     0.213956701546E+04   -0.37027E-05   -0.60101E-06 16384   0.803E-03    0.415E-02
DAV:  12     0.213956702012E+04    0.46580E-05    0.74599E-06 19584   0.394E-03    0.309E-02
DAV:  13     0.213956702630E+04    0.61801E-05    0.13745E-06 20672   0.287E-03    0.631E-03
DAV:  14     0.213956702627E+04   -0.23916E-07    0.13638E-07 15616   0.138E-03
  25 F= 0.21395670E+04 E0= 0.21395442E+04  d E =0.684995E-01
