<?xml version="1.0" encoding="ISO-8859-1"?>
<modeling>
 <generator>
  <i name="program" type="string">vasp </i>
  <i name="version" type="string">6.5.0  </i>
  <i name="subversion" type="string">16Dec24 (build Apr 17 2025 17:55:45) complex                          parallel </i>
  <i name="platform" type="string">LinuxIFC </i>
  <i name="date" type="string">2025 06 06 </i>
  <i name="time" type="string">09:47:02 </i>
 </generator>
 <incar>
  <i type="int" name="ISTART">     0</i>
  <i type="string" name="PREC">N</i>
  <i type="string" name="ALGO">N</i>
  <i type="int" name="ICHARG">     2</i>
  <i type="int" name="NELM">   500</i>
  <i type="int" name="IBRION">     6</i>
  <i type="int" name="NFREE">     2</i>
  <i name="EDIFF">      0.00000100</i>
  <i name="EDIFFG">     -0.00100000</i>
  <i type="int" name="NSW">     1</i>
  <i type="int" name="ISIF">     3</i>
  <i name="SYMPREC">      0.00000100</i>
  <i name="ENCUT">    600.00000000</i>
  <i name="POTIM">      0.01500000</i>
  <v name="VCA">      1.00000000      0.95000000      0.05000000</v>
  <i type="logical" name="LREAL"> F  </i>
  <i type="int" name="ISMEAR">     1</i>
  <i name="SIGMA">      0.20000000</i>
  <i type="int" name="LMAXMIX">     4</i>
 </incar>
 <primitive_cell>
  <structure name="primitive_cell" >
   <crystal>
    <varray name="basis" >
     <v>       2.78574814       0.00000000       0.00000000 </v>
     <v>       0.00000000       2.78574814       0.00000000 </v>
     <v>       0.00000000       0.00000000       3.99962943 </v>
    </varray>
    <i name="volume">     31.03869508 </i>
    <varray name="rec_basis" >
     <v>       0.35897000       0.00000000       0.00000000 </v>
     <v>       0.00000000       0.35897000       0.00000000 </v>
     <v>       0.00000000       0.00000000       0.25002316 </v>
    </varray>
   </crystal>
   <varray name="positions" >
    <v>       0.00000000       0.00000000       0.00000000 </v>
    <v>       0.50000000       0.50000000       0.50000000 </v>
    <v>       0.50000000       0.50000000       0.50000000 </v>
   </varray>
  </structure>
  <varray name="primitive_index" >
   <v type="int" >        1 </v>
   <v type="int" >        9 </v>
   <v type="int" >       17 </v>
  </varray>
 </primitive_cell>
 <kpoints>
  <generation param="Gamma">
   <v type="int" name="divisions">       9        9        6 </v>
   <v name="usershift">      0.00000000       0.00000000       0.00000000 </v>
   <v name="genvec1">      0.11111111       0.00000000       0.00000000 </v>
   <v name="genvec2">      0.00000000       0.11111111       0.00000000 </v>
   <v name="genvec3">      0.00000000       0.00000000       0.16666667 </v>
   <v name="shift">      0.00000000       0.00000000       0.00000000 </v>
  </generation>
  <varray name="kpointlist" >
   <v>       0.00000000       0.00000000       0.00000000 </v>
   <v>       0.11111111       0.00000000       0.00000000 </v>
   <v>       0.22222222       0.00000000       0.00000000 </v>
   <v>       0.33333333       0.00000000       0.00000000 </v>
   <v>       0.44444444       0.00000000       0.00000000 </v>
   <v>       0.11111111       0.11111111       0.00000000 </v>
   <v>       0.22222222       0.11111111       0.00000000 </v>
   <v>       0.33333333       0.11111111       0.00000000 </v>
   <v>       0.44444444       0.11111111       0.00000000 </v>
   <v>       0.22222222       0.22222222       0.00000000 </v>
   <v>       0.33333333       0.22222222       0.00000000 </v>
   <v>       0.44444444       0.22222222       0.00000000 </v>
   <v>       0.33333333       0.33333333       0.00000000 </v>
   <v>       0.44444444       0.33333333       0.00000000 </v>
   <v>       0.44444444       0.44444444       0.00000000 </v>
   <v>       0.00000000       0.00000000       0.16666667 </v>
   <v>       0.11111111       0.00000000       0.16666667 </v>
   <v>       0.22222222       0.00000000       0.16666667 </v>
   <v>       0.33333333       0.00000000       0.16666667 </v>
   <v>       0.44444444       0.00000000       0.16666667 </v>
   <v>       0.11111111       0.11111111       0.16666667 </v>
   <v>       0.22222222       0.11111111       0.16666667 </v>
   <v>       0.33333333       0.11111111       0.16666667 </v>
   <v>       0.44444444       0.11111111       0.16666667 </v>
   <v>       0.22222222       0.22222222       0.16666667 </v>
   <v>       0.33333333       0.22222222       0.16666667 </v>
   <v>       0.44444444       0.22222222       0.16666667 </v>
   <v>       0.33333333       0.33333333       0.16666667 </v>
   <v>       0.44444444       0.33333333       0.16666667 </v>
   <v>       0.44444444       0.44444444       0.16666667 </v>
   <v>       0.00000000       0.00000000       0.33333333 </v>
   <v>       0.11111111       0.00000000       0.33333333 </v>
   <v>       0.22222222       0.00000000       0.33333333 </v>
   <v>       0.33333333       0.00000000       0.33333333 </v>
   <v>       0.44444444       0.00000000       0.33333333 </v>
   <v>       0.11111111       0.11111111       0.33333333 </v>
   <v>       0.22222222       0.11111111       0.33333333 </v>
   <v>       0.33333333       0.11111111       0.33333333 </v>
   <v>       0.44444444       0.11111111       0.33333333 </v>
   <v>       0.22222222       0.22222222       0.33333333 </v>
   <v>       0.33333333       0.22222222       0.33333333 </v>
   <v>       0.44444444       0.22222222       0.33333333 </v>
   <v>       0.33333333       0.33333333       0.33333333 </v>
   <v>       0.44444444       0.33333333       0.33333333 </v>
   <v>       0.44444444       0.44444444       0.33333333 </v>
   <v>       0.00000000       0.00000000       0.50000000 </v>
   <v>       0.11111111       0.00000000       0.50000000 </v>
   <v>       0.22222222       0.00000000       0.50000000 </v>
   <v>       0.33333333       0.00000000       0.50000000 </v>
   <v>       0.44444444       0.00000000       0.50000000 </v>
   <v>       0.11111111       0.11111111       0.50000000 </v>
   <v>       0.22222222       0.11111111       0.50000000 </v>
   <v>       0.33333333       0.11111111       0.50000000 </v>
   <v>       0.44444444       0.11111111       0.50000000 </v>
   <v>       0.22222222       0.22222222       0.50000000 </v>
   <v>       0.33333333       0.22222222       0.50000000 </v>
   <v>       0.44444444       0.22222222       0.50000000 </v>
   <v>       0.33333333       0.33333333       0.50000000 </v>
   <v>       0.44444444       0.33333333       0.50000000 </v>
   <v>       0.44444444       0.44444444       0.50000000 </v>
  </varray>
  <varray name="weights" >
   <v>       0.00205761 </v>
   <v>       0.00823045 </v>
   <v>       0.00823045 </v>
   <v>       0.00823045 </v>
   <v>       0.00823045 </v>
   <v>       0.00823045 </v>
   <v>       0.01646091 </v>
   <v>       0.01646091 </v>
   <v>       0.01646091 </v>
   <v>       0.00823045 </v>
   <v>       0.01646091 </v>
   <v>       0.01646091 </v>
   <v>       0.00823045 </v>
   <v>       0.01646091 </v>
   <v>       0.00823045 </v>
   <v>       0.00411523 </v>
   <v>       0.01646091 </v>
   <v>       0.01646091 </v>
   <v>       0.01646091 </v>
   <v>       0.01646091 </v>
   <v>       0.01646091 </v>
   <v>       0.03292181 </v>
   <v>       0.03292181 </v>
   <v>       0.03292181 </v>
   <v>       0.01646091 </v>
   <v>       0.03292181 </v>
   <v>       0.03292181 </v>
   <v>       0.01646091 </v>
   <v>       0.03292181 </v>
   <v>       0.01646091 </v>
   <v>       0.00411523 </v>
   <v>       0.01646091 </v>
   <v>       0.01646091 </v>
   <v>       0.01646091 </v>
   <v>       0.01646091 </v>
   <v>       0.01646091 </v>
   <v>       0.03292181 </v>
   <v>       0.03292181 </v>
   <v>       0.03292181 </v>
   <v>       0.01646091 </v>
   <v>       0.03292181 </v>
   <v>       0.03292181 </v>
   <v>       0.01646091 </v>
   <v>       0.03292181 </v>
   <v>       0.01646091 </v>
   <v>       0.00205761 </v>
   <v>       0.00823045 </v>
   <v>       0.00823045 </v>
   <v>       0.00823045 </v>
   <v>       0.00823045 </v>
   <v>       0.00823045 </v>
   <v>       0.01646091 </v>
   <v>       0.01646091 </v>
   <v>       0.01646091 </v>
   <v>       0.00823045 </v>
   <v>       0.01646091 </v>
   <v>       0.01646091 </v>
   <v>       0.00823045 </v>
   <v>       0.01646091 </v>
   <v>       0.00823045 </v>
  </varray>
 </kpoints>
 <parameters>
  <separator name="general" >
   <i type="string" name="SYSTEM">unknown system</i>
   <i type="logical" name="LCOMPAT"> F  </i>
  </separator>
  <separator name="electronic" >
   <i type="string" name="PREC">n</i>
   <i name="ENMAX">    600.00000000</i>
   <i name="ENAUG">    490.69000000</i>
   <i name="EDIFF">      0.00000100</i>
   <i type="int" name="IALGO">    38</i>
   <i type="int" name="IWAVPR">    11</i>
   <i type="int" name="NBANDS">   128</i>
   <i type="int" name="NBANDSLOW">    -1</i>
   <i type="int" name="NBANDSHIGH">    -1</i>
   <i name="NELECT">    124.00000000</i>
   <i type="int" name="TURBO">     0</i>
   <i type="int" name="IRESTART">     0</i>
   <i type="int" name="NREBOOT">     0</i>
   <i type="int" name="NMIN">     0</i>
   <i name="EREF">      0.00000000</i>
   <separator name="electronic smearing" >
    <i type="int" name="ISMEAR">     1</i>
    <i name="SIGMA">      0.20000000</i>
    <i name="KSPACING">      0.50000000</i>
    <i type="logical" name="KGAMMA"> T  </i>
    <i type="logical" name="KBLOWUP"> T  </i>
   </separator>
   <separator name="electronic projectors" >
    <i type="logical" name="LREAL"> F  </i>
    <v name="ROPT">      0.00000000      0.00000000      0.00000000</v>
    <i type="int" name="LMAXPAW">  -100</i>
    <i type="int" name="LMAXMIX">     4</i>
    <i type="logical" name="NLSPLINE"> F  </i>
   </separator>
   <separator name="electronic startup" >
    <i type="int" name="ISTART">     0</i>
    <i type="int" name="ICHARG">     2</i>
    <i type="int" name="INIWAV">     1</i>
   </separator>
   <separator name="electronic spin" >
    <i type="int" name="ISPIN">     1</i>
    <i type="logical" name="LNONCOLLINEAR"> F  </i>
    <v name="MAGMOM">      1.00000000      1.00000000      1.00000000      1.00000000      1.00000000      1.00000000      1.00000000      1.00000000      1.00000000      1.00000000      1.00000000      1.00000000      1.00000000      1.00000000      1.00000000      1.00000000      1.00000000      1.00000000      1.00000000      1.00000000
      1.00000000      1.00000000      1.00000000      1.00000000</v>
    <i name="NUPDOWN">     -1.00000000</i>
    <i type="logical" name="LSORBIT"> F  </i>
    <v name="SAXIS">      0.00000000      0.00000000      1.00000000</v>
    <i type="logical" name="LSPIRAL"> F  </i>
    <v name="QSPIRAL">      0.00000000      0.00000000      0.00000000</v>
    <i type="logical" name="LZEROZ"> F  </i>
   </separator>
   <separator name="electronic exchange-correlation" >
    <i type="logical" name="LASPH"> F  </i>
   </separator>
   <separator name="electronic convergence" >
    <i type="int" name="NELM">   500</i>
    <i type="int" name="NELMDL">    -5</i>
    <i type="int" name="NELMIN">     2</i>
    <i name="ENINI">    600.00000000</i>
    <separator name="electronic convergence detail" >
     <i type="logical" name="LDIAG"> T  </i>
     <i type="logical" name="LSUBROT"> F  </i>
     <i name="WEIMIN">      0.00100000</i>
     <i name="EBREAK">      0.00000000</i>
     <i name="DEPER">      0.30000000</i>
     <i type="int" name="NRMM">     4</i>
     <i name="TIME">      0.40000000</i>
    </separator>
   </separator>
   <separator name="electronic mixer" >
    <i name="AMIX">      0.40000000</i>
    <i name="BMIX">      1.00000000</i>
    <i name="AMIN">      0.10000000</i>
    <i name="AMIX_MAG">      1.60000000</i>
    <i name="BMIX_MAG">      1.00000000</i>
    <separator name="electronic mixer details" >
     <i type="int" name="IMIX">     4</i>
     <i type="logical" name="MIXFIRST"> F  </i>
     <i type="int" name="MAXMIX">   -45</i>
     <i name="WC">    100.00000000</i>
     <i type="int" name="INIMIX">     1</i>
     <i type="int" name="MIXPRE">     1</i>
     <i type="int" name="MREMOVE">     5</i>
    </separator>
   </separator>
   <separator name="electronic dipolcorrection" >
    <i type="logical" name="LDIPOL"> F  </i>
    <i type="logical" name="LMONO"> F  </i>
    <i type="int" name="IDIPOL">     0</i>
    <i name="EPSILON">      1.00000000</i>
    <v name="DIPOL">   -100.00000000   -100.00000000   -100.00000000</v>
    <i name="EFIELD">      0.00000000</i>
    <i type="logical" name="LVACPOTAV"> F  </i>
   </separator>
  </separator>
  <separator name="grids" >
   <i type="int" name="NGX">    36</i>
   <i type="int" name="NGY">    36</i>
   <i type="int" name="NGZ">    48</i>
   <i type="int" name="NGXF">    72</i>
   <i type="int" name="NGYF">    72</i>
   <i type="int" name="NGZF">    96</i>
   <i type="logical" name="ADDGRID"> F  </i>
  </separator>
  <separator name="ionic" >
   <i type="int" name="NSW">   325</i>
   <i type="int" name="IBRION">     6</i>
   <i type="int" name="MDALGO">     0</i>
   <i type="int" name="ISIF">     3</i>
   <i name="PSTRESS">      0.00000000</i>
   <i name="EDIFFG">     -0.00100000</i>
   <i type="int" name="NFREE">     2</i>
   <i name="POTIM">      0.01500000</i>
   <i name="SMASS">     -3.00000000</i>
   <i name="SCALEE">      1.00000000</i>
  </separator>
  <separator name="ionic md" >
   <i name="TEBEG">      0.00010000</i>
   <i name="TEEND">      0.00010000</i>
   <i type="int" name="NBLOCK">     1</i>
   <i type="int" name="KBLOCK">   325</i>
   <i type="int" name="NPACO">   256</i>
   <i name="APACO">     10.00000000</i>
  </separator>
  <separator name="symmetry" >
   <i type="int" name="ISYM">     2</i>
   <i name="SYMPREC">      0.00000100</i>
  </separator>
  <separator name="dos" >
   <i type="int" name="LORBIT">     0</i>
   <v name="RWIGS">     -1.00000000     -1.00000000     -1.00000000</v>
   <i type="int" name="NEDOS">   301</i>
   <i name="EMIN">     10.00000000</i>
   <i name="EMAX">    -10.00000000</i>
   <i name="EFERMI">      0.00000000</i>
  </separator>
  <separator name="writing" >
   <i type="int" name="NWRITE">     2</i>
   <i type="logical" name="LWAVE"> T  </i>
   <i type="logical" name="LDOWNSAMPLE"> F  </i>
   <i type="logical" name="LCHARG"> T  </i>
   <i type="logical" name="LPARD"> F  </i>
   <i type="logical" name="LVTOT"> F  </i>
   <i type="logical" name="LVHAR"> F  </i>
   <i type="logical" name="LELF"> F  </i>
   <i type="logical" name="LOPTICS"> F  </i>
   <v name="STM">      0.00000000      0.00000000      0.00000000      0.00000000      0.00000000      0.00000000      0.00000000</v>
  </separator>
  <separator name="performance" >
   <i type="int" name="NPAR">    64</i>
   <i type="int" name="NSIM">     4</i>
   <i type="int" name="NBLK">    -1</i>
   <i type="logical" name="LPLANE"> T  </i>
   <i type="logical" name="LSCALAPACK"> T  </i>
   <i type="logical" name="LSCAAWARE"> F  </i>
   <i type="logical" name="LSCALU"> F  </i>
   <i type="logical" name="LASYNC"> F  </i>
   <i type="logical" name="LORBITALREAL"> F  </i>
  </separator>
  <separator name="miscellaneous" >
   <i type="int" name="IDIOT">     3</i>
   <i type="int" name="PHON_NSTRUCT">    -1</i>
   <i type="logical" name="LMUSIC"> F  </i>
   <v name="POMASS">     47.88000000     26.98100000     69.72300000</v>
   <v name="DARWINR">      0.00000000      0.00000000      0.00000000</v>
   <v name="DARWINV">      1.00000000      1.00000000      1.00000000</v>
   <i type="logical" name="LCORR"> T  </i>
  </separator>
  <i type="logical" name="GGA_COMPAT"> T  </i>
  <i type="logical" name="LBERRY"> F  </i>
  <i type="int" name="ICORELEVEL">     0</i>
  <i type="logical" name="LDAU"> F  </i>
  <i type="int" name="I_CONSTRAINED_M">     0</i>
  <separator name="electronic exchange-correlation" >
   <i type="string" name="GGA    ">PE</i>
   <i type="string" name="XC_C">1</i>
   <i type="int" name="VOSKOWN">     0</i>
   <i type="logical" name="LHFCALC"> F  </i>
   <i type="string" name="PRECFOCK"></i>
   <i type="logical" name="LSYMGRAD"> F  </i>
   <i type="logical" name="LHFONE"> F  </i>
   <i type="logical" name="LRHFCALC"> F  </i>
   <i type="logical" name="LTHOMAS"> F  </i>
   <i type="logical" name="LMODELHF"> F  </i>
   <i type="logical" name="LFOCKACE"> F  </i>
   <i name="ENCUT4O">     -1.00000000</i>
   <i type="int" name="EXXOEP">     0</i>
   <i type="int" name="FOURORBIT">     0</i>
   <i name="AEXX">      0.00000000</i>
   <i name="HFALPHA">      0.00000000</i>
   <i name="MCALPHA">      0.00000000</i>
   <i name="ALDAX">      1.00000000</i>
   <i name="AGGAX">      1.00000000</i>
   <i name="AMGGAX">      1.00000000</i>
   <i name="ALDAC">      1.00000000</i>
   <i name="AGGAC">      1.00000000</i>
   <i name="AMGGAC">      1.00000000</i>
   <i type="int" name="NKREDX">     1</i>
   <i type="int" name="NKREDY">     1</i>
   <i type="int" name="NKREDZ">     1</i>
   <i type="logical" name="SHIFTRED"> F  </i>
   <i type="logical" name="ODDONLY"> F  </i>
   <i type="logical" name="EVENONLY"> F  </i>
   <i type="int" name="LMAXFOCK">     0</i>
   <i type="int" name="NMAXFOCKAE">     0</i>
   <i type="logical" name="LFOCKAEDFT"> F  </i>
   <i name="HFSCREEN">      0.00000000</i>
   <i name="HFSCREENC">      0.00000000</i>
   <i type="int" name="NBANDSGWLOW">     0</i>
  </separator>
  <separator name="vdW DFT" >
   <i type="logical" name="LUSE_VDW"> F  </i>
   <i type="int" name="IVDW_NL">    -1</i>
   <i type="logical" name="LSPIN_VDW"> F  </i>
   <i name="ZAB_VDW">     -0.84910000</i>
   <i name="GAMMA_VDW">      1.39626340</i>
   <i name="ALPHA_VDW">      0.00000000</i>
   <i name="PARAM1">      0.12340000</i>
   <i name="PARAM2">      1.00000000</i>
   <i name="BPARAM">      6.30000000</i>
   <i name="CPARAM">      0.00930000</i>
  </separator>
  <separator name="model GW" >
   <i type="int" name="MODEL_GW">     0</i>
   <i name="MODEL_EPS0">      6.20773902</i>
   <i name="MODEL_ALPHA">      1.00000000</i>
  </separator>
  <separator name="linear response parameters" >
   <i type="logical" name="LEPSILON"> F  </i>
   <i type="logical" name="LRPA"> F  </i>
   <i type="logical" name="LNABLA"> F  </i>
   <i type="logical" name="LVEL"> F  </i>
   <i name="CSHIFT">      0.10000000</i>
   <i name="OMEGAMAX">     -1.00000000</i>
   <i name="DEG_THRESHOLD">      0.00200000</i>
   <i name="RTIME">     -0.10000000</i>
   <i name="WPLASMAI">      0.00000000</i>
   <v name="DFIELD">      0.00000000      0.00000000      0.00000000</v>
   <v name="WPLASMA">      0.00000000      0.00000000      0.00000000      0.00000000      0.00000000      0.00000000      0.00000000      0.00000000      0.00000000</v>
  </separator>
  <separator name="orbital magnetization" >
   <i type="logical" name="NUCIND"> F  </i>
   <v name="MAGPOS">      0.00000000      0.00000000      0.00000000</v>
   <i type="logical" name="LNICSALL"> T  </i>
   <i type="logical" name="ORBITALMAG"> F  </i>
   <i type="logical" name="LMAGBLOCH"> F  </i>
   <i type="logical" name="LCHIMAG"> F  </i>
   <i type="logical" name="LGAUGE"> T  </i>
   <i type="int" name="MAGATOM">     0</i>
   <v name="MAGDIPOL">      0.00000000      0.00000000      0.00000000</v>
   <v name="AVECCONST">      0.00000000      0.00000000      0.00000000</v>
  </separator>
  <separator name="response functions" >
   <i type="logical" name="LALL_IN_ONE"> F  </i>
   <i type="int" name="IALL_IN_ONE">    -1</i>
   <i type="int" name="NBANDS_WAVE">    -1</i>
   <i type="logical" name="LFINITE_TEMPERATURE"> F  </i>
   <i type="logical" name="LADDER"> F  </i>
   <i type="logical" name="LRPAFORCE"> F  </i>
   <i type="logical" name="LFXC"> F  </i>
   <i type="logical" name="LHARTREE"> T  </i>
   <i type="int" name="IBSE">     2</i>
   <v type="int" name="KPOINT">    -1     0     0     0</v>
   <i type="logical" name="LTCTC"> F  </i>
   <i type="logical" name="LTCTE"> F  </i>
   <i type="logical" name="LTETE"> F  </i>
   <i type="logical" name="LTRIPLET"> F  </i>
   <i type="logical" name="LFXCEPS"> F  </i>
   <i type="logical" name="LFXHEG"> F  </i>
   <i type="int" name="NATURALO">     2</i>
   <i type="logical" name="LHOLEGF"> F  </i>
   <i type="logical" name="L2ORDER"> F  </i>
   <i type="logical" name="LDMP1"> F  </i>
   <i type="logical" name="LMP2LT"> F  </i>
   <i type="logical" name="LSMP2LT"> F  </i>
   <i type="logical" name="LGWLF"> F  </i>
   <i name="ENCUTGW">     -1.60000002</i>
   <i name="ENCUTGWSOFT">     -1.60000002</i>
   <i name="ENCUTLF">     -1.00000000</i>
   <i type="logical" name="ESF_SPLINES"> F  </i>
   <i name="ESF_CONV">      0.01000000</i>
   <i type="int" name="ESF_NINTER">    15</i>
   <i type="int" name="LMAXMP2">    -1</i>
   <i name="SCISSOR">      0.00000000</i>
   <i type="int" name="NOMEGA">     0</i>
   <i type="int" name="NOMEGAR">     0</i>
   <i type="int" name="NBANDSGW">    -1</i>
   <i type="int" name="NBANDSO">    -1</i>
   <i type="int" name="NBANDSV">    -1</i>
   <i type="int" name="NELMGW">     1</i>
   <i type="int" name="NELMHF">     1</i>
   <i type="int" name="DIM">     3</i>
   <i type="int" name="IESPILON">     4</i>
   <i type="int" name="ANTIRES">     0</i>
   <i name="OMEGAMAX">    -30.00000000</i>
   <i name="OMEGAMIN">    -30.00000000</i>
   <i name="OMEGATL">   -200.00000000</i>
   <i type="int" name="OMEGAGRID">     0</i>
   <i name="CSHIFT">     -0.10000000</i>
   <i type="logical" name="LSELFENERGY"> F  </i>
   <i type="logical" name="LSPECTRAL"> F  </i>
   <i type="logical" name="LSPECTRALGW"> F  </i>
   <i type="logical" name="LSINGLES"> F  </i>
   <i type="logical" name="LFERMIGW"> F  </i>
   <i type="logical" name="ODDONLYGW"> F  </i>
   <i type="logical" name="EVENONLYGW"> F  </i>
   <i type="int" name="NKREDLFX">     1</i>
   <i type="int" name="NKREDLFY">     1</i>
   <i type="int" name="NKREDLFZ">     1</i>
   <i type="int" name="MAXMEM">  2800</i>
   <i type="int" name="TELESCOPE">     0</i>
   <i type="int" name="NTAUPAR">    -1</i>
   <i type="int" name="NOMEGAPAR">    -1</i>
   <i name="DAMP_NEWTON">      0.80000001</i>
   <i name="LAMBDA">      1.00000000</i>
  </separator>
  <separator name="External order field" >
   <i name="OFIELD_KAPPA">      0.00000000</i>
   <v name="OFIELD_K">      0.00000000      0.00000000      0.00000000</v>
   <i name="OFIELD_Q6_NEAR">      0.00000000</i>
   <i name="OFIELD_Q6_FAR">      0.00000000</i>
   <i name="OFIELD_A">      0.00000000</i>
  </separator>
  <separator name="optional k-points parameters" >
   <i type="int" name="KPOINTS_OPT_MODE">     1</i>
   <i type="logical" name="LKPOINTS_OPT"> F  </i>
  </separator>
 </parameters>
 <atominfo>
  <atoms>      24 </atoms>
  <types>       3 </types>
  <array name="atoms" >
   <dimension dim="1">ion</dimension>
   <field type="string">element</field>
   <field type="int">atomtype</field>
   <set>
    <rc><c>Ti</c><c>   1</c></rc>
    <rc><c>Ti</c><c>   1</c></rc>
    <rc><c>Ti</c><c>   1</c></rc>
    <rc><c>Ti</c><c>   1</c></rc>
    <rc><c>Ti</c><c>   1</c></rc>
    <rc><c>Ti</c><c>   1</c></rc>
    <rc><c>Ti</c><c>   1</c></rc>
    <rc><c>Ti</c><c>   1</c></rc>
    <rc><c>Al</c><c>   2</c></rc>
    <rc><c>Al</c><c>   2</c></rc>
    <rc><c>Al</c><c>   2</c></rc>
    <rc><c>Al</c><c>   2</c></rc>
    <rc><c>Al</c><c>   2</c></rc>
    <rc><c>Al</c><c>   2</c></rc>
    <rc><c>Al</c><c>   2</c></rc>
    <rc><c>Al</c><c>   2</c></rc>
    <rc><c>Ga</c><c>   3</c></rc>
    <rc><c>Ga</c><c>   3</c></rc>
    <rc><c>Ga</c><c>   3</c></rc>
    <rc><c>Ga</c><c>   3</c></rc>
    <rc><c>Ga</c><c>   3</c></rc>
    <rc><c>Ga</c><c>   3</c></rc>
    <rc><c>Ga</c><c>   3</c></rc>
    <rc><c>Ga</c><c>   3</c></rc>
   </set>
  </array>
  <array name="atomtypes" >
   <dimension dim="1">type</dimension>
   <field type="int">atomspertype</field>
   <field type="string">element</field>
   <field>mass</field>
   <field>valence</field>
   <field type="string">pseudopotential</field>
   <set>
    <rc><c>   8</c><c>Ti</c><c>     47.88000000</c><c>     12.00000000</c><c>  PAW_PBE Ti_sv 26Sep2005               </c></rc>
    <rc><c>   8</c><c>Al</c><c>     26.98100000</c><c>      3.00000000</c><c>  PAW_PBE Al 04Jan2001                  </c></rc>
    <rc><c>   8</c><c>Ga</c><c>     69.72300000</c><c>     13.00000000</c><c>  PAW_PBE Ga_d 06Jul2010                </c></rc>
   </set>
  </array>
 </atominfo>
 <structure name="initialpos" >
  <crystal>
   <varray name="basis" >
    <v>       5.57149629       0.00000000       0.00000000 </v>
    <v>       0.00000000       5.57149629       0.00000000 </v>
    <v>       0.00000000       0.00000000       7.99925885 </v>
   </varray>
   <i name="volume">    248.30956067 </i>
   <varray name="rec_basis" >
    <v>       0.17948500       0.00000000       0.00000000 </v>
    <v>       0.00000000       0.17948500       0.00000000 </v>
    <v>       0.00000000       0.00000000       0.12501158 </v>
   </varray>
  </crystal>
  <varray name="positions" >
   <v>       0.00000000       0.00000000       0.00000000 </v>
   <v>       0.00000000       0.00000000       0.50000000 </v>
   <v>       0.00000000       0.50000000       0.00000000 </v>
   <v>       0.00000000       0.50000000       0.50000000 </v>
   <v>       0.50000000       0.00000000       0.00000000 </v>
   <v>       0.50000000       0.00000000       0.50000000 </v>
   <v>       0.50000000       0.50000000       0.00000000 </v>
   <v>       0.50000000       0.50000000       0.50000000 </v>
   <v>       0.25000000       0.25000000       0.25000000 </v>
   <v>       0.25000000       0.25000000       0.75000000 </v>
   <v>       0.25000000       0.75000000       0.25000000 </v>
   <v>       0.25000000       0.75000000       0.75000000 </v>
   <v>       0.75000000       0.25000000       0.25000000 </v>
   <v>       0.75000000       0.25000000       0.75000000 </v>
   <v>       0.75000000       0.75000000       0.25000000 </v>
   <v>       0.75000000       0.75000000       0.75000000 </v>
   <v>       0.25000000       0.25000000       0.25000000 </v>
   <v>       0.25000000       0.25000000       0.75000000 </v>
   <v>       0.25000000       0.75000000       0.25000000 </v>
   <v>       0.25000000       0.75000000       0.75000000 </v>
   <v>       0.75000000       0.25000000       0.25000000 </v>
   <v>       0.75000000       0.25000000       0.75000000 </v>
   <v>       0.75000000       0.75000000       0.25000000 </v>
   <v>       0.75000000       0.75000000       0.75000000 </v>
  </varray>
 </structure>
 <calculation>
  <scstep>
   <time name="dav">    8.44    8.44</time>
   <time name="total">    8.46    8.46</time>
   <energy>
    <i name="alphaZ">    347.49013038 </i>
    <i name="ewald">  -9268.44051243 </i>
    <i name="hartreedc">  -3966.88842533 </i>
    <i name="XCdc">    300.93285750 </i>
    <i name="pawpsdc">  11260.90501008 </i>
    <i name="pawaedc"> -10994.79263990 </i>
    <i name="eentropy">     -0.00347520 </i>
    <i name="bandstr">   -218.98408691 </i>
    <i name="atom">  13971.11607216 </i>
    <i name="e_fr_energy">   1431.33493035 </i>
    <i name="e_wo_entrp">   1431.33840555 </i>
    <i name="e_0_energy">   1431.33608875 </i>
   </energy>
  </scstep>
  <scstep>
   <time name="dav">    8.54    8.54</time>
   <time name="total">    8.54    8.54</time>
   <energy>
    <i name="e_fr_energy">    408.74294414 </i>
    <i name="e_wo_entrp">    408.74819725 </i>
    <i name="e_0_energy">    408.74469517 </i>
   </energy>
  </scstep>
  <scstep>
   <time name="dav">   24.28   24.28</time>
   <time name="total">   24.28   24.28</time>
   <energy>
    <i name="e_fr_energy">    328.40118036 </i>
    <i name="e_wo_entrp">    328.40011251 </i>
    <i name="e_0_energy">    328.40082441 </i>
   </energy>
  </scstep>
  <scstep>
   <time name="dav">    8.53    8.53</time>
   <time name="total">    8.53    8.53</time>
   <energy>
    <i name="e_fr_energy">    325.39648655 </i>
    <i name="e_wo_entrp">    325.39673544 </i>
    <i name="e_0_energy">    325.39656951 </i>
   </energy>
  </scstep>
  <scstep>
   <time name="dav">   19.30   19.30</time>
   <time name="total">   19.39   19.39</time>
   <energy>
    <i name="e_fr_energy">    325.23146138 </i>
    <i name="e_wo_entrp">    325.23179874 </i>
    <i name="e_0_energy">    325.23157383 </i>
   </energy>
  </scstep>
  <scstep>
   <time name="dav">   16.61   16.62</time>
   <time name="total">   16.72   16.72</time>
   <energy>
    <i name="e_fr_energy">    -33.77438552 </i>
    <i name="e_wo_entrp">    -33.68639455 </i>
    <i name="e_0_energy">    -33.74505520 </i>
   </energy>
  </scstep>
  <scstep>
   <time name="dav">   22.60   22.60</time>
   <time name="total">   22.71   22.71</time>
   <energy>
    <i name="e_fr_energy">    367.65128281 </i>
    <i name="e_wo_entrp">    367.64095564 </i>
    <i name="e_0_energy">    367.64784042 </i>
   </energy>
  </scstep>
  <scstep>
   <time name="dav">   12.23   12.23</time>
   <time name="total">   12.33   12.33</time>
   <energy>
    <i name="e_fr_energy">    360.62152924 </i>
    <i name="e_wo_entrp">    360.62267490 </i>
    <i name="e_0_energy">    360.62191113 </i>
   </energy>
  </scstep>
  <scstep>
   <time name="dav">   15.47   15.47</time>
   <time name="total">   15.58   15.58</time>
   <energy>
    <i name="e_fr_energy">    368.24657423 </i>
    <i name="e_wo_entrp">    368.24748128 </i>
    <i name="e_0_energy">    368.24687658 </i>
   </energy>
  </scstep>
  <scstep>
   <time name="dav">   14.05   14.05</time>
   <time name="total">   14.15   14.15</time>
   <energy>
    <i name="e_fr_energy">    367.30460410 </i>
    <i name="e_wo_entrp">    367.20850125 </i>
    <i name="e_0_energy">    367.27256982 </i>
   </energy>
  </scstep>
  <scstep>
   <time name="dav">   13.48   13.48</time>
   <time name="total">   13.58   13.58</time>
   <energy>
    <i name="e_fr_energy">    365.92664323 </i>
    <i name="e_wo_entrp">    365.84554943 </i>
    <i name="e_0_energy">    365.89961196 </i>
   </energy>
  </scstep>
  <scstep>
   <time name="dav">   11.37   11.37</time>
   <time name="total">   11.47   11.47</time>
   <energy>
    <i name="e_fr_energy">    365.74266500 </i>
    <i name="e_wo_entrp">    365.68669685 </i>
    <i name="e_0_energy">    365.72400895 </i>
   </energy>
  </scstep>
  <scstep>
   <time name="dav">   13.22   13.22</time>
   <time name="total">   13.32   13.32</time>
   <energy>
    <i name="e_fr_energy">    365.29879305 </i>
    <i name="e_wo_entrp">    365.27285732 </i>
    <i name="e_0_energy">    365.29014781 </i>
   </energy>
  </scstep>
  <scstep>
   <time name="dav">   13.07   13.07</time>
   <time name="total">   13.17   13.18</time>
   <energy>
    <i name="e_fr_energy">    367.31123914 </i>
    <i name="e_wo_entrp">    367.22972611 </i>
    <i name="e_0_energy">    367.28406813 </i>
   </energy>
  </scstep>
  <scstep>
   <time name="dav">   13.34   13.35</time>
   <time name="total">   13.45   13.45</time>
   <energy>
    <i name="e_fr_energy">    369.36046833 </i>
    <i name="e_wo_entrp">    369.31781966 </i>
    <i name="e_0_energy">    369.34625211 </i>
   </energy>
  </scstep>
  <scstep>
   <time name="dav">   10.62   10.62</time>
   <time name="total">   10.73   10.73</time>
   <energy>
    <i name="e_fr_energy">    369.31328894 </i>
    <i name="e_wo_entrp">    369.25477956 </i>
    <i name="e_0_energy">    369.29378582 </i>
   </energy>
  </scstep>
  <scstep>
   <time name="dav">   15.20   15.20</time>
   <time name="total">   15.30   15.31</time>
   <energy>
    <i name="e_fr_energy">    369.36245859 </i>
    <i name="e_wo_entrp">    369.29210950 </i>
    <i name="e_0_energy">    369.33900890 </i>
   </energy>
  </scstep>
  <scstep>
   <time name="dav">   12.49   12.49</time>
   <time name="total">   12.59   12.59</time>
   <energy>
    <i name="e_fr_energy">    369.65479082 </i>
    <i name="e_wo_entrp">    369.58386482 </i>
    <i name="e_0_energy">    369.63114882 </i>
   </energy>
  </scstep>
  <scstep>
   <time name="dav">   16.27   16.27</time>
   <time name="total">   16.38   16.38</time>
   <energy>
    <i name="e_fr_energy">    369.66358003 </i>
    <i name="e_wo_entrp">    369.58392056 </i>
    <i name="e_0_energy">    369.63702687 </i>
   </energy>
  </scstep>
  <scstep>
   <time name="dav">   11.85   11.85</time>
   <time name="total">   11.95   11.95</time>
   <energy>
    <i name="e_fr_energy">    369.66412285 </i>
    <i name="e_wo_entrp">    369.58205847 </i>
    <i name="e_0_energy">    369.63676806 </i>
   </energy>
  </scstep>
  <scstep>
   <time name="dav">   16.25   16.25</time>
   <time name="total">   16.35   16.35</time>
   <energy>
    <i name="e_fr_energy">    369.66738031 </i>
    <i name="e_wo_entrp">    369.59943580 </i>
    <i name="e_0_energy">    369.64473214 </i>
   </energy>
  </scstep>
  <scstep>
   <time name="dav">   14.27   14.27</time>
   <time name="total">   14.38   14.38</time>
   <energy>
    <i name="e_fr_energy">    369.66783190 </i>
    <i name="e_wo_entrp">    369.60007313 </i>
    <i name="e_0_energy">    369.64524564 </i>
   </energy>
  </scstep>
  <scstep>
   <time name="dav">   15.48   15.48</time>
   <time name="total">   15.58   15.58</time>
   <energy>
    <i name="e_fr_energy">    369.66792170 </i>
    <i name="e_wo_entrp">    369.60120988 </i>
    <i name="e_0_energy">    369.64568443 </i>
   </energy>
  </scstep>
  <scstep>
   <time name="dav">   14.84   14.84</time>
   <time name="total">   14.94   14.94</time>
   <energy>
    <i name="e_fr_energy">    369.66799557 </i>
    <i name="e_wo_entrp">    369.59980280 </i>
    <i name="e_0_energy">    369.64526464 </i>
   </energy>
  </scstep>
  <scstep>
   <time name="dav">   12.90   12.90</time>
   <time name="total">   13.00   13.00</time>
   <energy>
    <i name="e_fr_energy">    369.66800366 </i>
    <i name="e_wo_entrp">    369.59953481 </i>
    <i name="e_0_energy">    369.64518071 </i>
   </energy>
  </scstep>
  <scstep>
   <time name="dav">   12.10   12.11</time>
   <time name="total">   12.21   12.21</time>
   <energy>
    <i name="e_fr_energy">    369.66800145 </i>
    <i name="e_wo_entrp">    369.59898103 </i>
    <i name="e_0_energy">    369.64499465 </i>
   </energy>
  </scstep>
  <scstep>
   <time name="dav">   14.17   14.17</time>
   <time name="total">   14.27   14.27</time>
   <energy>
    <i name="e_fr_energy">    369.66800617 </i>
    <i name="e_wo_entrp">    369.59927758 </i>
    <i name="e_0_energy">    369.64509664 </i>
   </energy>
  </scstep>
  <scstep>
   <time name="dav">    8.60    8.60</time>
   <time name="total">    8.61    8.61</time>
   <energy>
    <i name="alphaZ">    347.49013038 </i>
    <i name="ewald">  -9268.44051243 </i>
    <i name="hartreedc">  -3738.88550001 </i>
    <i name="XCdc">    291.52091003 </i>
    <i name="pawpsdc">  13561.75923883 </i>
    <i name="pawaedc"> -13211.58846678 </i>
    <i name="eentropy">      0.06869761 </i>
    <i name="bandstr">  -1583.37256290 </i>
    <i name="atom">  13971.11607216 </i>
    <i name="e_fr_energy">    369.66800689 </i>
    <i name="e_wo_entrp">    369.59930928 </i>
    <i name="e_0_energy">    369.64510769 </i>
   </energy>
  </scstep>
  <structure>
   <crystal>
    <varray name="basis" >
     <v>       5.57149629       0.00000000       0.00000000 </v>
     <v>       0.00000000       5.57149629       0.00000000 </v>
     <v>       0.00000000       0.00000000       7.99925885 </v>
    </varray>
    <i name="volume">    248.30956067 </i>
    <varray name="rec_basis" >
     <v>       0.17948500       0.00000000       0.00000000 </v>
     <v>       0.00000000       0.17948500       0.00000000 </v>
     <v>       0.00000000       0.00000000       0.12501158 </v>
    </varray>
   </crystal>
   <varray name="positions" >
    <v>       0.00000000       0.00000000       0.00000000 </v>
    <v>       0.00000000       0.00000000       0.50000000 </v>
    <v>       0.00000000       0.50000000       0.00000000 </v>
    <v>       0.00000000       0.50000000       0.50000000 </v>
    <v>       0.50000000       0.00000000       0.00000000 </v>
    <v>       0.50000000       0.00000000       0.50000000 </v>
    <v>       0.50000000       0.50000000       0.00000000 </v>
    <v>       0.50000000       0.50000000       0.50000000 </v>
    <v>       0.25000000       0.25000000       0.25000000 </v>
    <v>       0.25000000       0.25000000       0.75000000 </v>
    <v>       0.25000000       0.75000000       0.25000000 </v>
    <v>       0.25000000       0.75000000       0.75000000 </v>
    <v>       0.75000000       0.25000000       0.25000000 </v>
    <v>       0.75000000       0.25000000       0.75000000 </v>
    <v>       0.75000000       0.75000000       0.25000000 </v>
    <v>       0.75000000       0.75000000       0.75000000 </v>
    <v>       0.25000000       0.25000000       0.25000000 </v>
    <v>       0.25000000       0.25000000       0.75000000 </v>
    <v>       0.25000000       0.75000000       0.25000000 </v>
    <v>       0.25000000       0.75000000       0.75000000 </v>
    <v>       0.75000000       0.25000000       0.25000000 </v>
    <v>       0.75000000       0.25000000       0.75000000 </v>
    <v>       0.75000000       0.75000000       0.25000000 </v>
    <v>       0.75000000       0.75000000       0.75000000 </v>
   </varray>
  </structure>
  <varray name="forces" >
   <v>       0.00000000       0.00000000      -0.00000000 </v>
   <v>      -0.00000000      -0.00000000      -0.00000000 </v>
   <v>       0.00000000      -0.00000000      -0.00000000 </v>
   <v>      -0.00000000       0.00000000       0.00000000 </v>
   <v>       0.00000000       0.00000000      -0.00000000 </v>
   <v>       0.00000000      -0.00000000       0.00000000 </v>
   <v>      -0.00000000      -0.00000000       0.00000000 </v>
   <v>       0.00000000      -0.00000000      -0.00000000 </v>
   <v>       0.00000000       0.00000000       0.00000000 </v>
   <v>       0.00000000       0.00000000      -0.00000000 </v>
   <v>      -0.00000000       0.00000000      -0.00000000 </v>
   <v>      -0.00000000      -0.00000000      -0.00000000 </v>
   <v>       0.00000000       0.00000000       0.00000000 </v>
   <v>      -0.00000000       0.00000000      -0.00000000 </v>
   <v>       0.00000000      -0.00000000       0.00000000 </v>
   <v>      -0.00000000      -0.00000000       0.00000000 </v>
   <v>      -0.00000000       0.00000000      -0.00000000 </v>
   <v>      -0.00000000       0.00000000      -0.00000000 </v>
   <v>      -0.00000000       0.00000000      -0.00000000 </v>
   <v>      -0.00000000       0.00000000       0.00000000 </v>
   <v>      -0.00000000       0.00000000      -0.00000000 </v>
   <v>      -0.00000000       0.00000000       0.00000000 </v>
   <v>      -0.00000000       0.00000000      -0.00000000 </v>
   <v>      -0.00000000       0.00000000      -0.00000000 </v>
  </varray>
  <varray name="stress" >
   <v>       0.50556105       0.00000000       0.00000000 </v>
   <v>       0.00000000       0.50556105       0.00000000 </v>
   <v>       0.00000000       0.00000000      -0.05543832 </v>
  </varray>
  <energy>
   <i name="e_fr_energy">    369.66800689 </i>
   <i name="e_wo_entrp">    369.59930928 </i>
   <i name="e_0_energy">    369.64510769 </i>
  </energy>
  <kpoints>
   <generation param="Gamma">
    <v type="int" name="divisions">       9        9        6 </v>
    <v name="usershift">      0.00000000       0.00000000       0.00000000 </v>
    <v name="genvec1">      0.11111111       0.00000000       0.00000000 </v>
    <v name="genvec2">      0.00000000       0.11111111       0.00000000 </v>
    <v name="genvec3">      0.00000000       0.00000000       0.16666667 </v>
    <v name="shift">      0.00000000       0.00000000       0.00000000 </v>
   </generation>
   <varray name="kpointlist" >
    <v>       0.00000000       0.00000000       0.00000000 </v>
    <v>       0.11111111       0.00000000       0.00000000 </v>
    <v>       0.22222222       0.00000000       0.00000000 </v>
    <v>       0.33333333       0.00000000       0.00000000 </v>
    <v>       0.44444444       0.00000000       0.00000000 </v>
    <v>       0.00000000       0.11111111       0.00000000 </v>
    <v>       0.11111111       0.11111111       0.00000000 </v>
    <v>       0.22222222       0.11111111       0.00000000 </v>
    <v>       0.33333333       0.11111111       0.00000000 </v>
    <v>       0.44444444       0.11111111       0.00000000 </v>
    <v>       0.00000000       0.22222222       0.00000000 </v>
    <v>       0.11111111       0.22222222       0.00000000 </v>
    <v>       0.22222222       0.22222222       0.00000000 </v>
    <v>       0.33333333       0.22222222       0.00000000 </v>
    <v>       0.44444444       0.22222222       0.00000000 </v>
    <v>       0.00000000       0.33333333       0.00000000 </v>
    <v>       0.11111111       0.33333333       0.00000000 </v>
    <v>       0.22222222       0.33333333       0.00000000 </v>
    <v>       0.33333333       0.33333333       0.00000000 </v>
    <v>       0.44444444       0.33333333       0.00000000 </v>
    <v>       0.00000000       0.44444444       0.00000000 </v>
    <v>       0.11111111       0.44444444       0.00000000 </v>
    <v>       0.22222222       0.44444444       0.00000000 </v>
    <v>       0.33333333       0.44444444       0.00000000 </v>
    <v>       0.44444444       0.44444444       0.00000000 </v>
    <v>       0.00000000       0.00000000       0.16666667 </v>
    <v>       0.11111111       0.00000000       0.16666667 </v>
    <v>       0.22222222       0.00000000       0.16666667 </v>
    <v>       0.33333333       0.00000000       0.16666667 </v>
    <v>       0.44444444       0.00000000       0.16666667 </v>
    <v>       0.00000000       0.11111111       0.16666667 </v>
    <v>       0.11111111       0.11111111       0.16666667 </v>
    <v>       0.22222222       0.11111111       0.16666667 </v>
    <v>       0.33333333       0.11111111       0.16666667 </v>
    <v>       0.44444444       0.11111111       0.16666667 </v>
    <v>       0.00000000       0.22222222       0.16666667 </v>
    <v>       0.11111111       0.22222222       0.16666667 </v>
    <v>       0.22222222       0.22222222       0.16666667 </v>
    <v>       0.33333333       0.22222222       0.16666667 </v>
    <v>       0.44444444       0.22222222       0.16666667 </v>
    <v>       0.00000000       0.33333333       0.16666667 </v>
    <v>       0.11111111       0.33333333       0.16666667 </v>
    <v>       0.22222222       0.33333333       0.16666667 </v>
    <v>       0.33333333       0.33333333       0.16666667 </v>
    <v>       0.44444444       0.33333333       0.16666667 </v>
    <v>       0.00000000       0.44444444       0.16666667 </v>
    <v>       0.11111111       0.44444444       0.16666667 </v>
    <v>       0.22222222       0.44444444       0.16666667 </v>
    <v>       0.33333333       0.44444444       0.16666667 </v>
    <v>       0.44444444       0.44444444       0.16666667 </v>
    <v>       0.00000000       0.00000000       0.33333333 </v>
    <v>       0.11111111       0.00000000       0.33333333 </v>
    <v>       0.22222222       0.00000000       0.33333333 </v>
    <v>       0.33333333       0.00000000       0.33333333 </v>
    <v>       0.44444444       0.00000000       0.33333333 </v>
    <v>       0.00000000       0.11111111       0.33333333 </v>
    <v>       0.11111111       0.11111111       0.33333333 </v>
    <v>       0.22222222       0.11111111       0.33333333 </v>
    <v>       0.33333333       0.11111111       0.33333333 </v>
    <v>       0.44444444       0.11111111       0.33333333 </v>
    <v>       0.00000000       0.22222222       0.33333333 </v>
    <v>       0.11111111       0.22222222       0.33333333 </v>
    <v>       0.22222222       0.22222222       0.33333333 </v>
    <v>       0.33333333       0.22222222       0.33333333 </v>
    <v>       0.44444444       0.22222222       0.33333333 </v>
    <v>       0.00000000       0.33333333       0.33333333 </v>
    <v>       0.11111111       0.33333333       0.33333333 </v>
    <v>       0.22222222       0.33333333       0.33333333 </v>
    <v>       0.33333333       0.33333333       0.33333333 </v>
    <v>       0.44444444       0.33333333       0.33333333 </v>
    <v>       0.00000000       0.44444444       0.33333333 </v>
    <v>       0.11111111       0.44444444       0.33333333 </v>
    <v>       0.22222222       0.44444444       0.33333333 </v>
    <v>       0.33333333       0.44444444       0.33333333 </v>
    <v>       0.44444444       0.44444444       0.33333333 </v>
    <v>       0.00000000       0.00000000       0.50000000 </v>
    <v>       0.11111111       0.00000000       0.50000000 </v>
    <v>       0.22222222       0.00000000       0.50000000 </v>
    <v>       0.33333333       0.00000000       0.50000000 </v>
    <v>       0.44444444       0.00000000       0.50000000 </v>
    <v>       0.00000000       0.11111111       0.50000000 </v>
    <v>       0.11111111       0.11111111       0.50000000 </v>
    <v>       0.22222222       0.11111111       0.50000000 </v>
    <v>       0.33333333       0.11111111       0.50000000 </v>
    <v>       0.44444444       0.11111111       0.50000000 </v>
    <v>       0.00000000       0.22222222       0.50000000 </v>
    <v>       0.11111111       0.22222222       0.50000000 </v>
    <v>       0.22222222       0.22222222       0.50000000 </v>
    <v>       0.33333333       0.22222222       0.50000000 </v>
    <v>       0.44444444       0.22222222       0.50000000 </v>
    <v>       0.00000000       0.33333333       0.50000000 </v>
    <v>       0.11111111       0.33333333       0.50000000 </v>
    <v>       0.22222222       0.33333333       0.50000000 </v>
    <v>       0.33333333       0.33333333       0.50000000 </v>
    <v>       0.44444444       0.33333333       0.50000000 </v>
    <v>       0.00000000       0.44444444       0.50000000 </v>
    <v>       0.11111111       0.44444444       0.50000000 </v>
    <v>       0.22222222       0.44444444       0.50000000 </v>
    <v>       0.33333333       0.44444444       0.50000000 </v>
    <v>       0.44444444       0.44444444       0.50000000 </v>
   </varray>
   <varray name="weights" >
    <v>       0.00205761 </v>
    <v>       0.00411523 </v>
    <v>       0.00411523 </v>
    <v>       0.00411523 </v>
    <v>       0.00411523 </v>
    <v>       0.00411523 </v>
    <v>       0.00823045 </v>
    <v>       0.00823045 </v>
    <v>       0.00823045 </v>
    <v>       0.00823045 </v>
    <v>       0.00411523 </v>
    <v>       0.00823045 </v>
    <v>       0.00823045 </v>
    <v>       0.00823045 </v>
    <v>       0.00823045 </v>
    <v>       0.00411523 </v>
    <v>       0.00823045 </v>
    <v>       0.00823045 </v>
    <v>       0.00823045 </v>
    <v>       0.00823045 </v>
    <v>       0.00411523 </v>
    <v>       0.00823045 </v>
    <v>       0.00823045 </v>
    <v>       0.00823045 </v>
    <v>       0.00823045 </v>
    <v>       0.00411523 </v>
    <v>       0.00823045 </v>
    <v>       0.00823045 </v>
    <v>       0.00823045 </v>
    <v>       0.00823045 </v>
    <v>       0.00823045 </v>
    <v>       0.01646091 </v>
    <v>       0.01646091 </v>
    <v>       0.01646091 </v>
    <v>       0.01646091 </v>
    <v>       0.00823045 </v>
    <v>       0.01646091 </v>
    <v>       0.01646091 </v>
    <v>       0.01646091 </v>
    <v>       0.01646091 </v>
    <v>       0.00823045 </v>
    <v>       0.01646091 </v>
    <v>       0.01646091 </v>
    <v>       0.01646091 </v>
    <v>       0.01646091 </v>
    <v>       0.00823045 </v>
    <v>       0.01646091 </v>
    <v>       0.01646091 </v>
    <v>       0.01646091 </v>
    <v>       0.01646091 </v>
    <v>       0.00411523 </v>
    <v>       0.00823045 </v>
    <v>       0.00823045 </v>
    <v>       0.00823045 </v>
    <v>       0.00823045 </v>
    <v>       0.00823045 </v>
    <v>       0.01646091 </v>
    <v>       0.01646091 </v>
    <v>       0.01646091 </v>
    <v>       0.01646091 </v>
    <v>       0.00823045 </v>
    <v>       0.01646091 </v>
    <v>       0.01646091 </v>
    <v>       0.01646091 </v>
    <v>       0.01646091 </v>
    <v>       0.00823045 </v>
    <v>       0.01646091 </v>
    <v>       0.01646091 </v>
    <v>       0.01646091 </v>
    <v>       0.01646091 </v>
    <v>       0.00823045 </v>
    <v>       0.01646091 </v>
    <v>       0.01646091 </v>
    <v>       0.01646091 </v>
    <v>       0.01646091 </v>
    <v>       0.00205761 </v>
    <v>       0.00411523 </v>
    <v>       0.00411523 </v>
    <v>       0.00411523 </v>
    <v>       0.00411523 </v>
    <v>       0.00411523 </v>
    <v>       0.00823045 </v>
    <v>       0.00823045 </v>
    <v>       0.00823045 </v>
    <v>       0.00823045 </v>
    <v>       0.00411523 </v>
    <v>       0.00823045 </v>
    <v>       0.00823045 </v>
    <v>       0.00823045 </v>
    <v>       0.00823045 </v>
    <v>       0.00411523 </v>
    <v>       0.00823045 </v>
    <v>       0.00823045 </v>
    <v>       0.00823045 </v>
    <v>       0.00823045 </v>
    <v>       0.00411523 </v>
    <v>       0.00823045 </v>
    <v>       0.00823045 </v>
    <v>       0.00823045 </v>
    <v>       0.00823045 </v>
   </varray>
  </kpoints>
  <time name="totalsc">  402.92  402.94</time>
 </calculation>
 <calculation>
  <scstep>
   <time name="dav">   14.60   14.60</time>
   <time name="total">   14.75   14.75</time>
   <energy>
    <i name="alphaZ">    342.35480825 </i>
    <i name="ewald">  -9229.83691012 </i>
    <i name="hartreedc">  -3713.93675751 </i>
    <i name="XCdc">    289.02013125 </i>
    <i name="pawpsdc">  13561.83783884 </i>
    <i name="pawaedc"> -13211.67083676 </i>
    <i name="eentropy">      0.05182630 </i>
    <i name="bandstr">  -1639.34570884 </i>
    <i name="atom">  13971.11607216 </i>
    <i name="e_fr_energy">    369.59046357 </i>
    <i name="e_wo_entrp">    369.53863727 </i>
    <i name="e_0_energy">    369.57318813 </i>
   </energy>
  </scstep>
  <scstep>
   <time name="dav">   27.91   27.91</time>
   <time name="total">   28.06   28.07</time>
   <energy>
    <i name="e_fr_energy">    328.53045585 </i>
    <i name="e_wo_entrp">    329.76876604 </i>
    <i name="e_0_energy">    328.94322591 </i>
   </energy>
  </scstep>
  <scstep>
   <time name="dav">   24.66   24.67</time>
   <time name="total">   24.82   24.83</time>
   <energy>
    <i name="e_fr_energy">    365.85236492 </i>
    <i name="e_wo_entrp">    365.84958487 </i>
    <i name="e_0_energy">    365.85143824 </i>
   </energy>
  </scstep>
  <scstep>
   <time name="dav">   30.51   30.52</time>
   <time name="total">   30.67   30.68</time>
   <energy>
    <i name="e_fr_energy">    361.67613997 </i>
    <i name="e_wo_entrp">    361.67675724 </i>
    <i name="e_0_energy">    361.67634573 </i>
   </energy>
  </scstep>
  <scstep>
   <time name="dav">   25.54   25.54</time>
   <time name="total">   25.70   25.70</time>
   <energy>
    <i name="e_fr_energy">    364.76892200 </i>
    <i name="e_wo_entrp">    364.77106054 </i>
    <i name="e_0_energy">    364.76963485 </i>
   </energy>
  </scstep>
  <scstep>
   <time name="dav">   23.32   23.33</time>
   <time name="total">   23.48   23.48</time>
   <energy>
    <i name="e_fr_energy">    369.13315444 </i>
    <i name="e_wo_entrp">    369.13459842 </i>
    <i name="e_0_energy">    369.13363576 </i>
   </energy>
  </scstep>
  <scstep>
   <time name="dav">   21.32   21.32</time>
   <time name="total">   21.47   21.48</time>
   <energy>
    <i name="e_fr_energy">    369.44874754 </i>
    <i name="e_wo_entrp">    369.44878236 </i>
    <i name="e_0_energy">    369.44875915 </i>
   </energy>
  </scstep>
  <scstep>
   <time name="dav">   25.70   25.71</time>
   <time name="total">   25.86   25.86</time>
   <energy>
    <i name="e_fr_energy">    369.73935467 </i>
    <i name="e_wo_entrp">    369.73442012 </i>
    <i name="e_0_energy">    369.73770982 </i>
   </energy>
  </scstep>
  <scstep>
   <time name="dav">   23.56   23.57</time>
   <time name="total">   23.72   23.72</time>
   <energy>
    <i name="e_fr_energy">    369.80277942 </i>
    <i name="e_wo_entrp">    369.79676544 </i>
    <i name="e_0_energy">    369.80077476 </i>
   </energy>
  </scstep>
  <scstep>
   <time name="dav">   22.24   22.24</time>
   <time name="total">   22.40   22.40</time>
   <energy>
    <i name="e_fr_energy">    370.00925204 </i>
    <i name="e_wo_entrp">    369.85732376 </i>
    <i name="e_0_energy">    369.95860928 </i>
   </energy>
  </scstep>
  <scstep>
   <time name="dav">   26.31   26.31</time>
   <time name="total">   26.46   26.47</time>
   <energy>
    <i name="e_fr_energy">    370.02171028 </i>
    <i name="e_wo_entrp">    370.00085185 </i>
    <i name="e_0_energy">    370.01475747 </i>
   </energy>
  </scstep>
  <scstep>
   <time name="dav">   24.05   24.05</time>
   <time name="total">   24.20   24.20</time>
   <energy>
    <i name="e_fr_energy">    370.01328282 </i>
    <i name="e_wo_entrp">    369.84278701 </i>
    <i name="e_0_energy">    369.95645088 </i>
   </energy>
  </scstep>
  <scstep>
   <time name="dav">   25.71   25.72</time>
   <time name="total">   25.87   25.87</time>
   <energy>
    <i name="e_fr_energy">    370.12261453 </i>
    <i name="e_wo_entrp">    370.02029697 </i>
    <i name="e_0_energy">    370.08850868 </i>
   </energy>
  </scstep>
  <scstep>
   <time name="dav">   25.51   25.51</time>
   <time name="total">   25.67   25.67</time>
   <energy>
    <i name="e_fr_energy">    370.11522426 </i>
    <i name="e_wo_entrp">    370.06709554 </i>
    <i name="e_0_energy">    370.09918135 </i>
   </energy>
  </scstep>
  <scstep>
   <time name="dav">   25.86   25.86</time>
   <time name="total">   26.02   26.02</time>
   <energy>
    <i name="e_fr_energy">    370.13031469 </i>
    <i name="e_wo_entrp">    370.06543873 </i>
    <i name="e_0_energy">    370.10868937 </i>
   </energy>
  </scstep>
  <scstep>
   <time name="dav">   22.71   22.72</time>
   <time name="total">   22.87   22.88</time>
   <energy>
    <i name="e_fr_energy">    370.13194257 </i>
    <i name="e_wo_entrp">    370.06005177 </i>
    <i name="e_0_energy">    370.10797897 </i>
   </energy>
  </scstep>
  <scstep>
   <time name="dav">   21.07   21.08</time>
   <time name="total">   21.23   21.23</time>
   <energy>
    <i name="e_fr_energy">    370.13191022 </i>
    <i name="e_wo_entrp">    370.06129673 </i>
    <i name="e_0_energy">    370.10837239 </i>
   </energy>
  </scstep>
  <scstep>
   <time name="dav">   26.31   26.31</time>
   <time name="total">   26.46   26.47</time>
   <energy>
    <i name="e_fr_energy">    370.13224630 </i>
    <i name="e_wo_entrp">    370.05502572 </i>
    <i name="e_0_energy">    370.10650611 </i>
   </energy>
  </scstep>
  <scstep>
   <time name="dav">   23.01   23.01</time>
   <time name="total">   23.16   23.17</time>
   <energy>
    <i name="e_fr_energy">    370.13234653 </i>
    <i name="e_wo_entrp">    370.05808510 </i>
    <i name="e_0_energy">    370.10759272 </i>
   </energy>
  </scstep>
  <scstep>
   <time name="dav">   21.77   21.77</time>
   <time name="total">   21.92   21.93</time>
   <energy>
    <i name="e_fr_energy">    370.13234762 </i>
    <i name="e_wo_entrp">    370.05827739 </i>
    <i name="e_0_energy">    370.10765755 </i>
   </energy>
  </scstep>
  <scstep>
   <time name="dav">   28.50   28.50</time>
   <time name="total">   28.51   28.52</time>
   <energy>
    <i name="alphaZ">    342.35480825 </i>
    <i name="ewald">  -9229.83691012 </i>
    <i name="hartreedc">  -3749.17751287 </i>
    <i name="XCdc">    290.73387859 </i>
    <i name="pawpsdc">  13438.71524424 </i>
    <i name="pawaedc"> -13090.37829610 </i>
    <i name="eentropy">      0.07533232 </i>
    <i name="bandstr">  -1603.47026854 </i>
    <i name="atom">  13971.11607216 </i>
    <i name="e_fr_energy">    370.13234793 </i>
    <i name="e_wo_entrp">    370.05701561 </i>
    <i name="e_0_energy">    370.10723716 </i>
   </energy>
  </scstep>
  <structure>
   <crystal>
    <varray name="basis" >
     <v>       5.65506873       0.00000000       0.00000000 </v>
     <v>       0.00000000       5.57149629       0.00000000 </v>
     <v>       0.00000000       0.00000000       7.99925885 </v>
    </varray>
    <i name="volume">    252.03420408 </i>
    <varray name="rec_basis" >
     <v>       0.17683251       0.00000000       0.00000000 </v>
     <v>       0.00000000       0.17948500       0.00000000 </v>
     <v>       0.00000000       0.00000000       0.12501158 </v>
    </varray>
   </crystal>
   <varray name="positions" >
    <v>       0.00000000       0.00000000       0.00000000 </v>
    <v>       0.00000000       0.00000000       0.50000000 </v>
    <v>       0.00000000       0.50000000       0.00000000 </v>
    <v>       0.00000000       0.50000000       0.50000000 </v>
    <v>       0.50000000       0.00000000       0.00000000 </v>
    <v>       0.50000000       0.00000000       0.50000000 </v>
    <v>       0.50000000       0.50000000       0.00000000 </v>
    <v>       0.50000000       0.50000000       0.50000000 </v>
    <v>       0.25000000       0.25000000       0.25000000 </v>
    <v>       0.25000000       0.25000000       0.75000000 </v>
    <v>       0.25000000       0.75000000       0.25000000 </v>
    <v>       0.25000000       0.75000000       0.75000000 </v>
    <v>       0.75000000       0.25000000       0.25000000 </v>
    <v>       0.75000000       0.25000000       0.75000000 </v>
    <v>       0.75000000       0.75000000       0.25000000 </v>
    <v>       0.75000000       0.75000000       0.75000000 </v>
    <v>       0.25000000       0.25000000       0.25000000 </v>
    <v>       0.25000000       0.25000000       0.75000000 </v>
    <v>       0.25000000       0.75000000       0.25000000 </v>
    <v>       0.25000000       0.75000000       0.75000000 </v>
    <v>       0.75000000       0.25000000       0.25000000 </v>
    <v>       0.75000000       0.25000000       0.75000000 </v>
    <v>       0.75000000       0.75000000       0.25000000 </v>
    <v>       0.75000000       0.75000000       0.75000000 </v>
   </varray>
  </structure>
  <varray name="forces" >
   <v>      -0.00000000       0.00000000       0.00000000 </v>
   <v>      -0.00000000       0.00000000      -0.00000000 </v>
   <v>      -0.00000000      -0.00000000       0.00000000 </v>
   <v>      -0.00000000      -0.00000000      -0.00000000 </v>
   <v>       0.00000000      -0.00000000       0.00000000 </v>
   <v>       0.00000000      -0.00000000       0.00000000 </v>
   <v>       0.00000000       0.00000000       0.00000000 </v>
   <v>       0.00000000      -0.00000000      -0.00000000 </v>
   <v>      -0.00000000      -0.00000000       0.00000000 </v>
   <v>       0.00000000       0.00000000      -0.00000000 </v>
   <v>       0.00000000      -0.00000000       0.00000000 </v>
   <v>       0.00000000       0.00000000       0.00000000 </v>
   <v>       0.00000000       0.00000000       0.00000000 </v>
   <v>      -0.00000000      -0.00000000       0.00000000 </v>
   <v>      -0.00000000       0.00000000      -0.00000000 </v>
   <v>       0.00000000      -0.00000000      -0.00000000 </v>
   <v>       0.00000000      -0.00000000       0.00000000 </v>
   <v>       0.00000000      -0.00000000       0.00000000 </v>
   <v>       0.00000000      -0.00000000       0.00000000 </v>
   <v>       0.00000000      -0.00000000       0.00000000 </v>
   <v>       0.00000000      -0.00000000       0.00000000 </v>
   <v>       0.00000000      -0.00000000       0.00000000 </v>
   <v>       0.00000000      -0.00000000       0.00000000 </v>
   <v>       0.00000000       0.00000000       0.00000000 </v>
  </varray>
  <varray name="stress" >
   <v>     -26.57466936       0.00000000       0.00000000 </v>
   <v>      -0.00000000      -6.63593512       0.00000000 </v>
   <v>       0.00000000       0.00000000     -14.12662530 </v>
  </varray>
  <energy>
   <i name="e_fr_energy">    370.13234793 </i>
   <i name="e_wo_entrp">    370.05701561 </i>
   <i name="e_0_energy">    370.10723716 </i>
  </energy>
  <kpoints>
   <generation param="Gamma">
    <v type="int" name="divisions">       9        9        6 </v>
    <v name="usershift">      0.00000000       0.00000000       0.00000000 </v>
    <v name="genvec1">      0.11111111       0.00000000       0.00000000 </v>
    <v name="genvec2">      0.00000000       0.11111111       0.00000000 </v>
    <v name="genvec3">      0.00000000       0.00000000       0.16666667 </v>
    <v name="shift">      0.00000000       0.00000000       0.00000000 </v>
   </generation>
   <varray name="kpointlist" >
    <v>       0.00000000       0.00000000       0.00000000 </v>
    <v>       0.11111111       0.00000000       0.00000000 </v>
    <v>       0.22222222       0.00000000       0.00000000 </v>
    <v>       0.33333333       0.00000000       0.00000000 </v>
    <v>       0.44444444       0.00000000       0.00000000 </v>
    <v>       0.00000000       0.11111111       0.00000000 </v>
    <v>       0.11111111       0.11111111       0.00000000 </v>
    <v>       0.22222222       0.11111111       0.00000000 </v>
    <v>       0.33333333       0.11111111       0.00000000 </v>
    <v>       0.44444444       0.11111111       0.00000000 </v>
    <v>       0.00000000       0.22222222       0.00000000 </v>
    <v>       0.11111111       0.22222222       0.00000000 </v>
    <v>       0.22222222       0.22222222       0.00000000 </v>
    <v>       0.33333333       0.22222222       0.00000000 </v>
    <v>       0.44444444       0.22222222       0.00000000 </v>
    <v>       0.00000000       0.33333333       0.00000000 </v>
    <v>       0.11111111       0.33333333       0.00000000 </v>
    <v>       0.22222222       0.33333333       0.00000000 </v>
    <v>       0.33333333       0.33333333       0.00000000 </v>
    <v>       0.44444444       0.33333333       0.00000000 </v>
    <v>       0.00000000       0.44444444       0.00000000 </v>
    <v>       0.11111111       0.44444444       0.00000000 </v>
    <v>       0.22222222       0.44444444       0.00000000 </v>
    <v>       0.33333333       0.44444444       0.00000000 </v>
    <v>       0.44444444       0.44444444       0.00000000 </v>
    <v>       0.00000000       0.00000000       0.16666667 </v>
    <v>       0.11111111       0.00000000       0.16666667 </v>
    <v>       0.22222222       0.00000000       0.16666667 </v>
    <v>       0.33333333       0.00000000       0.16666667 </v>
    <v>       0.44444444       0.00000000       0.16666667 </v>
    <v>       0.00000000       0.11111111       0.16666667 </v>
    <v>       0.11111111       0.11111111       0.16666667 </v>
    <v>       0.22222222       0.11111111       0.16666667 </v>
    <v>       0.33333333       0.11111111       0.16666667 </v>
    <v>       0.44444444       0.11111111       0.16666667 </v>
    <v>       0.00000000       0.22222222       0.16666667 </v>
    <v>       0.11111111       0.22222222       0.16666667 </v>
    <v>       0.22222222       0.22222222       0.16666667 </v>
    <v>       0.33333333       0.22222222       0.16666667 </v>
    <v>       0.44444444       0.22222222       0.16666667 </v>
    <v>       0.00000000       0.33333333       0.16666667 </v>
    <v>       0.11111111       0.33333333       0.16666667 </v>
    <v>       0.22222222       0.33333333       0.16666667 </v>
    <v>       0.33333333       0.33333333       0.16666667 </v>
    <v>       0.44444444       0.33333333       0.16666667 </v>
    <v>       0.00000000       0.44444444       0.16666667 </v>
    <v>       0.11111111       0.44444444       0.16666667 </v>
    <v>       0.22222222       0.44444444       0.16666667 </v>
    <v>       0.33333333       0.44444444       0.16666667 </v>
    <v>       0.44444444       0.44444444       0.16666667 </v>
    <v>       0.00000000       0.00000000       0.33333333 </v>
    <v>       0.11111111       0.00000000       0.33333333 </v>
    <v>       0.22222222       0.00000000       0.33333333 </v>
    <v>       0.33333333       0.00000000       0.33333333 </v>
    <v>       0.44444444       0.00000000       0.33333333 </v>
    <v>       0.00000000       0.11111111       0.33333333 </v>
    <v>       0.11111111       0.11111111       0.33333333 </v>
    <v>       0.22222222       0.11111111       0.33333333 </v>
    <v>       0.33333333       0.11111111       0.33333333 </v>
    <v>       0.44444444       0.11111111       0.33333333 </v>
    <v>       0.00000000       0.22222222       0.33333333 </v>
    <v>       0.11111111       0.22222222       0.33333333 </v>
    <v>       0.22222222       0.22222222       0.33333333 </v>
    <v>       0.33333333       0.22222222       0.33333333 </v>
    <v>       0.44444444       0.22222222       0.33333333 </v>
    <v>       0.00000000       0.33333333       0.33333333 </v>
    <v>       0.11111111       0.33333333       0.33333333 </v>
    <v>       0.22222222       0.33333333       0.33333333 </v>
    <v>       0.33333333       0.33333333       0.33333333 </v>
    <v>       0.44444444       0.33333333       0.33333333 </v>
    <v>       0.00000000       0.44444444       0.33333333 </v>
    <v>       0.11111111       0.44444444       0.33333333 </v>
    <v>       0.22222222       0.44444444       0.33333333 </v>
    <v>       0.33333333       0.44444444       0.33333333 </v>
    <v>       0.44444444       0.44444444       0.33333333 </v>
    <v>       0.00000000       0.00000000       0.50000000 </v>
    <v>       0.11111111       0.00000000       0.50000000 </v>
    <v>       0.22222222       0.00000000       0.50000000 </v>
    <v>       0.33333333       0.00000000       0.50000000 </v>
    <v>       0.44444444       0.00000000       0.50000000 </v>
    <v>       0.00000000       0.11111111       0.50000000 </v>
    <v>       0.11111111       0.11111111       0.50000000 </v>
    <v>       0.22222222       0.11111111       0.50000000 </v>
    <v>       0.33333333       0.11111111       0.50000000 </v>
    <v>       0.44444444       0.11111111       0.50000000 </v>
    <v>       0.00000000       0.22222222       0.50000000 </v>
    <v>       0.11111111       0.22222222       0.50000000 </v>
    <v>       0.22222222       0.22222222       0.50000000 </v>
    <v>       0.33333333       0.22222222       0.50000000 </v>
    <v>       0.44444444       0.22222222       0.50000000 </v>
    <v>       0.00000000       0.33333333       0.50000000 </v>
    <v>       0.11111111       0.33333333       0.50000000 </v>
    <v>       0.22222222       0.33333333       0.50000000 </v>
    <v>       0.33333333       0.33333333       0.50000000 </v>
    <v>       0.44444444       0.33333333       0.50000000 </v>
    <v>       0.00000000       0.44444444       0.50000000 </v>
    <v>       0.11111111       0.44444444       0.50000000 </v>
    <v>       0.22222222       0.44444444       0.50000000 </v>
    <v>       0.33333333       0.44444444       0.50000000 </v>
    <v>       0.44444444       0.44444444       0.50000000 </v>
   </varray>
   <varray name="weights" >
    <v>       0.00205761 </v>
    <v>       0.00411523 </v>
    <v>       0.00411523 </v>
    <v>       0.00411523 </v>
    <v>       0.00411523 </v>
    <v>       0.00411523 </v>
    <v>       0.00823045 </v>
    <v>       0.00823045 </v>
    <v>       0.00823045 </v>
    <v>       0.00823045 </v>
    <v>       0.00411523 </v>
    <v>       0.00823045 </v>
    <v>       0.00823045 </v>
    <v>       0.00823045 </v>
    <v>       0.00823045 </v>
    <v>       0.00411523 </v>
    <v>       0.00823045 </v>
    <v>       0.00823045 </v>
    <v>       0.00823045 </v>
    <v>       0.00823045 </v>
    <v>       0.00411523 </v>
    <v>       0.00823045 </v>
    <v>       0.00823045 </v>
    <v>       0.00823045 </v>
    <v>       0.00823045 </v>
    <v>       0.00411523 </v>
    <v>       0.00823045 </v>
    <v>       0.00823045 </v>
    <v>       0.00823045 </v>
    <v>       0.00823045 </v>
    <v>       0.00823045 </v>
    <v>       0.01646091 </v>
    <v>       0.01646091 </v>
    <v>       0.01646091 </v>
    <v>       0.01646091 </v>
    <v>       0.00823045 </v>
    <v>       0.01646091 </v>
    <v>       0.01646091 </v>
    <v>       0.01646091 </v>
    <v>       0.01646091 </v>
    <v>       0.00823045 </v>
    <v>       0.01646091 </v>
    <v>       0.01646091 </v>
    <v>       0.01646091 </v>
    <v>       0.01646091 </v>
    <v>       0.00823045 </v>
    <v>       0.01646091 </v>
    <v>       0.01646091 </v>
    <v>       0.01646091 </v>
    <v>       0.01646091 </v>
    <v>       0.00411523 </v>
    <v>       0.00823045 </v>
    <v>       0.00823045 </v>
    <v>       0.00823045 </v>
    <v>       0.00823045 </v>
    <v>       0.00823045 </v>
    <v>       0.01646091 </v>
    <v>       0.01646091 </v>
    <v>       0.01646091 </v>
    <v>       0.01646091 </v>
    <v>       0.00823045 </v>
    <v>       0.01646091 </v>
    <v>       0.01646091 </v>
    <v>       0.01646091 </v>
    <v>       0.01646091 </v>
    <v>       0.00823045 </v>
    <v>       0.01646091 </v>
    <v>       0.01646091 </v>
    <v>       0.01646091 </v>
    <v>       0.01646091 </v>
    <v>       0.00823045 </v>
    <v>       0.01646091 </v>
    <v>       0.01646091 </v>
    <v>       0.01646091 </v>
    <v>       0.01646091 </v>
    <v>       0.00205761 </v>
    <v>       0.00411523 </v>
    <v>       0.00411523 </v>
    <v>       0.00411523 </v>
    <v>       0.00411523 </v>
    <v>       0.00411523 </v>
    <v>       0.00823045 </v>
    <v>       0.00823045 </v>
    <v>       0.00823045 </v>
    <v>       0.00823045 </v>
    <v>       0.00411523 </v>
    <v>       0.00823045 </v>
    <v>       0.00823045 </v>
    <v>       0.00823045 </v>
    <v>       0.00823045 </v>
    <v>       0.00411523 </v>
    <v>       0.00823045 </v>
    <v>       0.00823045 </v>
    <v>       0.00823045 </v>
    <v>       0.00823045 </v>
    <v>       0.00411523 </v>
    <v>       0.00823045 </v>
    <v>       0.00823045 </v>
    <v>       0.00823045 </v>
    <v>       0.00823045 </v>
   </varray>
  </kpoints>
  <time name="totalsc">  529.98  530.05</time>
 </calculation>
 <calculation>
  <scstep>
   <time name="dav">   19.86   19.86</time>
   <time name="total">   20.01   20.01</time>
   <energy>
    <i name="alphaZ">    352.78185825 </i>
    <i name="ewald">  -9306.86406746 </i>
    <i name="hartreedc">  -3799.35867835 </i>
    <i name="XCdc">    295.80337898 </i>
    <i name="pawpsdc">  13438.82272413 </i>
    <i name="pawaedc"> -13090.48920311 </i>
    <i name="eentropy">      0.10540497 </i>
    <i name="bandstr">  -1494.74711774 </i>
    <i name="atom">  13971.11607216 </i>
    <i name="e_fr_energy">    367.17037184 </i>
    <i name="e_wo_entrp">    367.06496686 </i>
    <i name="e_0_energy">    367.13523684 </i>
   </energy>
  </scstep>
  <scstep>
   <time name="dav">   40.95   40.95</time>
   <time name="total">   41.11   41.11</time>
   <energy>
    <i name="e_fr_energy">    346.87860375 </i>
    <i name="e_wo_entrp">    346.88589911 </i>
    <i name="e_0_energy">    346.88103554 </i>
   </energy>
  </scstep>
  <scstep>
   <time name="dav">   30.50   30.51</time>
   <time name="total">   30.68   30.68</time>
   <energy>
    <i name="e_fr_energy">    367.93920417 </i>
    <i name="e_wo_entrp">    367.79958786 </i>
    <i name="e_0_energy">    367.89266540 </i>
   </energy>
  </scstep>
  <scstep>
   <time name="dav">   32.41   32.42</time>
   <time name="total">   32.57   32.58</time>
   <energy>
    <i name="e_fr_energy">    355.82985822 </i>
    <i name="e_wo_entrp">    355.81746798 </i>
    <i name="e_0_energy">    355.82572814 </i>
   </energy>
  </scstep>
  <scstep>
   <time name="dav">   27.22   27.23</time>
   <time name="total">   27.38   27.38</time>
   <energy>
    <i name="e_fr_energy">    363.18931368 </i>
    <i name="e_wo_entrp">    363.18640595 </i>
    <i name="e_0_energy">    363.18834444 </i>
   </energy>
  </scstep>
  <scstep>
   <time name="dav">   24.55   24.55</time>
   <time name="total">   24.71   24.72</time>
   <energy>
    <i name="e_fr_energy">    367.24963800 </i>
    <i name="e_wo_entrp">    367.25129447 </i>
    <i name="e_0_energy">    367.25019016 </i>
   </energy>
  </scstep>
  <scstep>
   <time name="dav">   28.31   28.31</time>
   <time name="total">   28.46   28.47</time>
   <energy>
    <i name="e_fr_energy">    368.71514256 </i>
    <i name="e_wo_entrp">    368.71244809 </i>
    <i name="e_0_energy">    368.71424441 </i>
   </energy>
  </scstep>
  <scstep>
   <time name="dav">   26.43   26.43</time>
   <time name="total">   26.60   26.60</time>
   <energy>
    <i name="e_fr_energy">    367.31268810 </i>
    <i name="e_wo_entrp">    367.31343691 </i>
    <i name="e_0_energy">    367.31293770 </i>
   </energy>
  </scstep>
  <scstep>
   <time name="dav">   25.47   25.48</time>
   <time name="total">   25.64   25.64</time>
   <energy>
    <i name="e_fr_energy">    368.95264411 </i>
    <i name="e_wo_entrp">    368.81902239 </i>
    <i name="e_0_energy">    368.90810353 </i>
   </energy>
  </scstep>
  <scstep>
   <time name="dav">   17.78   17.78</time>
   <time name="total">   17.94   17.94</time>
   <energy>
    <i name="e_fr_energy">    368.95097092 </i>
    <i name="e_wo_entrp">    368.81650141 </i>
    <i name="e_0_energy">    368.90614775 </i>
   </energy>
  </scstep>
  <scstep>
   <time name="dav">   26.35   26.35</time>
   <time name="total">   26.51   26.51</time>
   <energy>
    <i name="e_fr_energy">    369.03463070 </i>
    <i name="e_wo_entrp">    368.91048870 </i>
    <i name="e_0_energy">    368.99325004 </i>
   </energy>
  </scstep>
  <scstep>
   <time name="dav">   26.28   26.28</time>
   <time name="total">   26.44   26.44</time>
   <energy>
    <i name="e_fr_energy">    368.95042398 </i>
    <i name="e_wo_entrp">    368.82222801 </i>
    <i name="e_0_energy">    368.90769199 </i>
   </energy>
  </scstep>
  <scstep>
   <time name="dav">   26.26   26.27</time>
   <time name="total">   26.42   26.43</time>
   <energy>
    <i name="e_fr_energy">    368.82756900 </i>
    <i name="e_wo_entrp">    368.69563155 </i>
    <i name="e_0_energy">    368.78358985 </i>
   </energy>
  </scstep>
  <scstep>
   <time name="dav">   27.26   27.26</time>
   <time name="total">   27.42   27.42</time>
   <energy>
    <i name="e_fr_energy">    369.14864485 </i>
    <i name="e_wo_entrp">    369.05495441 </i>
    <i name="e_0_energy">    369.11741470 </i>
   </energy>
  </scstep>
  <scstep>
   <time name="dav">   20.48   20.49</time>
   <time name="total">   20.65   20.66</time>
   <energy>
    <i name="e_fr_energy">    369.13697283 </i>
    <i name="e_wo_entrp">    369.04619399 </i>
    <i name="e_0_energy">    369.10671322 </i>
   </energy>
  </scstep>
  <scstep>
   <time name="dav">   24.28   24.28</time>
   <time name="total">   24.43   24.44</time>
   <energy>
    <i name="e_fr_energy">    369.14226140 </i>
    <i name="e_wo_entrp">    369.06660195 </i>
    <i name="e_0_energy">    369.11704159 </i>
   </energy>
  </scstep>
  <scstep>
   <time name="dav">   23.27   23.28</time>
   <time name="total">   23.43   23.43</time>
   <energy>
    <i name="e_fr_energy">    369.12928042 </i>
    <i name="e_wo_entrp">    369.05042022 </i>
    <i name="e_0_energy">    369.10299369 </i>
   </energy>
  </scstep>
  <scstep>
   <time name="dav">   27.25   27.25</time>
   <time name="total">   27.41   27.41</time>
   <energy>
    <i name="e_fr_energy">    369.19479310 </i>
    <i name="e_wo_entrp">    369.13745032 </i>
    <i name="e_0_energy">    369.17567884 </i>
   </energy>
  </scstep>
  <scstep>
   <time name="dav">   24.10   24.10</time>
   <time name="total">   24.25   24.25</time>
   <energy>
    <i name="e_fr_energy">    369.19372814 </i>
    <i name="e_wo_entrp">    369.14052016 </i>
    <i name="e_0_energy">    369.17599214 </i>
   </energy>
  </scstep>
  <scstep>
   <time name="dav">   24.24   24.24</time>
   <time name="total">   24.40   24.40</time>
   <energy>
    <i name="e_fr_energy">    369.19137985 </i>
    <i name="e_wo_entrp">    369.13636451 </i>
    <i name="e_0_energy">    369.17304141 </i>
   </energy>
  </scstep>
  <scstep>
   <time name="dav">   22.15   22.15</time>
   <time name="total">   22.31   22.31</time>
   <energy>
    <i name="e_fr_energy">    369.18540777 </i>
    <i name="e_wo_entrp">    369.12857775 </i>
    <i name="e_0_energy">    369.16646443 </i>
   </energy>
  </scstep>
  <scstep>
   <time name="dav">   27.09   27.09</time>
   <time name="total">   27.25   27.25</time>
   <energy>
    <i name="e_fr_energy">    369.18198563 </i>
    <i name="e_wo_entrp">    369.12182396 </i>
    <i name="e_0_energy">    369.16193174 </i>
   </energy>
  </scstep>
  <scstep>
   <time name="dav">   26.81   26.81</time>
   <time name="total">   26.97   26.97</time>
   <energy>
    <i name="e_fr_energy">    369.17766862 </i>
    <i name="e_wo_entrp">    369.11463228 </i>
    <i name="e_0_energy">    369.15665651 </i>
   </energy>
  </scstep>
  <scstep>
   <time name="dav">   25.74   25.74</time>
   <time name="total">   25.90   25.90</time>
   <energy>
    <i name="e_fr_energy">    369.16845863 </i>
    <i name="e_wo_entrp">    369.09936026 </i>
    <i name="e_0_energy">    369.14542584 </i>
   </energy>
  </scstep>
  <scstep>
   <time name="dav">   23.92   23.92</time>
   <time name="total">   24.08   24.08</time>
   <energy>
    <i name="e_fr_energy">    369.17036581 </i>
    <i name="e_wo_entrp">    369.10053200 </i>
    <i name="e_0_energy">    369.14708787 </i>
   </energy>
  </scstep>
  <scstep>
   <time name="dav">   25.36   25.36</time>
   <time name="total">   25.51   25.52</time>
   <energy>
    <i name="e_fr_energy">    369.17264270 </i>
    <i name="e_wo_entrp">    369.10359260 </i>
    <i name="e_0_energy">    369.14962600 </i>
   </energy>
  </scstep>
  <scstep>
   <time name="dav">   19.14   19.14</time>
   <time name="total">   19.29   19.30</time>
   <energy>
    <i name="e_fr_energy">    369.17245106 </i>
    <i name="e_wo_entrp">    369.10328680 </i>
    <i name="e_0_energy">    369.14939631 </i>
   </energy>
  </scstep>
  <scstep>
   <time name="dav">   27.00   27.01</time>
   <time name="total">   27.17   27.17</time>
   <energy>
    <i name="e_fr_energy">    369.17397120 </i>
    <i name="e_wo_entrp">    369.10422701 </i>
    <i name="e_0_energy">    369.15072314 </i>
   </energy>
  </scstep>
  <scstep>
   <time name="dav">   26.98   26.98</time>
   <time name="total">   27.13   27.14</time>
   <energy>
    <i name="e_fr_energy">    369.17769717 </i>
    <i name="e_wo_entrp">    369.10261665 </i>
    <i name="e_0_energy">    369.15267033 </i>
   </energy>
  </scstep>
  <scstep>
   <time name="dav">   18.48   18.48</time>
   <time name="total">   18.64   18.64</time>
   <energy>
    <i name="e_fr_energy">    369.20024236 </i>
    <i name="e_wo_entrp">    369.12826361 </i>
    <i name="e_0_energy">    369.17624944 </i>
   </energy>
  </scstep>
  <scstep>
   <time name="dav">   23.14   23.15</time>
   <time name="total">   23.30   23.30</time>
   <energy>
    <i name="e_fr_energy">    369.21886868 </i>
    <i name="e_wo_entrp">    369.14650851 </i>
    <i name="e_0_energy">    369.19474862 </i>
   </energy>
  </scstep>
  <scstep>
   <time name="dav">   20.45   20.45</time>
   <time name="total">   20.61   20.61</time>
   <energy>
    <i name="e_fr_energy">    369.24558550 </i>
    <i name="e_wo_entrp">    369.17307458 </i>
    <i name="e_0_energy">    369.22141520 </i>
   </energy>
  </scstep>
  <scstep>
   <time name="dav">   23.55   23.56</time>
   <time name="total">   23.71   23.71</time>
   <energy>
    <i name="e_fr_energy">    369.25837531 </i>
    <i name="e_wo_entrp">    369.18832005 </i>
    <i name="e_0_energy">    369.23502356 </i>
   </energy>
  </scstep>
  <scstep>
   <time name="dav">   23.88   23.88</time>
   <time name="total">   24.04   24.04</time>
   <energy>
    <i name="e_fr_energy">    369.26140637 </i>
[...]
       <r>    8.1616    1.0069 </r>
       <r>    8.1617    1.0068 </r>
       <r>    8.2300    0.8879 </r>
       <r>    8.2301    0.8877 </r>
       <r>    8.2303    0.8871 </r>
       <r>    8.2303    0.8871 </r>
       <r>    8.5386   -0.0261 </r>
       <r>    8.5386   -0.0261 </r>
       <r>    8.5388   -0.0262 </r>
       <r>    8.5389   -0.0262 </r>
       <r>    8.5597   -0.0333 </r>
       <r>    8.5600   -0.0334 </r>
       <r>    8.5752   -0.0353 </r>
       <r>    8.5757   -0.0353 </r>
       <r>    8.7788   -0.0038 </r>
       <r>    8.7792   -0.0038 </r>
       <r>    8.8123   -0.0020 </r>
       <r>    8.8127   -0.0019 </r>
       <r>    8.8127   -0.0019 </r>
       <r>    8.8130   -0.0019 </r>
       <r>    8.8403   -0.0011 </r>
       <r>    8.8407   -0.0011 </r>
       <r>    8.9492   -0.0001 </r>
       <r>    8.9503   -0.0001 </r>
       <r>    8.9509   -0.0001 </r>
       <r>    8.9509   -0.0001 </r>
       <r>    8.9515   -0.0001 </r>
       <r>    8.9516   -0.0001 </r>
       <r>    8.9535   -0.0001 </r>
       <r>    8.9538   -0.0001 </r>
       <r>    9.2192   -0.0000 </r>
       <r>    9.2197   -0.0000 </r>
       <r>    9.2667   -0.0000 </r>
       <r>    9.2668   -0.0000 </r>
       <r>    9.2669   -0.0000 </r>
       <r>    9.2674   -0.0000 </r>
       <r>    9.2860   -0.0000 </r>
       <r>    9.2864   -0.0000 </r>
       <r>    9.4232   -0.0000 </r>
       <r>    9.4239   -0.0000 </r>
       <r>    9.4239   -0.0000 </r>
       <r>    9.4242   -0.0000 </r>
       <r>    9.4243   -0.0000 </r>
       <r>    9.4244   -0.0000 </r>
       <r>    9.5191   -0.0000 </r>
       <r>    9.5193   -0.0000 </r>
       <r>    9.6885   -0.0000 </r>
       <r>    9.6895   -0.0000 </r>
       <r>    9.7399   -0.0000 </r>
       <r>    9.7406   -0.0000 </r>
       <r>    9.7408   -0.0000 </r>
       <r>    9.7409   -0.0000 </r>
       <r>    9.8099   -0.0000 </r>
       <r>    9.8103   -0.0000 </r>
       <r>   10.2486   -0.0000 </r>
       <r>   10.2489   -0.0000 </r>
       <r>   10.2850   -0.0000 </r>
       <r>   10.2853   -0.0000 </r>
       <r>   10.2854   -0.0000 </r>
       <r>   10.2856   -0.0000 </r>
       <r>   10.3539   -0.0000 </r>
       <r>   10.3541   -0.0000 </r>
       <r>   12.0447   -0.0000 </r>
       <r>   12.0449   -0.0000 </r>
       <r>   12.2965   -0.0000 </r>
       <r>   12.2966   -0.0000 </r>
       <r>   12.2968   -0.0000 </r>
       <r>   12.2969   -0.0000 </r>
       <r>   12.6101    0.0000 </r>
       <r>   12.6105    0.0000 </r>
      </set>
     </set>
    </set>
   </array>
  </eigenvalues>
  <separator name="orbital magnetization" >
   <v name="MAGDIPOLOUT">      0.00000000      0.00000000      0.00000000</v>
  </separator>
  <dos>
   <i name="efermi">      8.33671012 </i>
   <total>
    <array>
     <dimension dim="1">gridpoints</dimension>
     <dimension dim="2">spin</dimension>
     <field>energy</field>
     <field>total</field>
     <field>integrated</field>
     <set>
      <set comment="spin 1">
       <r>   -51.2604     0.0000     0.0000 </r>
       <r>   -51.0348     0.0000     0.0000 </r>
       <r>   -50.8093     0.0000     0.0000 </r>
       <r>   -50.5837     0.0000     0.0000 </r>
       <r>   -50.3582     0.0000     0.0000 </r>
       <r>   -50.1326     0.0000     0.0000 </r>
       <r>   -49.9071    -0.0000    -0.0000 </r>
       <r>   -49.6815    -0.0000    -0.0000 </r>
       <r>   -49.4560    -0.0000    -0.0000 </r>
       <r>   -49.2304    -0.0000    -0.0000 </r>
       <r>   -49.0048    -0.0000    -0.0000 </r>
       <r>   -48.7793    -0.0017    -0.0004 </r>
       <r>   -48.5537    -0.3467    -0.0786 </r>
       <r>   -48.3282    -1.2351    -0.3571 </r>
       <r>   -48.1026    41.2841     8.9547 </r>
       <r>   -47.8771    33.4090    16.4903 </r>
       <r>   -47.6515    -1.9704    16.0459 </r>
       <r>   -47.4260    -0.2026    16.0002 </r>
       <r>   -47.2004    -0.0007    16.0000 </r>
       <r>   -46.9748    -0.0000    16.0000 </r>
       <r>   -46.7493    -0.0000    16.0000 </r>
       <r>   -46.5237     0.0000    16.0000 </r>
       <r>   -46.2982     0.0000    16.0000 </r>
       <r>   -46.0726     0.0000    16.0000 </r>
       <r>   -45.8471     0.0000    16.0000 </r>
       <r>   -45.6215     0.0000    16.0000 </r>
       <r>   -45.3960     0.0000    16.0000 </r>
       <r>   -45.1704     0.0000    16.0000 </r>
       <r>   -44.9449     0.0000    16.0000 </r>
       <r>   -44.7193     0.0000    16.0000 </r>
       <r>   -44.4937     0.0000    16.0000 </r>
       <r>   -44.2682     0.0000    16.0000 </r>
       <r>   -44.0426     0.0000    16.0000 </r>
       <r>   -43.8171     0.0000    16.0000 </r>
       <r>   -43.5915     0.0000    16.0000 </r>
       <r>   -43.3660     0.0000    16.0000 </r>
       <r>   -43.1404     0.0000    16.0000 </r>
       <r>   -42.9149     0.0000    16.0000 </r>
       <r>   -42.6893     0.0000    16.0000 </r>
       <r>   -42.4637     0.0000    16.0000 </r>
       <r>   -42.2382     0.0000    16.0000 </r>
       <r>   -42.0126     0.0000    16.0000 </r>
       <r>   -41.7871     0.0000    16.0000 </r>
       <r>   -41.5615     0.0000    16.0000 </r>
       <r>   -41.3360     0.0000    16.0000 </r>
       <r>   -41.1104     0.0000    16.0000 </r>
       <r>   -40.8849     0.0000    16.0000 </r>
       <r>   -40.6593     0.0000    16.0000 </r>
       <r>   -40.4337     0.0000    16.0000 </r>
       <r>   -40.2082     0.0000    16.0000 </r>
       <r>   -39.9826     0.0000    16.0000 </r>
       <r>   -39.7571     0.0000    16.0000 </r>
       <r>   -39.5315     0.0000    16.0000 </r>
       <r>   -39.3060     0.0000    16.0000 </r>
       <r>   -39.0804     0.0000    16.0000 </r>
       <r>   -38.8549     0.0000    16.0000 </r>
       <r>   -38.6293     0.0000    16.0000 </r>
       <r>   -38.4037     0.0000    16.0000 </r>
       <r>   -38.1782     0.0000    16.0000 </r>
       <r>   -37.9526     0.0000    16.0000 </r>
       <r>   -37.7271     0.0000    16.0000 </r>
       <r>   -37.5015     0.0000    16.0000 </r>
       <r>   -37.2760     0.0000    16.0000 </r>
       <r>   -37.0504     0.0000    16.0000 </r>
       <r>   -36.8249     0.0000    16.0000 </r>
       <r>   -36.5993     0.0000    16.0000 </r>
       <r>   -36.3737     0.0000    16.0000 </r>
       <r>   -36.1482     0.0000    16.0000 </r>
       <r>   -35.9226     0.0000    16.0000 </r>
       <r>   -35.6971     0.0000    16.0000 </r>
       <r>   -35.4715     0.0000    16.0000 </r>
       <r>   -35.2460     0.0000    16.0000 </r>
       <r>   -35.0204     0.0000    16.0000 </r>
       <r>   -34.7949     0.0000    16.0000 </r>
       <r>   -34.5693     0.0000    16.0000 </r>
       <r>   -34.3438     0.0000    16.0000 </r>
       <r>   -34.1182     0.0000    16.0000 </r>
       <r>   -33.8926     0.0000    16.0000 </r>
       <r>   -33.6671     0.0000    16.0000 </r>
       <r>   -33.4415     0.0000    16.0000 </r>
       <r>   -33.2160     0.0000    16.0000 </r>
       <r>   -32.9904     0.0000    16.0000 </r>
       <r>   -32.7649     0.0000    16.0000 </r>
       <r>   -32.5393     0.0000    16.0000 </r>
       <r>   -32.3138     0.0000    16.0000 </r>
       <r>   -32.0882     0.0000    16.0000 </r>
       <r>   -31.8626     0.0000    16.0000 </r>
       <r>   -31.6371     0.0000    16.0000 </r>
       <r>   -31.4115     0.0000    16.0000 </r>
       <r>   -31.1860     0.0000    16.0000 </r>
       <r>   -30.9604     0.0000    16.0000 </r>
       <r>   -30.7349     0.0000    16.0000 </r>
       <r>   -30.5093     0.0000    16.0000 </r>
       <r>   -30.2838     0.0000    16.0000 </r>
       <r>   -30.0582     0.0000    16.0000 </r>
       <r>   -29.8326     0.0000    16.0000 </r>
       <r>   -29.6071     0.0000    16.0000 </r>
       <r>   -29.3815     0.0000    16.0000 </r>
       <r>   -29.1560     0.0000    16.0000 </r>
       <r>   -28.9304     0.0000    16.0000 </r>
       <r>   -28.7049     0.0000    16.0000 </r>
       <r>   -28.4793     0.0000    16.0000 </r>
       <r>   -28.2538     0.0000    16.0000 </r>
       <r>   -28.0282     0.0000    16.0000 </r>
       <r>   -27.8026     0.0000    16.0000 </r>
       <r>   -27.5771     0.0000    16.0000 </r>
       <r>   -27.3515     0.0000    16.0000 </r>
       <r>   -27.1260     0.0000    16.0000 </r>
       <r>   -26.9004     0.0000    16.0000 </r>
       <r>   -26.6749     0.0000    16.0000 </r>
       <r>   -26.4493    -0.0000    16.0000 </r>
       <r>   -26.2238    -0.0000    16.0000 </r>
       <r>   -25.9982    -0.0000    16.0000 </r>
       <r>   -25.7727    -0.0000    16.0000 </r>
       <r>   -25.5471    -0.0000    16.0000 </r>
       <r>   -25.3215    -0.0001    16.0000 </r>
       <r>   -25.0960    -0.0611    15.9862 </r>
       <r>   -24.8704    -2.0197    15.5306 </r>
       <r>   -24.6449    13.7720    18.6370 </r>
       <r>   -24.4193    98.6881    40.8966 </r>
       <r>   -24.1938    70.4904    56.7961 </r>
       <r>   -23.9682    32.3463    64.0920 </r>
       <r>   -23.7427     0.0130    64.0949 </r>
       <r>   -23.5171    -0.4174    64.0007 </r>
       <r>   -23.2915    -0.0033    64.0000 </r>
       <r>   -23.0660    -0.0000    64.0000 </r>
       <r>   -22.8404    -0.0000    64.0000 </r>
       <r>   -22.6149     0.0000    64.0000 </r>
       <r>   -22.3893     0.0000    64.0000 </r>
       <r>   -22.1638     0.0000    64.0000 </r>
       <r>   -21.9382     0.0000    64.0000 </r>
       <r>   -21.7127     0.0000    64.0000 </r>
       <r>   -21.4871     0.0000    64.0000 </r>
       <r>   -21.2615     0.0000    64.0000 </r>
       <r>   -21.0360     0.0000    64.0000 </r>
       <r>   -20.8104     0.0000    64.0000 </r>
       <r>   -20.5849     0.0000    64.0000 </r>
       <r>   -20.3593     0.0000    64.0000 </r>
       <r>   -20.1338     0.0000    64.0000 </r>
       <r>   -19.9082     0.0000    64.0000 </r>
       <r>   -19.6827     0.0000    64.0000 </r>
       <r>   -19.4571     0.0000    64.0000 </r>
       <r>   -19.2315     0.0000    64.0000 </r>
       <r>   -19.0060     0.0000    64.0000 </r>
       <r>   -18.7804     0.0000    64.0000 </r>
       <r>   -18.5549     0.0000    64.0000 </r>
       <r>   -18.3293     0.0000    64.0000 </r>
       <r>   -18.1038     0.0000    64.0000 </r>
       <r>   -17.8782     0.0000    64.0000 </r>
       <r>   -17.6527     0.0000    64.0000 </r>
       <r>   -17.4271     0.0000    64.0000 </r>
       <r>   -17.2015     0.0000    64.0000 </r>
       <r>   -16.9760     0.0000    64.0000 </r>
       <r>   -16.7504     0.0000    64.0000 </r>
       <r>   -16.5249     0.0000    64.0000 </r>
       <r>   -16.2993     0.0000    64.0000 </r>
       <r>   -16.0738     0.0000    64.0000 </r>
       <r>   -15.8482     0.0000    64.0000 </r>
       <r>   -15.6227     0.0000    64.0000 </r>
       <r>   -15.3971     0.0000    64.0000 </r>
       <r>   -15.1716     0.0000    64.0000 </r>
       <r>   -14.9460     0.0000    64.0000 </r>
       <r>   -14.7204     0.0000    64.0000 </r>
       <r>   -14.4949     0.0000    64.0000 </r>
       <r>   -14.2693     0.0000    64.0000 </r>
       <r>   -14.0438     0.0000    64.0000 </r>
       <r>   -13.8182     0.0000    64.0000 </r>
       <r>   -13.5927     0.0000    64.0000 </r>
       <r>   -13.3671     0.0000    64.0000 </r>
       <r>   -13.1416     0.0000    64.0000 </r>
       <r>   -12.9160     0.0000    64.0000 </r>
       <r>   -12.6904     0.0000    64.0000 </r>
       <r>   -12.4649     0.0000    64.0000 </r>
       <r>   -12.2393     0.0000    64.0000 </r>
       <r>   -12.0138     0.0000    64.0000 </r>
       <r>   -11.7882     0.0000    64.0000 </r>
       <r>   -11.5627     0.0000    64.0000 </r>
       <r>   -11.3371     0.0000    64.0000 </r>
       <r>   -11.1116     0.0000    64.0000 </r>
       <r>   -10.8860     0.0000    64.0000 </r>
       <r>   -10.6604     0.0000    64.0000 </r>
       <r>   -10.4349     0.0000    64.0000 </r>
       <r>   -10.2093     0.0000    64.0000 </r>
       <r>    -9.9838     0.0000    64.0000 </r>
       <r>    -9.7582     0.0000    64.0000 </r>
       <r>    -9.5327     0.0000    64.0000 </r>
       <r>    -9.3071     0.0000    64.0000 </r>
       <r>    -9.0816     0.0000    64.0000 </r>
       <r>    -8.8560     0.0000    64.0000 </r>
       <r>    -8.6304     0.0000    64.0000 </r>
       <r>    -8.4049     0.0000    64.0000 </r>
       <r>    -8.1793     0.0000    64.0000 </r>
       <r>    -7.9538     0.0000    64.0000 </r>
       <r>    -7.7282     0.0000    64.0000 </r>
       <r>    -7.5027     0.0000    64.0000 </r>
       <r>    -7.2771     0.0000    64.0000 </r>
       <r>    -7.0516     0.0000    64.0000 </r>
       <r>    -6.8260     0.0000    64.0000 </r>
       <r>    -6.6004     0.0000    64.0000 </r>
       <r>    -6.3749     0.0000    64.0000 </r>
       <r>    -6.1493     0.0000    64.0000 </r>
       <r>    -5.9238     0.0000    64.0000 </r>
       <r>    -5.6982     0.0000    64.0000 </r>
       <r>    -5.4727     0.0000    64.0000 </r>
       <r>    -5.2471     0.0000    64.0000 </r>
       <r>    -5.0216     0.0000    64.0000 </r>
       <r>    -4.7960     0.0000    64.0000 </r>
       <r>    -4.5705     0.0000    64.0000 </r>
       <r>    -4.3449     0.0000    64.0000 </r>
       <r>    -4.1193     0.0000    64.0000 </r>
       <r>    -3.8938     0.0000    64.0000 </r>
       <r>    -3.6682     0.0000    64.0000 </r>
       <r>    -3.4427     0.0000    64.0000 </r>
       <r>    -3.2171     0.0000    64.0000 </r>
       <r>    -2.9916     0.0000    64.0000 </r>
       <r>    -2.7660     0.0000    64.0000 </r>
       <r>    -2.5405     0.0000    64.0000 </r>
       <r>    -2.3149     0.0000    64.0000 </r>
       <r>    -2.0893    -0.0000    64.0000 </r>
       <r>    -1.8638    -0.0000    64.0000 </r>
       <r>    -1.6382    -0.0000    64.0000 </r>
       <r>    -1.4127    -0.0000    64.0000 </r>
       <r>    -1.1871    -0.0000    64.0000 </r>
       <r>    -0.9616    -0.0000    64.0000 </r>
       <r>    -0.7360    -0.0001    64.0000 </r>
       <r>    -0.5105    -0.0073    63.9983 </r>
       <r>    -0.2849     0.0248    64.0039 </r>
       <r>    -0.0593     0.4418    64.1036 </r>
       <r>     0.1662     0.9297    64.3133 </r>
       <r>     0.3918     1.2603    64.5975 </r>
       <r>     0.6173     1.5020    64.9363 </r>
       <r>     0.8429     1.8005    65.3424 </r>
       <r>     1.0684     2.0898    65.8138 </r>
       <r>     1.2940     2.3246    66.3381 </r>
       <r>     1.5195     2.9920    67.0130 </r>
       <r>     1.7451     2.9126    67.6699 </r>
       <r>     1.9707     2.9875    68.3438 </r>
       <r>     2.1962     3.3249    69.0937 </r>
       <r>     2.4218     3.0267    69.7764 </r>
       <r>     2.6473     2.9897    70.4508 </r>
       <r>     2.8729     3.7045    71.2863 </r>
       <r>     3.0984     3.1837    72.0045 </r>
       <r>     3.3240     3.2920    72.7470 </r>
       <r>     3.5495     3.8598    73.6176 </r>
       <r>     3.7751     4.6673    74.6703 </r>
       <r>     4.0006     4.7443    75.7404 </r>
       <r>     4.2262     4.1528    76.6771 </r>
       <r>     4.4518     5.0381    77.8135 </r>
       <r>     4.6773     4.3065    78.7848 </r>
       <r>     4.9029     4.2104    79.7345 </r>
       <r>     5.1284     4.8380    80.8257 </r>
       <r>     5.3540     6.5237    82.2972 </r>
       <r>     5.5795     5.6251    83.5660 </r>
       <r>     5.8051     5.7093    84.8537 </r>
       <r>     6.0306     7.8935    86.6342 </r>
       <r>     6.2562    11.0668    89.1303 </r>
       <r>     6.4818    12.4531    91.9392 </r>
       <r>     6.7073    12.5213    94.7635 </r>
       <r>     6.9329    15.3686    98.2299 </r>
       <r>     7.1584    19.0263   102.5214 </r>
       <r>     7.3840    12.5700   105.3566 </r>
       <r>     7.6095    11.5690   107.9661 </r>
       <r>     7.8351    16.9461   111.7884 </r>
       <r>     8.0606    20.4397   116.3987 </r>
       <r>     8.2862    27.6447   122.6341 </r>
       <r>     8.5118    27.3927   128.8126 </r>
       <r>     8.7373    64.6155   143.3870 </r>
       <r>     8.9629   119.8384   170.4172 </r>
       <r>     9.1884    97.1424   192.3282 </r>
       <r>     9.4140    46.7788   202.8794 </r>
       <r>     9.6395    10.8000   205.3154 </r>
       <r>     9.8651    12.9305   208.2319 </r>
       <r>    10.0906    22.0656   213.2089 </r>
       <r>    10.3162    26.9524   219.2882 </r>
       <r>    10.5418    33.3623   226.8132 </r>
       <r>    10.7673    28.9305   233.3387 </r>
       <r>    10.9929    21.8699   238.2716 </r>
       <r>    11.2184    14.3735   241.5136 </r>
       <r>    11.4440     9.8733   243.7406 </r>
       <r>    11.6695     9.4671   245.8759 </r>
       <r>    11.8951     7.3026   247.5231 </r>
       <r>    12.1206     4.8122   248.6085 </r>
       <r>    12.3462     6.2808   250.0251 </r>
       <r>    12.5718    12.0411   252.7411 </r>
       <r>    12.7973    11.2345   255.2751 </r>
       <r>    13.0229     2.7338   255.8917 </r>
       <r>    13.2484     0.3106   255.9618 </r>
       <r>    13.4740     0.1736   256.0009 </r>
       <r>    13.6995    -0.0017   256.0005 </r>
       <r>    13.9251    -0.0024   256.0000 </r>
       <r>    14.1506    -0.0000   256.0000 </r>
       <r>    14.3762    -0.0000   256.0000 </r>
       <r>    14.6017    -0.0000   256.0000 </r>
       <r>    14.8273     0.0000   256.0000 </r>
       <r>    15.0529     0.0000   256.0000 </r>
       <r>    15.2784     0.0000   256.0000 </r>
       <r>    15.5040     0.0000   256.0000 </r>
       <r>    15.7295     0.0000   256.0000 </r>
       <r>    15.9551     0.0000   256.0000 </r>
       <r>    16.1806     0.0000   256.0000 </r>
       <r>    16.4062     0.0000   256.0000 </r>
      </set>
     </set>
    </array>
   </total>
  </dos>
 </calculation>
 <structure name="finalpos" >
  <crystal>
   <varray name="basis" >
    <v>       5.57149629       0.00000000       0.00000000 </v>
    <v>       0.00000000       5.57149629       0.00000000 </v>
    <v>       0.00000000       0.00000000       7.99925885 </v>
   </varray>
   <i name="volume">    248.30956067 </i>
   <varray name="rec_basis" >
    <v>       0.17948500       0.00000000       0.00000000 </v>
    <v>       0.00000000       0.17948500       0.00000000 </v>
    <v>       0.00000000       0.00000000       0.12501158 </v>
   </varray>
  </crystal>
  <varray name="positions" >
   <v>       0.00000000       0.00000000       0.00000000 </v>
   <v>       0.00000000       0.00000000       0.50000000 </v>
   <v>       0.00000000       0.50000000       0.00000000 </v>
   <v>       0.00000000       0.50000000       0.50000000 </v>
   <v>       0.50000000       0.00000000       0.00000000 </v>
   <v>       0.50000000       0.00000000       0.50000000 </v>
   <v>       0.50000000       0.50000000       0.00000000 </v>
   <v>       0.50000000       0.50000000       0.50000000 </v>
   <v>       0.25000000       0.25000000       0.25000000 </v>
   <v>       0.25000000       0.25000000       0.75000000 </v>
   <v>       0.25000000       0.75000000       0.25000000 </v>
   <v>       0.25000000       0.75000000       0.75000000 </v>
   <v>       0.75000000       0.25000000       0.25000000 </v>
   <v>       0.75000000       0.25000000       0.75000000 </v>
   <v>       0.75000000       0.75000000       0.25000000 </v>
   <v>       0.75000000       0.75000000       0.75000000 </v>
   <v>       0.25000000       0.25000000       0.24812483 </v>
   <v>       0.25000000       0.25000000       0.75000000 </v>
   <v>       0.25000000       0.75000000       0.25000000 </v>
   <v>       0.25000000       0.75000000       0.75000000 </v>
   <v>       0.75000000       0.25000000       0.25000000 </v>
   <v>       0.75000000       0.25000000       0.75000000 </v>
   <v>       0.75000000       0.75000000       0.25000000 </v>
   <v>       0.75000000       0.75000000       0.75000000 </v>
  </varray>
 </structure>
</modeling>
