   16   16  300    1
  0.1622832E+02  0.5647637E-09  0.5647637E-09  0.8140666E-09  0.5000000E-15
  1.000000000000000E-004
  CAR 
 CaNi2                                   
    121     30     88
 
  0.1276756E-14  0.1276756E-14  0.1276756E-14  0.6944444E-02
      1        -48.472768   1.000000
      2        -48.449347   1.000000
      3        -48.379682   1.000000
      4        -48.365866   1.000000
      5        -48.356011   1.000000
      6        -48.218215   1.000000
      7        -48.174177   1.000000
      8        -24.872800   1.000000
      9        -24.872800   1.000000
     10        -24.823213   1.000000
     11        -24.802121   1.000000
     12        -24.802121   1.000000
     13        -24.798108   1.000000
     14        -24.783508   1.000000
     15        -24.782305   1.000000
     16        -24.782305   1.000000
     17        -24.761702   1.000000
     18        -24.728813   1.000000
     19        -24.728813   1.000000
     20        -24.715382   1.000000
     21        -24.583876   1.000000
     22        -24.567437   1.000000
     23        -24.376668   1.000000
     24        -24.376668   1.000000
     25        -24.285125   1.000000
     26        -24.285125   1.000000
     27        -24.229498   1.000000
     28        -24.229498   1.000000
     29         -6.559446   1.000000
     30         -6.555913   1.000000
     31         -6.555913   1.000000
     32         -6.552575   1.000000
     33         -6.509476   1.000000
     34         -1.368034   1.000000
     35          0.406552   1.000000
     36          1.422881   1.000000
     37          3.420712   1.000000
     38          3.420712   1.000000
     39          3.447851   1.000000
     40          3.447851   1.000000
     41          3.461824   1.000000
     42          3.754287   1.000000
     43          4.822331   1.000000
     44          5.231633   1.000000
     45          5.231870   1.000000
     46          5.684215   1.000000
     47          6.068601   1.000000
     48          6.135220   1.000000
     49          6.135220   1.000000
     50          6.422860   1.000000
     51          6.422860   1.000000
     52          6.580647   1.000000
     53          6.753046   1.000000
     54          6.753046   1.000000
     55          7.137994   1.000000
     56          7.281605   1.000000
     57          7.480045   1.000000
     58          7.691664   1.000000
     59          7.691664   1.000000
     60          7.769142   1.000000
     61          7.794264   1.000000
     62          8.254545   0.573056
     63          8.328167   0.195717
     64          8.328167   0.195717
     65          8.949410   0.000000
     66          9.359177   0.000000
     67          9.626066   0.000000
     68          9.899860   0.000000
     69         10.012055   0.000000
     70         10.050980   0.000000
     71         10.054401   0.000000
     72         10.105212   0.000000
     73         10.228235   0.000000
     74         10.228235   0.000000
     75         10.503472   0.000000
     76         10.503472   0.000000
     77         10.522969   0.000000
     78         10.738899   0.000000
     79         10.738899   0.000000
     80         10.900820   0.000000
     81         11.252472   0.000000
     82         11.417994   0.000000
     83         11.417994   0.000000
     84         11.608991   0.000000
     85         11.608991   0.000000
     86         11.626679   0.000000
     87         12.222028   0.000000
     88         12.486919   0.000000
 
  0.1666667E+00  0.1276756E-14  0.1276756E-14  0.2777778E-01
      1        -48.470471   1.000000
      2        -48.449459   1.000000
      3        -48.377034   1.000000
      4        -48.368117   1.000000
      5        -48.356238   1.000000
      6        -48.219027   1.000000
      7        -48.175918   1.000000
      8        -24.870955   1.000000
      9        -24.844599   1.000000
     10        -24.820807   1.000000
     11        -24.798391   1.000000
     12        -24.797692   1.000000
     13        -24.784047   1.000000
     14        -24.781096   1.000000
     15        -24.779053   1.000000
     16        -24.770129   1.000000
     17        -24.762028   1.000000
     18        -24.733261   1.000000
     19        -24.717558   1.000000
     20        -24.699296   1.000000
     21        -24.584083   1.000000
     22        -24.569463   1.000000
     23        -24.410111   1.000000
     24        -24.376814   1.000000
     25        -24.318433   1.000000
     26        -24.283031   1.000000
     27        -24.261212   1.000000
     28        -24.231673   1.000000
     29         -6.558913   1.000000
     30         -6.555872   1.000000
     31         -6.555589   1.000000
     32         -6.550244   1.000000
     33         -6.509101   1.000000
     34         -1.240357   1.000000
     35          0.512798   1.000000
     36          1.361443   1.000000
     37          2.479128   1.000000
     38          2.901311   1.000000
     39          3.497880   1.000000
     40          3.560118   1.000000
     41          3.711361   1.000000
     42          4.847493   1.000000
     43          5.046072   1.000000
     44          5.079035   1.000000
     45          5.238233   1.000000
     46          5.690152   1.000000
     47          5.822070   1.000000
     48          5.955888   1.000000
     49          6.107337   1.000000
     50          6.297918   1.000000
     51          6.593709   1.000000
     52          6.752013   1.000000
     53          6.764339   1.000000
     54          6.788747   1.000000
     55          6.883216   1.000000
     56          7.279541   1.000000
     57          7.425611   1.000000
     58          7.569855   1.000000
     59          7.776669   1.000000
     60          7.827348   1.000000
     61          8.081241   0.995794
     62          8.191754   0.858176
     63          8.430281   0.010692
     64          8.766359   0.000000
     65          9.040507   0.000000
     66          9.442435   0.000000
     67          9.548741   0.000000
     68          9.757086   0.000000
     69          9.955440   0.000000
     70         10.033658   0.000000
     71         10.040548   0.000000
     72         10.153219   0.000000
     73         10.241082   0.000000
     74         10.244379   0.000000
     75         10.499637   0.000000
     76         10.507361   0.000000
     77         10.520707   0.000000
     78         10.555764   0.000000
     79         10.715017   0.000000
     80         10.758982   0.000000
     81         10.766537   0.000000
     82         11.369725   0.000000
     83         11.475692   0.000000
     84         11.496751   0.000000
     85         11.624802   0.000000
     86         11.709036   0.000000
     87         12.156030   0.000000
     88         12.282284   0.000000
 
  0.3333333E+00  0.1276756E-14  0.1276756E-14  0.2777778E-01
      1        -48.465430   1.000000
      2        -48.449808   1.000000
      3        -48.372925   1.000000
      4        -48.370390   1.000000
      5        -48.357975   1.000000
      6        -48.220527   1.000000
      7        -48.179563   1.000000
      8        -24.867023   1.000000
      9        -24.815372   1.000000
     10        -24.801253   1.000000
     11        -24.799293   1.000000
     12        -24.787935   1.000000
     13        -24.785999   1.000000
     14        -24.775038   1.000000
     15        -24.763816   1.000000
     16        -24.744825   1.000000
     17        -24.735801   1.000000
     18        -24.722173   1.000000
     19        -24.683920   1.000000
     20        -24.622936   1.000000
     21        -24.583770   1.000000
     22        -24.574251   1.000000
     23        -24.500639   1.000000
     24        -24.404977   1.000000
     25        -24.377111   1.000000
     26        -24.344286   1.000000
     27        -24.278170   1.000000
     28        -24.236707   1.000000
     29         -6.558382   1.000000
     30         -6.555795   1.000000
     31         -6.554945   1.000000
     32         -6.545062   1.000000
     33         -6.508355   1.000000
     34         -0.881696   1.000000
     35          0.793110   1.000000
     36          0.825483   1.000000
     37          2.089127   1.000000
     38          2.318924   1.000000
     39          3.708664   1.000000
     40          3.887734   1.000000
     41          4.056354   1.000000
     42          4.471066   1.000000
     43          4.704310   1.000000
     44          5.147721   1.000000
     45          5.228626   1.000000
     46          5.645205   1.000000
     47          5.886143   1.000000
     48          5.947790   1.000000
     49          6.026128   1.000000
     50          6.608032   1.000000
     51          6.676603   1.000000
     52          6.816622   1.000000
     53          6.953000   1.000000
     54          7.021022   1.000000
     55          7.291443   1.000000
     56          7.294205   1.000000
     57          7.559934   1.000000
     58          7.707288   1.000000
     59          7.778941   1.000000
     60          7.886585   1.000000
     61          8.106521   0.988623
     62          8.488432   0.000894
     63          8.647338   0.000000
     64          8.856053   0.000000
     65          9.090192   0.000000
     66          9.217722   0.000000
     67          9.291126   0.000000
     68          9.450029   0.000000
     69          9.618217   0.000000
     70          9.910187   0.000000
     71         10.022553   0.000000
     72         10.154871   0.000000
     73         10.158170   0.000000
     74         10.236480   0.000000
     75         10.305987   0.000000
     76         10.394044   0.000000
     77         10.503909   0.000000
     78         10.566511   0.000000
     79         10.639293   0.000000
     80         10.650915   0.000000
     81         11.151642   0.000000
     82         11.159441   0.000000
     83         11.170384   0.000000
     84         11.213947   0.000000
     85         11.562534   0.000000
     86         11.712371   0.000000
     87         12.137097   0.000000
     88         12.209185   0.000000
 
  0.5000000E+00  0.1276756E-14  0.1276756E-14  0.1388889E-01
      1        -48.462585   1.000000
      2        -48.450115   1.000000
      3        -48.375519   1.000000
      4        -48.363740   1.000000
      5        -48.362148   1.000000
      6        -48.221203   1.000000
      7        -48.181484   1.000000
      8        -24.864914   1.000000
      9        -24.812109   1.000000
     10        -24.800130   1.000000
     11        -24.795715   1.000000
     12        -24.789842   1.000000
     13        -24.776465   1.000000
     14        -24.768427   1.000000
     15        -24.768268   1.000000
     16        -24.754500   1.000000
     17        -24.724660   1.000000
     18        -24.623745   1.000000
     19        -24.620197   1.000000
     20        -24.585444   1.000000
     21        -24.585105   1.000000
     22        -24.582563   1.000000
     23        -24.577730   1.000000
     24        -24.470381   1.000000
     25        -24.418693   1.000000
     26        -24.377264   1.000000
     27        -24.275234   1.000000
     28        -24.239739   1.000000
     29         -6.558227   1.000000
     30         -6.555757   1.000000
     31         -6.554621   1.000000
     32         -6.542365   1.000000
     33         -6.507981   1.000000
     34         -0.538588   1.000000
     35          0.280475   1.000000
     36          1.220101   1.000000
     37          1.513368   1.000000
     38          2.494067   1.000000
     39          3.894201   1.000000
     40          3.905931   1.000000
     41          4.290984   1.000000
     42          4.441827   1.000000
     43          4.596774   1.000000
     44          4.792493   1.000000
     45          4.846648   1.000000
     46          5.353330   1.000000
     47          5.758883   1.000000
     48          5.977852   1.000000
     49          6.645485   1.000000
     50          6.664726   1.000000
     51          6.737173   1.000000
     52          7.087826   1.000000
     53          7.098978   1.000000
     54          7.231286   1.000000
     55          7.320642   1.000000
     56          7.485308   1.000000
     57          7.680430   1.000000
     58          7.836105   1.000000
     59          7.947105   0.999997
     60          7.981318   0.999974
     61          8.296198   0.342775
     62          8.471476   0.001965
     63          8.493691   0.000692
     64          8.891940   0.000000
     65          8.895872   0.000000
     66          9.052193   0.000000
     67          9.107025   0.000000
     68          9.193397   0.000000
     69          9.546725   0.000000
     70          9.627414   0.000000
     71          9.928899   0.000000
     72         10.096431   0.000000
     73         10.136483   0.000000
     74         10.172335   0.000000
     75         10.348144   0.000000
     76         10.497681   0.000000
     77         10.615138   0.000000
     78         10.642025   0.000000
     79         10.745619   0.000000
     80         10.773127   0.000000
     81         10.935247   0.000000
     82         10.954052   0.000000
     83         11.003858   0.000000
     84         11.124846   0.000000
     85         11.404951   0.000000
     86         11.827840   0.000000
     87         11.851006   0.000000
     88         12.289565   0.000000
 
  0.1666667E+00  0.1666667E+00  0.1276756E-14  0.2777778E-01
      1        -48.468088   1.000000
      2        -48.449543   1.000000
      3        -48.374503   1.000000
      4        -48.370477   1.000000
      5        -48.356223   1.000000
      6        -48.220035   1.000000
      7        -48.177579   1.000000
      8        -24.843226   1.000000
      9        -24.841038   1.000000
     10        -24.818353   1.000000
     11        -24.798589   1.000000
     12        -24.783594   1.000000
     13        -24.779215   1.000000
     14        -24.778819   1.000000
     15        -24.766349   1.000000
     16        -24.765344   1.000000
     17        -24.762137   1.000000
     18        -24.719841   1.000000
     19        -24.705419   1.000000
     20        -24.701752   1.000000
     21        -24.584449   1.000000
     22        -24.571393   1.000000
     23        -24.411275   1.000000
     24        -24.409284   1.000000
     25        -24.317954   1.000000
     26        -24.314611   1.000000
     27        -24.263658   1.000000
     28        -24.263263   1.000000
     29         -6.558059   1.000000
     30         -6.555551   1.000000
     31         -6.555550   1.000000
     32         -6.548228   1.000000
     33         -6.508756   1.000000
     34         -1.114081   1.000000
     35          0.619026   1.000000
     36          1.351355   1.000000
     37          2.376766   1.000000
     38          2.756801   1.000000
     39          2.936323   1.000000
     40          3.089471   1.000000
     41          4.562267   1.000000
     42          4.724471   1.000000
     43          5.024215   1.000000
     44          5.186250   1.000000
     45          5.379006   1.000000
     46          5.716110   1.000000
     47          5.849059   1.000000
     48          5.856692   1.000000
     49          6.113194   1.000000
     50          6.324339   1.000000
     51          6.434836   1.000000
     52          6.764462   1.000000
     53          6.845222   1.000000
     54          6.915777   1.000000
     55          7.248280   1.000000
     56          7.344768   1.000000
     57          7.432338   1.000000
     58          7.627825   1.000000
     59          7.819444   1.000000
     60          7.946537   0.999997
     61          8.071457   0.997226
     62          8.170984   0.914013
     63          8.434749   0.009032
     64          8.938733   0.000000
     65          9.156343   0.000000
     66          9.400926   0.000000
     67          9.500972   0.000000
     68          9.785648   0.000000
     69          9.873142   0.000000
     70          9.916522   0.000000
     71         10.009346   0.000000
     72         10.029940   0.000000
     73         10.183878   0.000000
     74         10.226763   0.000000
     75         10.293875   0.000000
     76         10.295066   0.000000
     77         10.448354   0.000000
     78         10.452825   0.000000
     79         10.659116   0.000000
     80         10.871054   0.000000
     81         10.884787   0.000000
     82         11.151611   0.000000
     83         11.353798   0.000000
     84         11.514541   0.000000
     85         11.657216   0.000000
     86         11.776526   0.000000
     87         12.147531   0.000000
     88         12.432403   0.000000
 
  0.3333333E+00  0.1666667E+00  0.1276756E-14  0.5555556E-01
      1        -48.462835   1.000000
      2        -48.449828   1.000000
      3        -48.375562   1.000000
      4        -48.368239   1.000000
      5        -48.357317   1.000000
      6        -48.221989   1.000000
      7        -48.181036   1.000000
      8        -24.836539   1.000000
      9        -24.812803   1.000000
     10        -24.799847   1.000000
     11        -24.799312   1.000000
     12        -24.785884   1.000000
     13        -24.773189   1.000000
     14        -24.763348   1.000000
     15        -24.754674   1.000000
     16        -24.737851   1.000000
     17        -24.724749   1.000000
     18        -24.714874   1.000000
     19        -24.680058   1.000000
     20        -24.626406   1.000000
     21        -24.584588   1.000000
     22        -24.575899   1.000000
     23        -24.500941   1.000000
     24        -24.410584   1.000000
     25        -24.403109   1.000000
     26        -24.346681   1.000000
     27        -24.311110   1.000000
     28        -24.268660   1.000000
     29         -6.557109   1.000000
     30         -6.555473   1.000000
     31         -6.554906   1.000000
     32         -6.543448   1.000000
     33         -6.508065   1.000000
     34         -0.760591   1.000000
     35          0.899561   1.000000
     36          0.931635   1.000000
     37          2.174442   1.000000
     38          2.190924   1.000000
     39          3.027037   1.000000
     40          3.341969   1.000000
     41          3.848817   1.000000
     42          4.506771   1.000000
     43          4.560911   1.000000
     44          5.297471   1.000000
     45          5.618954   1.000000
     46          5.931385   1.000000
     47          6.058610   1.000000
     48          6.203656   1.000000
     49          6.354734   1.000000
     50          6.533734   1.000000
     51          6.654721   1.000000
     52          6.977242   1.000000
     53          7.010711   1.000000
     54          7.085749   1.000000
     55          7.271871   1.000000
     56          7.564633   1.000000
     57          7.603581   1.000000
     58          7.807093   1.000000
     59          7.896255   1.000000
     60          7.929290   0.999999
     61          8.101664   0.990518
     62          8.383273   0.050885
     63          8.624949   0.000000
     64          8.943066   0.000000
     65          9.117262   0.000000
     66          9.218646   0.000000
     67          9.427192   0.000000
     68          9.465685   0.000000
     69          9.512921   0.000000
     70          9.688633   0.000000
     71          9.804298   0.000000
     72          9.996543   0.000000
     73         10.004362   0.000000
     74         10.168210   0.000000
     75         10.215146   0.000000
     76         10.259206   0.000000
     77         10.320141   0.000000
     78         10.348454   0.000000
     79         10.637264   0.000000
     80         10.837252   0.000000
     81         10.929954   0.000000
     82         11.001729   0.000000
     83         11.303279   0.000000
     84         11.442591   0.000000
     85         11.771988   0.000000
     86         12.004751   0.000000
     87         12.008126   0.000000
     88         12.276991   0.000000
 
  0.5000000E+00  0.1666667E+00  0.1276756E-14  0.2777778E-01
      1        -48.459834   1.000000
      2        -48.450114   1.000000
      3        -48.378329   1.000000
      4        -48.362080   1.000000
      5        -48.360851   1.000000
      6        -48.222922   1.000000
      7        -48.182841   1.000000
      8        -24.833134   1.000000
      9        -24.809414   1.000000
     10        -24.800079   1.000000
     11        -24.797508   1.000000
     12        -24.787049   1.000000
     13        -24.767203   1.000000
     14        -24.767077   1.000000
     15        -24.745310   1.000000
     16        -24.727402   1.000000
     17        -24.724210   1.000000
     18        -24.624994   1.000000
     19        -24.620197   1.000000
     20        -24.584143   1.000000
     21        -24.583839   1.000000
     22        -24.583197   1.000000
     23        -24.578983   1.000000
     24        -24.472310   1.000000
     25        -24.420058   1.000000
     26        -24.410767   1.000000
     27        -24.308134   1.000000
     28        -24.271803   1.000000
     29         -6.556832   1.000000
     30         -6.555436   1.000000
     31         -6.554583   1.000000
     32         -6.540866   1.000000
     33         -6.507720   1.000000
     34         -0.427587   1.000000
     35          0.412291   1.000000
     36          1.326842   1.000000
     37          1.616676   1.000000
     38          2.341028   1.000000
     39          3.347223   1.000000
     40          3.464110   1.000000
     41          3.823904   1.000000
     42          3.875406   1.000000
     43          4.091007   1.000000
     44          5.517689   1.000000
     45          5.762456   1.000000
     46          5.822942   1.000000
     47          6.090328   1.000000
     48          6.259857   1.000000
     49          6.379197   1.000000
     50          6.775385   1.000000
     51          6.819906   1.000000
     52          7.127412   1.000000
     53          7.268587   1.000000
     54          7.290585   1.000000
     55          7.452340   1.000000
     56          7.558293   1.000000
     57          7.653604   1.000000
     58          7.934703   0.999999
     59          8.033691   0.999529
     60          8.077063   0.996471
     61          8.308185   0.282838
     62          8.394518   0.036298
     63          8.436272   0.008520
     64          8.859757   0.000000
     65          8.903367   0.000000
     66          9.226954   0.000000
     67          9.228092   0.000000
     68          9.365039   0.000000
     69          9.382191   0.000000
     70          9.522695   0.000000
     71          9.619009   0.000000
     72          9.843713   0.000000
     73          9.960130   0.000000
     74         10.169824   0.000000
     75         10.198840   0.000000
     76         10.203754   0.000000
     77         10.379378   0.000000
     78         10.590452   0.000000
     79         10.612907   0.000000
     80         10.660540   0.000000
     81         10.793528   0.000000
     82         11.041664   0.000000
     83         11.302316   0.000000
     84         11.396204   0.000000
     85         11.763978   0.000000
     86         11.902969   0.000000
     87         12.069777   0.000000
     88         12.070830   0.000000
 
  0.3333333E+00  0.3333333E+00  0.1276756E-14  0.2777778E-01
      1        -48.457051   1.000000
      2        -48.449922   1.000000
      3        -48.381366   1.000000
      4        -48.363156   1.000000
      5        -48.356632   1.000000
      6        -48.224971   1.000000
      7        -48.184062   1.000000
      8        -24.807010   1.000000
      9        -24.800516   1.000000
     10        -24.799516   1.000000
     11        -24.786738   1.000000
     12        -24.768801   1.000000
     13        -24.762970   1.000000
     14        -24.745749   1.000000
     15        -24.739789   1.000000
     16        -24.730399   1.000000
     17        -24.672506   1.000000
     18        -24.667560   1.000000
     19        -24.641599   1.000000
     20        -24.630526   1.000000
     21        -24.585996   1.000000
     22        -24.579489   1.000000
     23        -24.504418   1.000000
     24        -24.498443   1.000000
     25        -24.402597   1.000000
     26        -24.394802   1.000000
     27        -24.352060   1.000000
     28        -24.351129   1.000000
     29         -6.555348   1.000000
     30         -6.554829   1.000000
     31         -6.554828   1.000000
     32         -6.539446   1.000000
     33         -6.507486   1.000000
     34         -0.427193   1.000000
     35          1.071224   1.000000
     36          1.243613   1.000000
     37          1.616736   1.000000
     38          2.391367   1.000000
     39          2.643727   1.000000
     40          2.778803   1.000000
     41          3.295698   1.000000
     42          3.721163   1.000000
     43          4.785775   1.000000
     44          4.960633   1.000000
     45          5.818598   1.000000
     46          6.392085   1.000000
     47          6.582240   1.000000
     48          6.628689   1.000000
     49          6.849254   1.000000
     50          6.973042   1.000000
     51          6.980943   1.000000
     52          7.144097   1.000000
     53          7.197007   1.000000
     54          7.312620   1.000000
     55          7.347976   1.000000
     56          7.646326   1.000000
     57          7.811353   1.000000
     58          7.919896   1.000000
     59          7.939649   0.999998
     60          8.087773   0.994500
     61          8.318659   0.234977
     62          8.373339   0.067347
     63          8.637087   0.000000
     64          8.781095   0.000000
     65          9.075103   0.000000
     66          9.228238   0.000000
     67          9.248207   0.000000
     68          9.437798   0.000000
     69          9.573910   0.000000
     70          9.600240   0.000000
     71          9.620871   0.000000
     72          9.759730   0.000000
     73          9.865264   0.000000
     74          9.944771   0.000000
     75          9.960690   0.000000
     76          9.990388   0.000000
     77         10.057239   0.000000
     78         10.131738   0.000000
     79         10.333358   0.000000
     80         10.616891   0.000000
     81         10.782942   0.000000
     82         11.082672   0.000000
     83         11.342469   0.000000
     84         11.703514   0.000000
     85         11.776180   0.000000
     86         12.177966   0.000000
     87         12.198155   0.000000
     88         12.503247   0.000000
 
  0.5000000E+00  0.3333333E+00  0.1276756E-14  0.2777778E-01
      1        -48.453663   1.000000
      2        -48.450111   1.000000
      3        -48.384620   1.000000
      4        -48.358631   1.000000
      5        -48.358195   1.000000
      6        -48.226493   1.000000
      7        -48.185618   1.000000
      8        -24.803401   1.000000
      9        -24.800000   1.000000
     10        -24.799564   1.000000
     11        -24.782974   1.000000
     12        -24.764684   1.000000
     13        -24.764633   1.000000
     14        -24.745770   1.000000
     15        -24.733555   1.000000
     16        -24.661660   1.000000
     17        -24.644966   1.000000
     18        -24.627560   1.000000
     19        -24.620223   1.000000
     20        -24.586463   1.000000
     21        -24.581556   1.000000
     22        -24.581290   1.000000
     23        -24.578885   1.000000
     24        -24.501551   1.000000
     25        -24.476527   1.000000
     26        -24.423647   1.000000
     27        -24.394635   1.000000
     28        -24.354739   1.000000
     29         -6.554791   1.000000
     30         -6.554760   1.000000
     31         -6.554507   1.000000
     32         -6.537157   1.000000
     33         -6.507197   1.000000
     34         -0.133134   1.000000
     35          0.801509   1.000000
     36          1.636007   1.000000
     37          1.749086   1.000000
     38          1.922200   1.000000
     39          2.307821   1.000000
     40          3.009635   1.000000
     41          3.082614   1.000000
     42          3.485368   1.000000
     43          4.412568   1.000000
     44          5.074983   1.000000
     45          5.720943   1.000000
     46          6.575766   1.000000
     47          6.711922   1.000000
     48          6.896013   1.000000
     49          7.048083   1.000000
     50          7.079174   1.000000
     51          7.137344   1.000000
     52          7.184576   1.000000
     53          7.447293   1.000000
     54          7.544975   1.000000
     55          7.623346   1.000000
     56          7.727500   1.000000
     57          7.758882   1.000000
     58          8.046924   0.999097
     59          8.160692   0.934663
     60          8.239280   0.655435
     61          8.291993   0.364881
     62          8.401712   0.028908
     63          8.515079   0.000232
     64          8.822768   0.000000
     65          8.973361   0.000000
     66          9.013509   0.000000
     67          9.256641   0.000000
     68          9.331723   0.000000
     69          9.419949   0.000000
     70          9.578564   0.000000
     71          9.625591   0.000000
     72          9.714771   0.000000
     73          9.757498   0.000000
     74          9.810998   0.000000
     75          9.813076   0.000000
     76          9.882968   0.000000
     77          9.999195   0.000000
     78         10.163902   0.000000
     79         10.242067   0.000000
     80         10.257967   0.000000
     81         10.825865   0.000000
     82         11.335709   0.000000
     83         11.449599   0.000000
     84         11.698534   0.000000
     85         11.708445   0.000000
     86         11.993353   0.000000