       N       E                     dE             d eps       ncg     rms          rms(c)
DAV:   1     0.954999535066E+03    0.95500E+03   -0.62427E+04  5280   0.160E+03
DAV:   2    -0.747359262734E+01   -0.96247E+03   -0.95592E+03  5280   0.407E+02
DAV:   3    -0.101598750034E+03   -0.94125E+02   -0.93740E+02 10560   0.103E+02
DAV:   4    -0.105224517032E+03   -0.36258E+01   -0.36248E+01  5632   0.197E+01
DAV:   5    -0.105415406926E+03   -0.19089E+00   -0.19088E+00  9240   0.358E+00    0.258E+01
DAV:   6    -0.959624512670E+02    0.94530E+01   -0.13140E+02  8668   0.371E+01    0.116E+01
DAV:   7    -0.956912808807E+02    0.27117E+00   -0.51547E+01  7524   0.194E+01    0.117E+01
DAV:   8    -0.940629147477E+02    0.16284E+01   -0.18311E+01  7656   0.919E+00    0.544E+00
DAV:   9    -0.943409757211E+02   -0.27806E+00   -0.91059E+00  8008   0.889E+00    0.638E+00
DAV:  10    -0.938608000667E+02    0.48018E+00   -0.49412E+00  8228   0.546E+00    0.219E+00
DAV:  11    -0.938504500783E+02    0.10350E-01   -0.99669E-01  8448   0.282E+00    0.172E+00
DAV:  12    -0.938259353999E+02    0.24515E-01   -0.33847E-01  7480   0.169E+00    0.723E-01
DAV:  13    -0.938230412848E+02    0.28941E-02   -0.97726E-02  7832   0.117E+00    0.462E-01
DAV:  14    -0.938226937864E+02    0.34750E-03   -0.17053E-02  7392   0.536E-01    0.138E-01
DAV:  15    -0.938225924464E+02    0.10134E-03   -0.24010E-03  7128   0.173E-01    0.563E-02
DAV:  16    -0.938226075762E+02   -0.15130E-04   -0.16582E-04  7920   0.574E-02    0.113E-02
DAV:  17    -0.938226037752E+02    0.38010E-05   -0.11930E-05  5896   0.141E-02
   1 F= -.93822604E+02 E0= -.93791892E+02  d E =-.938226E+02
       N       E                     dE             d eps       ncg     rms          rms(c)
DAV:   1    -0.939049971025E+02   -0.82390E-01   -0.23741E+00  6292   0.918E+00    0.192E+00
DAV:   2    -0.938838868877E+02    0.21110E-01   -0.61906E-01  7392   0.286E+00    0.153E+00
DAV:   3    -0.938680721393E+02    0.15815E-01   -0.74476E-01  8052   0.200E+00    0.121E+00
DAV:   4    -0.938454823175E+02    0.22590E-01   -0.20077E-01  7568   0.118E+00    0.444E-01
DAV:   5    -0.938467195042E+02   -0.12372E-02   -0.87790E-02  8316   0.109E+00    0.545E-01
DAV:   6    -0.938430006045E+02    0.37189E-02   -0.36580E-02  8580   0.624E-01    0.186E-01
DAV:   7    -0.938429763770E+02    0.24228E-04   -0.29378E-03  7348   0.222E-01    0.140E-01
DAV:   8    -0.938430406740E+02   -0.64297E-04   -0.10858E-03  7480   0.150E-01    0.720E-02
DAV:   9    -0.938432210147E+02   -0.18034E-03   -0.18789E-03  8888   0.162E-01    0.109E-01
DAV:  10    -0.938431025810E+02    0.11843E-03   -0.11848E-03  8096   0.136E-01    0.195E-02
DAV:  11    -0.938431073232E+02   -0.47422E-05   -0.30767E-05  5500   0.245E-02
   2 F= -.93843107E+02 E0= -.93812690E+02  d E =-.205035E-01
       N       E                     dE             d eps       ncg     rms          rms(c)
DAV:   1    -0.939006004104E+02   -0.57498E-01   -0.13524E+00  6776   0.667E+00    0.170E+00
DAV:   2    -0.938812871304E+02    0.19313E-01   -0.73569E-01  7832   0.290E+00    0.121E+00
DAV:   3    -0.938753440207E+02    0.59431E-02   -0.66928E-01  8140   0.181E+00    0.121E+00
DAV:   4    -0.938525711653E+02    0.22773E-01   -0.22327E-01  8360   0.110E+00    0.348E-01
DAV:   5    -0.938537272908E+02   -0.11561E-02   -0.44935E-02  8580   0.668E-01    0.479E-01
DAV:   6    -0.938508884347E+02    0.28389E-02   -0.27377E-02  7656   0.529E-01    0.122E-01
DAV:   7    -0.938509054772E+02   -0.17043E-04   -0.12879E-03  6776   0.144E-01    0.101E-01
DAV:   8    -0.938509467263E+02   -0.41249E-04   -0.42021E-04  7260   0.854E-02    0.618E-02
DAV:   9    -0.938510536973E+02   -0.10697E-03   -0.97093E-04  8096   0.115E-01    0.787E-02
DAV:  10    -0.938509864652E+02    0.67232E-04   -0.64872E-04  7612   0.935E-02    0.765E-03
DAV:  11    -0.938509867117E+02   -0.24647E-06   -0.13667E-05  5500   0.150E-02
   3 F= -.93850987E+02 E0= -.93820516E+02  d E =-.787939E-02
       N       E                     dE             d eps       ncg     rms          rms(c)
DAV:   1    -0.938670431015E+02   -0.16057E-01   -0.58888E-01  6160   0.447E+00    0.854E-01
DAV:   2    -0.938715415983E+02   -0.44985E-02   -0.22864E-01  7480   0.146E+00    0.103E+00
DAV:   3    -0.938571816361E+02    0.14360E-01   -0.20452E-01  8184   0.103E+00    0.440E-01
DAV:   4    -0.938544631595E+02    0.27185E-02   -0.26730E-02  7700   0.558E-01    0.249E-01
DAV:   5    -0.938538019248E+02    0.66123E-03   -0.12495E-02  8404   0.381E-01    0.110E-01
DAV:   6    -0.938537007995E+02    0.10113E-03   -0.16999E-03  7612   0.146E-01    0.720E-02
DAV:   7    -0.938536865343E+02    0.14265E-04   -0.65117E-04  7480   0.109E-01    0.495E-02
DAV:   8    -0.938536851491E+02    0.13852E-05   -0.24367E-04  7260   0.640E-02    0.229E-02
DAV:   9    -0.938536982403E+02   -0.13091E-04   -0.25818E-04  7304   0.600E-02    0.351E-02
DAV:  10    -0.938536849074E+02    0.13333E-04   -0.13377E-04  6292   0.451E-02    0.737E-03
DAV:  11    -0.938536857253E+02   -0.81796E-06   -0.40058E-06  2860   0.106E-02
   4 F= -.93853686E+02 E0= -.93823374E+02  d E =-.269901E-02
       N       E                     dE             d eps       ncg     rms          rms(c)
DAV:   1    -0.938538009904E+02   -0.11608E-03   -0.17052E-03  6688   0.182E-01    0.638E-02
DAV:   2    -0.938539721670E+02   -0.17118E-03   -0.34573E-03  8272   0.150E-01    0.121E-01
DAV:   3    -0.938537511475E+02    0.22102E-03   -0.25264E-03  8536   0.113E-01    0.234E-02
DAV:   4    -0.938537418990E+02    0.92484E-05   -0.12649E-04  7260   0.343E-02    0.132E-02
DAV:   5    -0.938537419519E+02   -0.52851E-07   -0.57500E-05  6028   0.262E-02
   5 F= -.93853742E+02 E0= -.93823461E+02  d E =-.562265E-04
