 vasp.6.5.0 16Dec24 (build Apr 17 2025 17:55:45) complex                        
  
 executed on             LinuxIFC date 2025.06.03  18:32:53
 running   44 mpi-ranks, on    1 nodes
 distrk:  each k-point on   44 cores,    1 groups
 distr:  one band on NCORE=   1 cores,   44 groups


--------------------------------------------------------------------------------------------------------


 INCAR:
   SYSTEM = CaNi2
   ISTART = 0
   ICHARG = 2
   PREC = N
   LREAL = .FALSE.
   ENCUT = 520
   ALGO = N
   NELM = 500
   EDIFF = 1E-05
   IBRION = 1
   ISIF = 3
   NSW = 300
   EDIFFG = -0.01
   ISMEAR = 0
   SIGMA = 0.1

 POTCAR:    PAW_PBE Ga_d 06Jul2010                
 POTCAR:    PAW_PBE Ti_sv 26Sep2005               
 POTCAR:    PAW_PBE Al 04Jan2001                  
 -----------------------------------------------------------------------------
|                                                                             |
|           W    W    AA    RRRRR   N    N  II  N    N   GGGG   !!!           |
|           W    W   A  A   R    R  NN   N  II  NN   N  G    G  !!!           |
|           W    W  A    A  R    R  N N  N  II  N N  N  G       !!!           |
|           W WW W  AAAAAA  RRRRR   N  N N  II  N  N N  G  GGG   !            |
|           WW  WW  A    A  R   R   N   NN  II  N   NN  G    G                |
|           W    W  A    A  R    R  N    N  II  N    N   GGGG   !!!           |
|                                                                             |
|     For optimal performance we recommend to set                             |
|       NCORE = 2 up to number-of-cores-per-socket                            |
|     NCORE specifies how many cores store one orbital (NPAR=cpu/NCORE).      |
|     This setting can greatly improve the performance of VASP for DFT.       |
|     The default, NCORE=1 might be grossly inefficient on modern             |
|     multi-core architectures or massively parallel machines. Do your        |
|     own testing! More info at https://www.vasp.at/wiki/index.php/NCORE      |
|     Unfortunately you need to use the default for GW and RPA                |
|     calculations (for HF NCORE is supported but not extensively tested      |
|     yet).                                                                   |
|                                                                             |
 -----------------------------------------------------------------------------

 POTCAR:    PAW_PBE Ga_d 06Jul2010                
   SHA256 =  a60ddf36e14f00ea098d9e3914b3745f1b7105e68786148f49ae384e44b4226c Ga_d/POTCAR           
   COPYR  = (c) Copyright 06Jul2010 Georg Kresse                                                    
   COPYR  = This file is part of the software VASP. Any use, copying, and all other rights are regul
   COPYR  = If you do not have a valid VASP license, you may not use, copy or distribute this file. 
   VRHFIN =Ga: s2p1                                                                                 
   LEXCH  = PE                                                                                      
   EATOM  =  2148.8298 eV,  157.9345 Ry                                                             
                                                                                                    
   TITEL  = PAW_PBE Ga_d 06Jul2010                                                                  
   LULTRA =        F    use ultrasoft PP ?                                                          
   IUNSCR =        1    unscreen: 0-lin 1-nonlin 2-no                                               
   RPACOR =    1.700    partial core radius                                                         
   POMASS =   69.723; ZVAL   =   13.000    mass and valenz                                          
   RCORE  =    2.300    outmost cutoff radius                                                       
   RWIGS  =    2.300; RWIGS  =    1.217    wigner-seitz radius (au A)                               
   ENMAX  =  282.691; ENMIN  =  212.018 eV                                                          
   ICORE  =        3    local potential                                                             
   LCOR   =        T    correct aug charges                                                         
   LPAW   =        T    paw PP                                                                      
   EAUG   =  490.690                                                                                
   DEXC   =    0.000                                                                                
   RMAX   =    2.341    core radius for proj-oper                                                   
   RAUG   =    1.300    factor for augmentation sphere                                              
   RDEP   =    2.413    radius for radial grids                                                     
   RDEPT  =    1.856    core radius for aug-charge                                                  
                                                                                                    
   Atomic configuration                                                                             
    9 entries                                                                                       
     n  l   j            E        occ.                                                              
     1  0  0.50    -10228.7831   2.0000                                                             
     2  0  0.50     -1262.1604   2.0000                                                             
     2  1  1.50     -1098.6333   6.0000                                                             
     3  0  0.50      -148.1110   2.0000                                                             
     3  1  1.50       -98.8436   6.0000                                                             
     3  2  2.50       -19.1549  10.0000                                                             
     4  0  0.50        -8.9483   2.0000                                                             
     4  1  0.50        -2.5791   1.0000                                                             
     4  3  2.50        -2.7416   0.0000                                                             
   Description                                                                                      
     l       E           TYP  RCUT    TYP  RCUT                                                     
     2    -19.1549037     23  2.300                                                                 
     2     -5.4423304     23  2.300                                                                 
     0     -8.9483111     23  2.300                                                                 
     0     68.0291300     23  2.300                                                                 
     1     -2.5790802     23  2.100                                                                 
     1     81.6349560     23  2.300                                                                 
     3      6.8029130     23  2.300                                                                 
  local pseudopotential read in
  partial core-charges read in
  partial kinetic energy density read in
  atomic valenz-charges read in
  non local Contribution for L=           2  read in
    real space projection operators read in
  non local Contribution for L=           2  read in
    real space projection operators read in
  non local Contribution for L=           0  read in
    real space projection operators read in
  non local Contribution for L=           0  read in
    real space projection operators read in
  non local Contribution for L=           1  read in
    real space projection operators read in
  non local Contribution for L=           1  read in
    real space projection operators read in
    PAW grid and wavefunctions read in
 
   number of l-projection  operators is LMAX  =           6
   number of lm-projection operators is LMMAX =          18
 
 POTCAR:    PAW_PBE Ti_sv 26Sep2005               
   SHA256 =  4d747badb5a5ea28d858fbac70885b3f8929d6fd9e5b0dbe1ecb9878dc164da1 Ti_sv/POTCAR          
   COPYR  = (c) Copyright 26Sep2005 Georg Kresse                                                    
   COPYR  = This file is part of the software VASP. Any use, copying, and all other rights are regul
   COPYR  = If you do not have a valid VASP license, you may not use, copy or distribute this file. 
   VRHFIN =Ti: 3p4s3d                                                                               
   LEXCH  = PE                                                                                      
   EATOM  =  1588.0892 eV,  116.7213 Ry                                                             
                                                                                                    
   TITEL  = PAW_PBE Ti_sv 26Sep2005                                                                 
   LULTRA =        F    use ultrasoft PP ?                                                          
   IUNSCR =        1    unscreen: 0-lin 1-nonlin 2-no                                               
   RPACOR =    2.000    partial core radius                                                         
   POMASS =   47.880; ZVAL   =   12.000    mass and valenz                                          
   RCORE  =    2.300    outmost cutoff radius                                                       
   RWIGS  =    2.300; RWIGS  =    1.217    wigner-seitz radius (au A)                               
   ENMAX  =  274.610; ENMIN  =  205.957 eV                                                          
   ICORE  =        3    local potential                                                             
   LCOR   =        T    correct aug charges                                                         
   LPAW   =        T    paw PP                                                                      
   EAUG   =  482.848                                                                                
   RMAX   =    2.348    core radius for proj-oper                                                   
   RAUG   =    1.300    factor for augmentation sphere                                              
   RDEP   =    2.381    radius for radial grids                                                     
   RDEPT  =    1.930    core radius for aug-charge                                                  
                                                                                                    
   Atomic configuration                                                                             
    8 entries                                                                                       
     n  l   j            E        occ.                                                              
     1  0  0.50     -4865.3608   2.0000                                                             
     2  0  0.50      -533.1368   2.0000                                                             
     2  1  1.50      -440.5031   6.0000                                                             
     3  0  0.50       -59.3186   2.0000                                                             
     4  0  0.50        -3.7291   1.0000                                                             
     3  1  1.50       -35.7012   6.0000                                                             
     3  2  2.50        -1.9157   3.0000                                                             
     4  3  2.50        -1.3606   0.0000                                                             
   Description                                                                                      
     l       E           TYP  RCUT    TYP  RCUT                                                     
     0    -59.3185931     23  1.800                                                                 
     0     -3.7290822     23  2.300                                                                 
     1    -35.7012045     23  2.300                                                                 
     1     -1.3605826     23  2.300                                                                 
     2     -1.9156920     23  2.300                                                                 
     2     -0.0236318     23  2.300                                                                 
     3     -1.3605826     23  2.300                                                                 
  local pseudopotential read in
  partial core-charges read in
  partial kinetic energy density read in
  atomic valenz-charges read in
  non local Contribution for L=           0  read in
    real space projection operators read in
  non local Contribution for L=           0  read in
    real space projection operators read in
  non local Contribution for L=           1  read in
    real space projection operators read in
  non local Contribution for L=           1  read in
    real space projection operators read in
  non local Contribution for L=           2  read in
    real space projection operators read in
  non local Contribution for L=           2  read in
    real space projection operators read in
    PAW grid and wavefunctions read in
 
   number of l-projection  operators is LMAX  =           6
   number of lm-projection operators is LMMAX =          18
 
 POTCAR:    PAW_PBE Al 04Jan2001                  
   SHA256 =  17880443556af62b473fe41b62a467bd001ad55d2cabe504a3f22e34d4e9db96 Al/POTCAR             
   COPYR  = (c) Copyright 04Jan2001 Georg Kresse                                                    
   COPYR  = This file is part of the software VASP. Any use, copying, and all other rights are regul
   COPYR  = If you do not have a valid VASP license, you may not use, copy or distribute this file. 
   VRHFIN =Al: s2p1                                                                                 
   LEXCH  = PE                                                                                      
   EATOM  =    53.5387 eV,    3.9350 Ry                                                             
                                                                                                    
   TITEL  = PAW_PBE Al 04Jan2001                                                                    
   LULTRA =        F    use ultrasoft PP ?                                                          
   IUNSCR =        1    unscreen: 0-lin 1-nonlin 2-no                                               
   RPACOR =    1.500    partial core radius                                                         
   POMASS =   26.981; ZVAL   =    3.000    mass and valenz                                          
   RCORE  =    1.900    outmost cutoff radius                                                       
   RWIGS  =    2.650; RWIGS  =    1.402    wigner-seitz radius (au A)                               
   ENMAX  =  240.300; ENMIN  =  180.225 eV                                                          
   ICORE  =        2    local potential                                                             
   LCOR   =        T    correct aug charges                                                         
   LPAW   =        T    paw PP                                                                      
   EAUG   =  291.052                                                                                
   DEXC   =    0.000                                                                                
   RMAX   =    1.939    core radius for proj-oper                                                   
   RAUG   =    1.300    factor for augmentation sphere                                              
   RDEP   =    1.966    radius for radial grids                                                     
   RDEPT  =    1.856    core radius for aug-charge                                                  
                                                                                                    
   Atomic configuration                                                                             
    6 entries                                                                                       
     n  l   j            E        occ.                                                              
     1  0  0.50     -1511.1048   2.0000                                                             
     2  0  0.50      -108.1629   2.0000                                                             
     2  1  1.50       -69.6402   6.0000                                                             
     3  0  0.50        -7.7528   2.0000                                                             
     3  1  1.50        -2.7121   1.0000                                                             
     3  2  2.50        -2.7212   0.0000                                                             
   Description                                                                                      
     l       E           TYP  RCUT    TYP  RCUT                                                     
     0     -7.7528455     23  1.900                                                                 
     0     -3.3096929     23  1.900                                                                 
     1     -2.7120682     23  1.900                                                                 
     1     13.6058260     23  1.900                                                                 
     2     -2.7211652      7  1.900                                                                 
  local pseudopotential read in
  partial core-charges read in
  partial kinetic energy density read in
  atomic valenz-charges read in
  non local Contribution for L=           0  read in
    real space projection operators read in
  non local Contribution for L=           0  read in
    real space projection operators read in
  non local Contribution for L=           1  read in
    real space projection operators read in
  non local Contribution for L=           1  read in
    real space projection operators read in
    PAW grid and wavefunctions read in
 
   number of l-projection  operators is LMAX  =           4
   number of lm-projection operators is LMMAX =           8
 
  PAW_PBE Ga_d 06Jul2010                :
 energy of atom  1       EATOM=-2148.8298
 kinetic energy error for atom=    0.0026 (will be added to EATOM!!)
  PAW_PBE Ti_sv 26Sep2005               :
 energy of atom  2       EATOM=-1588.0892
 kinetic energy error for atom=    0.0042 (will be added to EATOM!!)
  PAW_PBE Al 04Jan2001                  :
 energy of atom  3       EATOM=  -53.5387
 kinetic energy error for atom=    0.0002 (will be added to EATOM!!)
 
 
 POSCAR: Ti1 Al1
  positions in direct lattice
  No initial velocities read in


 exchange-correlation table for PE
   RHO(1)=    0.500       N(1)  =     2000
   RHO(2)=  100.500       N(2)  =     4000
 


--------------------------------------------------------------------------------------------------------


 ion  position               nearest neighbor table
   1  0.000  0.000  0.000-   3 2.82   5 2.82   3 2.82   5 2.82  11 2.85  12 2.85  13 2.85  14 2.85
                            15 2.85  16 2.85   9 2.85  10 2.85
   2  0.000  0.000  0.500-   4 2.82   6 2.82   4 2.82   6 2.82  11 2.85  12 2.85  13 2.85  14 2.85
                            15 2.85  16 2.85   9 2.85  10 2.85
   3  0.000  0.500  0.000-   1 2.82   7 2.82   1 2.82   7 2.82  11 2.85  12 2.85  13 2.85  14 2.85
                            15 2.85  16 2.85   9 2.85  10 2.85
   4  0.000  0.500  0.500-   2 2.82   8 2.82   2 2.82   8 2.82  11 2.85  12 2.85  13 2.85  14 2.85
                            15 2.85  16 2.85   9 2.85  10 2.85
   5  0.500  0.000  0.000-   1 2.82   7 2.82   7 2.82   1 2.82  11 2.85  12 2.85  13 2.85  14 2.85
                            15 2.85  16 2.85   9 2.85  10 2.85
   6  0.500  0.000  0.500-   2 2.82   8 2.82   8 2.82   2 2.82  11 2.85  12 2.85  13 2.85  14 2.85
                            15 2.85  16 2.85   9 2.85  10 2.85
   7  0.500  0.500  0.000-   3 2.82   5 2.82   5 2.82   3 2.82  11 2.85  12 2.85  13 2.85  14 2.85
                            15 2.85  16 2.85   9 2.85  10 2.85
   8  0.500  0.500  0.500-   4 2.82   6 2.82   6 2.82   4 2.82  11 2.85  12 2.85  13 2.85  14 2.85
                            15 2.85  16 2.85   9 2.85  10 2.85
   9  0.250  0.250  0.250-  11 2.82  13 2.82  11 2.82  13 2.82   5 2.85   6 2.85   7 2.85   8 2.85
                             1 2.85   2 2.85   3 2.85   4 2.85
  10  0.250  0.250  0.750-  12 2.82  14 2.82  12 2.82  14 2.82   5 2.85   6 2.85   7 2.85   8 2.85
                             1 2.85   2 2.85   3 2.85   4 2.85
  11  0.250  0.750  0.250-   9 2.82  15 2.82   9 2.82  15 2.82   5 2.85   6 2.85   7 2.85   8 2.85
                             1 2.85   2 2.85   3 2.85   4 2.85
  12  0.250  0.750  0.750-  10 2.82  16 2.82  10 2.82  16 2.82   5 2.85   6 2.85   7 2.85   8 2.85
                             1 2.85   2 2.85   3 2.85   4 2.85
  13  0.750  0.250  0.250-   9 2.82  15 2.82  15 2.82   9 2.82   5 2.85   6 2.85   7 2.85   8 2.85
                             1 2.85   2 2.85   3 2.85   4 2.85
  14  0.750  0.250  0.750-  10 2.82  16 2.82  16 2.82  10 2.82   5 2.85   6 2.85   7 2.85   8 2.85
                             1 2.85   2 2.85   3 2.85   4 2.85
  15  0.750  0.750  0.250-  11 2.82  13 2.82  13 2.82  11 2.82   5 2.85   6 2.85   7 2.85   8 2.85
                             1 2.85   2 2.85   3 2.85   4 2.85
  16  0.750  0.750  0.750-  12 2.82  14 2.82  14 2.82  12 2.82   5 2.85   6 2.85   7 2.85   8 2.85
                             1 2.85   2 2.85   3 2.85   4 2.85
 
  LATTYP: Found a simple tetragonal cell.
 ALAT       =     5.6476373672
 C/A-ratio  =     1.4414285973
  
  Lattice vectors:
  
 A1 = (   5.6476373672,   0.0000000000,   0.0000000000)
 A2 = (   0.0000000000,   5.6476373672,   0.0000000000)
 A3 = (   0.0000000000,   0.0000000000,   8.1406660080)


Analysis of symmetry for initial positions (statically):
=====================================================================
 Subroutine PRICEL returns:
 Original cell was already a primitive cell.
 

 Routine SETGRP: Setting up the symmetry group for a 
 simple tetragonal supercell.


 Subroutine GETGRP returns: Found 16 space group operations
 (whereof 16 operations were pure point group operations)
 out of a pool of 16 trial point group operations.


The static configuration has the point symmetry D_4h.


Analysis of symmetry for dynamics (positions and initial velocities):
=====================================================================
 Subroutine PRICEL returns:
 Original cell was already a primitive cell.
 

 Routine SETGRP: Setting up the symmetry group for a 
 simple tetragonal supercell.


 Subroutine GETGRP returns: Found 16 space group operations
 (whereof 16 operations were pure point group operations)
 out of a pool of 16 trial point group operations.


The dynamic configuration has the point symmetry D_4h.


 Subroutine INISYM returns: Found 16 space group operations
 (whereof 16 operations are pure point group operations),
 and found     1 'primitive' translations


----------------------------------------------------------------------------------------

                                     Primitive cell                                     

  volume of cell :     259.6531

  direct lattice vectors                    reciprocal lattice vectors
     5.647637367  0.000000000  0.000000000     0.177065193  0.000000000  0.000000000
     0.000000000  5.647637367  0.000000000     0.000000000  0.177065193  0.000000000
     0.000000000  0.000000000  8.140666008     0.000000000  0.000000000  0.122840072

  length of vectors
     5.647637367  5.647637367  8.140666008     0.177065193  0.177065193  0.122840072

  position of ions in fractional coordinates (direct lattice)
     0.000000000  0.000000000  0.000000000
     0.000000000  0.000000000  0.500000000
     0.000000000  0.500000000  0.000000000
     0.000000000  0.500000000  0.500000000
     0.500000000  0.000000000  0.000000000
     0.500000000  0.000000000  0.500000000
     0.500000000  0.500000000  0.000000000
     0.500000000  0.500000000  0.500000000
     0.250000000  0.250000000  0.250000000
     0.250000000  0.250000000  0.750000000
     0.250000000  0.750000000  0.250000000
     0.250000000  0.750000000  0.750000000
     0.750000000  0.250000000  0.250000000
     0.750000000  0.250000000  0.750000000
     0.750000000  0.750000000  0.250000000
     0.750000000  0.750000000  0.750000000

  ion indices of the primitive-cell ions
   primitive index   ion index
                 1           1
                 2           2
                 3           3
                 4           4
                 5           5
                 6           6
                 7           7
                 8           8
                 9           9
                10          10
                11          11
                12          12
                13          13
                14          14
                15          15
                16          16

----------------------------------------------------------------------------------------

 
 
 KPOINTS: K-Spacing Value to Generate K-Mesh: 0.03

Automatic generation of k-mesh.
 Grid dimensions read from file:
 generate k-points for:    6    6    4

 Generating k-lattice:

  Cartesian coordinates                     Fractional coordinates (reciprocal lattice)
     0.029510865  0.000000000  0.000000000     0.166666667  0.000000000  0.000000000
     0.000000000  0.029510865  0.000000000     0.000000000  0.166666667  0.000000000
     0.000000000  0.000000000  0.030710018     0.000000000  0.000000000  0.250000000

  Length of vectors
     0.029510865  0.029510865  0.030710018

  Shift w.r.t. Gamma in fractional coordinates (k-lattice)
     0.000000000  0.000000000  0.000000000

 
 Subroutine IBZKPT returns following result:
 ===========================================
 
 Found     30 irreducible k-points:
 
 Following reciprocal coordinates:
            Coordinates               Weight
  0.000000  0.000000  0.000000      1.000000
  0.166667  0.000000  0.000000      4.000000
  0.333333  0.000000  0.000000      4.000000
  0.500000  0.000000  0.000000      2.000000
  0.166667  0.166667  0.000000      4.000000
  0.333333  0.166667  0.000000      8.000000
  0.500000  0.166667  0.000000      4.000000
  0.333333  0.333333  0.000000      4.000000
  0.500000  0.333333  0.000000      4.000000
  0.500000  0.500000  0.000000      1.000000
  0.000000  0.000000  0.250000      2.000000
  0.166667  0.000000  0.250000      8.000000
  0.333333  0.000000  0.250000      8.000000
  0.500000  0.000000  0.250000      4.000000
  0.166667  0.166667  0.250000      8.000000
  0.333333  0.166667  0.250000     16.000000
  0.500000  0.166667  0.250000      8.000000
  0.333333  0.333333  0.250000      8.000000
  0.500000  0.333333  0.250000      8.000000
  0.500000  0.500000  0.250000      2.000000
  0.000000  0.000000  0.500000      1.000000
  0.166667  0.000000  0.500000      4.000000
  0.333333  0.000000  0.500000      4.000000
  0.500000  0.000000  0.500000      2.000000
  0.166667  0.166667  0.500000      4.000000
  0.333333  0.166667  0.500000      8.000000
  0.500000  0.166667  0.500000      4.000000
  0.333333  0.333333  0.500000      4.000000
  0.500000  0.333333  0.500000      4.000000
  0.500000  0.500000  0.500000      1.000000
 
 Following cartesian coordinates:
            Coordinates               Weight
  0.000000  0.000000  0.000000      1.000000
  0.029511  0.000000  0.000000      4.000000
  0.059022  0.000000  0.000000      4.000000
  0.088533  0.000000  0.000000      2.000000
  0.029511  0.029511  0.000000      4.000000
  0.059022  0.029511  0.000000      8.000000
  0.088533  0.029511  0.000000      4.000000
  0.059022  0.059022  0.000000      4.000000
  0.088533  0.059022  0.000000      4.000000
  0.088533  0.088533  0.000000      1.000000
  0.000000  0.000000  0.030710      2.000000
  0.029511  0.000000  0.030710      8.000000
  0.059022  0.000000  0.030710      8.000000
  0.088533  0.000000  0.030710      4.000000
  0.029511  0.029511  0.030710      8.000000
  0.059022  0.029511  0.030710     16.000000
  0.088533  0.029511  0.030710      8.000000
  0.059022  0.059022  0.030710      8.000000
  0.088533  0.059022  0.030710      8.000000
  0.088533  0.088533  0.030710      2.000000
  0.000000  0.000000  0.061420      1.000000
  0.029511  0.000000  0.061420      4.000000
  0.059022  0.000000  0.061420      4.000000
  0.088533  0.000000  0.061420      2.000000
  0.029511  0.029511  0.061420      4.000000
  0.059022  0.029511  0.061420      8.000000
  0.088533  0.029511  0.061420      4.000000
  0.059022  0.059022  0.061420      4.000000
  0.088533  0.059022  0.061420      4.000000
  0.088533  0.088533  0.061420      1.000000
 


--------------------------------------------------------------------------------------------------------




 Dimension of arrays:
   k-points           NKPTS =     30   k-points in BZ     NKDIM =     30   number of bands    NBANDS=     88
   number of dos      NEDOS =    301   number of ions     NIONS =     16
   non local maximal  LDIM  =      6   non local SUM 2l+1 LMDIM =     18
   total plane-waves  NPLWV =  49152
   max r-space proj   IRMAX =      1   max aug-charges    IRDMAX=   7566
   dimension x,y,z NGX =    32 NGY =   32 NGZ =   48
   dimension x,y,z NGXF=    64 NGYF=   64 NGZF=   96
   support grid    NGXF=    64 NGYF=   64 NGZF=   96
   ions per type =               1   7   8
   NGX,Y,Z   is equivalent  to a cutoff of   9.42,  9.42,  9.80 a.u.
   NGXF,Y,Z  is equivalent  to a cutoff of  18.84, 18.84, 19.60 a.u.

 SYSTEM =  CaNi2                                   
 POSCAR =  Ti1 Al1                                 

 Startparameter for this run:
   NWRITE =      2    write-flag & timer
   PREC   = n         normal or accurate (medium, high low for compatibility)
   ISTART =      0    job   : 0-new  1-cont  2-samecut
   ICHARG =      2    charge: 1-file 2-atom 10-const
   ISPIN  =      1    spin polarized calculation?
   LNONCOLLINEAR =      F non collinear calculations
   LSORBIT =      F    spin-orbit coupling
   INIWAV =      1    electr: 0-lowe 1-rand  2-diag
   LASPH  =      F    aspherical Exc in radial PAW
 Electronic Relaxation 1
   ENCUT  =  520.0 eV  38.22 Ry    6.18 a.u.  10.50 10.50 15.14*2*pi/ulx,y,z
   ENINI  =  520.0     initial cutoff
   ENAUG  =  490.7 eV  augmentation charge cutoff
   NELM   =    500;   NELMIN=  2; NELMDL= -5     # of ELM steps 
   EDIFF  = 0.1E-04   stopping-criterion for ELM
   LREAL  =      F    real-space projection
   NLSPLINE    = F    spline interpolate recip. space projectors
   LCOMPAT=      F    compatible to vasp.4.4
   GGA_COMPAT  = T    GGA compatible to vasp.4.4-vasp.4.6
   LMAXPAW     = -100 max onsite density
   LMAXMIX     =    2 max onsite mixed and CHGCAR
   VOSKOWN=      0    Vosko Wilk Nusair interpolation
   ROPT   =    0.00000   0.00000   0.00000
 Ionic relaxation
   EDIFFG = -.1E-01   stopping-criterion for IOM
   NSW    =    300    number of steps for IOM
   NBLOCK =      1;   KBLOCK =    300    inner block; outer block 
   IBRION =      1    ionic relax: 0-MD 1-quasi-New 2-CG
   NFREE  =      0    steps in history (QN), initial steepest desc. (CG)
   ISIF   =      3    stress and relaxation
   IWAVPR =     11    prediction:  0-non 1-charg 2-wave 3-comb
   ISYM   =      2    0-nonsym 1-usesym 2-fastsym
   LCORR  =      T    Harris-Foulkes like correction to forces

   POTIM  = 0.5000    time-step for ionic-motion
   TEIN   =    0.0    initial temperature
   TEBEG  =    0.0;   TEEND  =   0.0 temperature during run
   SMASS  =  -3.00    Nose mass-parameter (am)
   estimated Nose-frequenzy (Omega)   =  0.10E-29 period in steps = 0.13E+47 mass=  -0.729E-27a.u.
   SCALEE = 1.0000    scale energy and forces
   NPACO  =    256;   APACO  = 10.0  distance and # of slots for P.C.
   PSTRESS=    0.0 pullay stress

  Mass of Ions in am
   POMASS =  69.72 47.88 26.98
  Ionic Valenz
   ZVAL   =  13.00 12.00  3.00
  Atomic Wigner-Seitz radii
   RWIGS  =  -1.00 -1.00 -1.00
  virtual crystal weights 
   VCA    =   1.00  1.00  1.00
   NELECT =     121.0000    total number of electrons
   NUPDOWN=      -1.0000    fix difference up-down

 DOS related values:
   EMIN   =  10.00;   EMAX   =-10.00  energy-range for DOS
   EFERMI =   0.00;   METHOD = LEGACY      
   ISMEAR =     0;   SIGMA  =   0.10  broadening in eV -4-tet -1-fermi 0-gaus
   EFERMI_NEDOS =   21; number of points for ismear=-14 and -15

 Electronic relaxation 2 (details)
   IALGO  =     38    algorithm
   LDIAG  =      T    sub-space diagonalisation (order eigenvalues)
   LSUBROT=      F    optimize rotation matrix (better conditioning)
   TURBO    =      0    0=normal 1=particle mesh
   IRESTART =      0    0=no restart 2=restart with 2 vectors
   NREBOOT  =      0    no. of reboots
   NMIN     =      0    reboot dimension
   EREF     =   0.00    reference energy to select bands
   IMIX   =      4    mixing-type and parameters
     AMIX     =   0.40;   BMIX     =  1.00
     AMIX_MAG =   1.60;   BMIX_MAG =  1.00
     AMIN     =   0.10
     WC   =   100.;   INIMIX=   1;  MIXPRE=   1;  MAXMIX= -45

 Intra band minimization:
   WEIMIN = 0.0010     energy-eigenvalue tresh-hold
   EBREAK =  0.28E-07  absolut break condition
   DEPER  =   0.30     relativ break condition  

   TIME   =   0.40     timestep for ELM

  volume/ion in A,a.u.               =      16.23       109.51
  Fermi-wavevector in a.u.,A,eV,Ry     =   1.269225  2.398488 21.918078  1.610933
  Thomas-Fermi vector in A             =   2.402278
 
 Write flags
   LWAVE        =      T    write WAVECAR
   LDOWNSAMPLE  =      F    k-point downsampling of WAVECAR
   LCHARG       =      T    write CHGCAR
   LVTOT        =      F    write LOCPOT, total local potential
   LVHAR        =      F    write LOCPOT, Hartree potential only
   WRT_POTENTIAL= false  ! write potential to hdf5 file
   LELF         =      F    write electronic localiz. function (ELF)
   LORBIT       =      0    0 simple, 1 ext, 2 COOP (PROOUT), +10 PAW based schemes


 Python interface
   PLUGINS active      =      F    recompile with -DPLUGINS to activate
 
 Dipole corrections
   LMONO      =      F    monopole corrections only (constant potential shift)
   LDIPOL     =      F    correct potential (dipole corrections)
   IDIPOL     =      0    1-x, 2-y, 3-z, 4-all directions 
   EPSILON    =  1.0000000 bulk dielectric constant
   LVACPOTAV  =      F  vacuum potentials using an averaging scheme for the charge density
   VACPOTFLAT =  0.1000000 required flatness to determine vacuum potential
 
Coulomb truncation method
  LTRUNCATE          =      F  Coulomb kernel truncation to be used
  IDIMENSIONALITY    =      3  Dimensionality of cutoff (0 molecules / 2 surfaces)
  ISURFACE           =     -1  Direction of surface normal
  LCOARSEN           =      F  Coarsen the charge grid before padding, preferred

 
 Exchange correlation treatment:
   GGA     = PE    functional components
   XC_C    = 1    coefficients multiplying the functional components
   LIBXC   =     F    Libxc                    
   VOSKOWN =     0    Vosko Wilk Nusair interpolation
   LHFCALC =     F    Hartree Fock is set to
   LHFONE  =     F    Hartree Fock one center treatment
   AEXX    =    0.0000 exact exchange contribution

 Parameters of functionals:
   PE:
     No parameter
 
 Van der Waals corrections
   IVDW    =     0    specifies the selected vdW correction

 Linear response parameters
   LEPSILON=     F    determine dielectric tensor
   LRPA    =     F    only Hartree local field effects (RPA)
   LNABLA  =     F    use nabla operator in PAW spheres
   LVEL    =     F    velocity operator in full k-point grid
   CSHIFT  =0.1000    complex shift for real part using Kramers Kronig
   OMEGAMAX=  -1.0    maximum frequency
   DEG_THRESHOLD= 0.2000000E-02 threshold for treating states as degnerate
   RTIME   =   -0.100 relaxation time in fs
  (WPLASMAI=    0.000 imaginary part of plasma frequency in eV, 0.658/RTIME)
   DFIELD  = 0.0000000 0.0000000 0.0000000 field for delta impulse in time
 
  Optional k-point grid parameters
   LKPOINTS_OPT  =     F    use optional k-point grid
   KPOINTS_OPT_MODE=     1    mode for optional k-point grid
 
 Orbital magnetization related:
   ORBITALMAG=     F  switch on orbital magnetization
   LCHIMAG   =     F  perturbation theory with respect to B field
   DQ        =  0.001000  dq finite difference perturbation B field
   LLRAUG    =     F  two centre corrections for induced B field
   LBONE     =     F  B-component reconstruction in AE one-centre
   LVGVCALC  =     T  calculate vGv susceptibility
   LVGVAPPL  =     F  apply vGv susceptibility instead of pGv for G=0

 Random number generation:
   RANDOM_GENERATOR = DEFAULT
   PCG_SEED         = not used


--------------------------------------------------------------------------------------------------------


 quasi-Newton-method for relaxation of ions
 charge density and potential will be updated during run
 non-spin polarized calculation
 Variant of blocked Davidson
 Davidson routine will perform the subspace rotation
 perform sub-space diagonalisation
    after iterative eigenvector-optimisation
 modified Broyden-mixing scheme, WC =      100.0
 initial mixing is a Kerker type mixing with AMIX =  0.4000 and BMIX =      1.0000
 Hartree-type preconditioning will be used
 using additional bands           27
 reciprocal scheme for non local part
 use partial core corrections
 calculate Harris-corrections to forces 
   (improved forces if not selfconsistent)
 use gradient corrections 
 use of overlap-Matrix (Vanderbilt PP)
 Gauss-broadening in eV      SIGMA  =   0.10


--------------------------------------------------------------------------------------------------------


  energy-cutoff  :      520.00
  volume of cell :      259.65
      direct lattice vectors                 reciprocal lattice vectors
     5.647637367  0.000000000  0.000000000     0.177065193  0.000000000  0.000000000
     0.000000000  5.647637367  0.000000000     0.000000000  0.177065193  0.000000000
     0.000000000  0.000000000  8.140666008     0.000000000  0.000000000  0.122840072

  length of vectors
     5.647637367  5.647637367  8.140666008     0.177065193  0.177065193  0.122840072


 
 k-points in units of 2pi/SCALE and weight: K-Spacing Value to Generate K-Mesh: 0.03
   0.00000000  0.00000000  0.00000000       0.007
   0.02951087  0.00000000  0.00000000       0.028
   0.05902173  0.00000000  0.00000000       0.028
   0.08853260  0.00000000  0.00000000       0.014
   0.02951087  0.02951087  0.00000000       0.028
   0.05902173  0.02951087  0.00000000       0.056
   0.08853260  0.02951087  0.00000000       0.028
   0.05902173  0.05902173  0.00000000       0.028
   0.08853260  0.05902173  0.00000000       0.028
   0.08853260  0.08853260  0.00000000       0.007
   0.00000000  0.00000000  0.03071002       0.014
   0.02951087  0.00000000  0.03071002       0.056
   0.05902173  0.00000000  0.03071002       0.056
   0.08853260  0.00000000  0.03071002       0.028
   0.02951087  0.02951087  0.03071002       0.056
   0.05902173  0.02951087  0.03071002       0.111
   0.08853260  0.02951087  0.03071002       0.056
   0.05902173  0.05902173  0.03071002       0.056
   0.08853260  0.05902173  0.03071002       0.056
   0.08853260  0.08853260  0.03071002       0.014
   0.00000000  0.00000000  0.06142004       0.007
   0.02951087  0.00000000  0.06142004       0.028
   0.05902173  0.00000000  0.06142004       0.028
   0.08853260  0.00000000  0.06142004       0.014
   0.02951087  0.02951087  0.06142004       0.028
   0.05902173  0.02951087  0.06142004       0.056
   0.08853260  0.02951087  0.06142004       0.028
   0.05902173  0.05902173  0.06142004       0.028
   0.08853260  0.05902173  0.06142004       0.028
   0.08853260  0.08853260  0.06142004       0.007
 
 k-points in reciprocal lattice and weights: K-Spacing Value to Generate K-Mesh: 0.03
   0.00000000  0.00000000  0.00000000       0.007
   0.16666667  0.00000000  0.00000000       0.028
   0.33333333  0.00000000  0.00000000       0.028
   0.50000000  0.00000000  0.00000000       0.014
   0.16666667  0.16666667  0.00000000       0.028
   0.33333333  0.16666667  0.00000000       0.056
   0.50000000  0.16666667  0.00000000       0.028
   0.33333333  0.33333333  0.00000000       0.028
   0.50000000  0.33333333  0.00000000       0.028
   0.50000000  0.50000000  0.00000000       0.007
   0.00000000  0.00000000  0.25000000       0.014
   0.16666667  0.00000000  0.25000000       0.056
   0.33333333  0.00000000  0.25000000       0.056
   0.50000000  0.00000000  0.25000000       0.028
   0.16666667  0.16666667  0.25000000       0.056
   0.33333333  0.16666667  0.25000000       0.111
   0.50000000  0.16666667  0.25000000       0.056
   0.33333333  0.33333333  0.25000000       0.056
   0.50000000  0.33333333  0.25000000       0.056
   0.50000000  0.50000000  0.25000000       0.014
   0.00000000  0.00000000  0.50000000       0.007
   0.16666667  0.00000000  0.50000000       0.028
   0.33333333  0.00000000  0.50000000       0.028
   0.50000000  0.00000000  0.50000000       0.014
   0.16666667  0.16666667  0.50000000       0.028
   0.33333333  0.16666667  0.50000000       0.056
   0.50000000  0.16666667  0.50000000       0.028
   0.33333333  0.33333333  0.50000000       0.028
   0.50000000  0.33333333  0.50000000       0.028
   0.50000000  0.50000000  0.50000000       0.007
 
 position of ions in fractional coordinates (direct lattice) 
   0.00000000  0.00000000  0.00000000
   0.00000000  0.00000000  0.50000000
   0.00000000  0.50000000  0.00000000
   0.00000000  0.50000000  0.50000000
   0.50000000  0.00000000  0.00000000
   0.50000000  0.00000000  0.50000000
   0.50000000  0.50000000  0.00000000
   0.50000000  0.50000000  0.50000000
   0.25000000  0.25000000  0.25000000
   0.25000000  0.25000000  0.75000000
   0.25000000  0.75000000  0.25000000
   0.25000000  0.75000000  0.75000000
   0.75000000  0.25000000  0.25000000
   0.75000000  0.25000000  0.75000000
   0.75000000  0.75000000  0.25000000
   0.75000000  0.75000000  0.75000000
 
 position of ions in cartesian coordinates  (Angst):
   0.00000000  0.00000000  0.00000000
   0.00000000  0.00000000  4.07033300
   0.00000000  2.82381868  0.00000000
   0.00000000  2.82381868  4.07033300
   2.82381868  0.00000000  0.00000000
   2.82381868  0.00000000  4.07033300
   2.82381868  2.82381868  0.00000000
   2.82381868  2.82381868  4.07033300
   1.41190934  1.41190934  2.03516650
   1.41190934  1.41190934  6.10549951
   1.41190934  4.23572803  2.03516650
   1.41190934  4.23572803  6.10549951
   4.23572803  1.41190934  2.03516650
   4.23572803  1.41190934  6.10549951
   4.23572803  4.23572803  2.03516650
   4.23572803  4.23572803  6.10549951
 


--------------------------------------------------------------------------------------------------------


 k-point     1 :   0.0000 0.0000 0.0000  plane waves:    6979
 k-point     2 :   0.1667 0.0000 0.0000  plane waves:    6995
 k-point     3 :   0.3333 0.0000 0.0000  plane waves:    6993
 k-point     4 :   0.5000 0.0000 0.0000  plane waves:    6982
 k-point     5 :   0.1667 0.1667 0.0000  plane waves:    7013
 k-point     6 :   0.3333 0.1667 0.0000  plane waves:    7002
 k-point     7 :   0.5000 0.1667 0.0000  plane waves:    6962
 k-point     8 :   0.3333 0.3333 0.0000  plane waves:    6989
 k-point     9 :   0.5000 0.3333 0.0000  plane waves:    6958
 k-point    10 :   0.5000 0.5000 0.0000  plane waves:    6948
 k-point    11 :   0.0000 0.0000 0.2500  plane waves:    6998
 k-point    12 :   0.1667 0.0000 0.2500  plane waves:    7005
 k-point    13 :   0.3333 0.0000 0.2500  plane waves:    6994
 k-point    14 :   0.5000 0.0000 0.2500  plane waves:    7006
 k-point    15 :   0.1667 0.1667 0.2500  plane waves:    6995
 k-point    16 :   0.3333 0.1667 0.2500  plane waves:    6991
 k-point    17 :   0.5000 0.1667 0.2500  plane waves:    6998
 k-point    18 :   0.3333 0.3333 0.2500  plane waves:    6994
 k-point    19 :   0.5000 0.3333 0.2500  plane waves:    6958
 k-point    20 :   0.5000 0.5000 0.2500  plane waves:    6956
 k-point    21 :   0.0000 0.0000 0.5000  plane waves:    7022
 k-point    22 :   0.1667 0.0000 0.5000  plane waves:    7006
 k-point    23 :   0.3333 0.0000 0.5000  plane waves:    6990
 k-point    24 :   0.5000 0.0000 0.5000  plane waves:    6992
 k-point    25 :   0.1667 0.1667 0.5000  plane waves:    6986
 k-point    26 :   0.3333 0.1667 0.5000  plane waves:    7000
 k-point    27 :   0.5000 0.1667 0.5000  plane waves:    6992
 k-point    28 :   0.3333 0.3333 0.5000  plane waves:    7014
 k-point    29 :   0.5000 0.3333 0.5000  plane waves:    7004
 k-point    30 :   0.5000 0.5000 0.5000  plane waves:    6944

 maximum and minimum number of plane-waves per node :      7022     6944

 maximum number of plane-waves:      7022
 maximum index in each direction: 
   IXMAX=   10   IYMAX=   10   IZMAX=   15
   IXMIN=  -11   IYMIN=  -10   IZMIN=  -15


 serial   3D FFT for wavefunctions
 parallel 3D FFT for charge:
    minimum data exchange during FFTs selected (reduces bandwidth)


 total amount of memory used by VASP MPI-rank0   133636. kBytes
=======================================================================

   base                                    :      30000. kBytes
   nonl-proj                               :      93040. kBytes
   fftplans                                :        598. kBytes
   grid                                    :       2781. kBytes
   one-center                              :        248. kBytes
   wavefun                                 :       6969. kBytes
 
     INWAV:  cpu time      0.0000: real time      0.0000
 Broyden mixing: mesh for mixing (old mesh)
   NGX = 21   NGY = 21   NGZ = 31
  (NGX  = 64   NGY  = 64   NGZ  = 96)
  gives a total of  13671 points

 initial charge density was supplied:
 charge density of overlapping atoms calculated
 number of electron     121.0000000 magnetization 
 keeping initial charge density in first step


--------------------------------------------------------------------------------------------------------


 Maximum index for augmentation-charges          455 (set IRDMAX)


--------------------------------------------------------------------------------------------------------


 First call to EWALD:  gamma=   0.278
 Maximum number of real-space cells   3x   3x   2
 Maximum number of reciprocal cells   2x   2x   3

    FEWALD:  cpu time      0.0010: real time      0.0010


--------------------------------------- Ionic step        1  -------------------------------------------




--------------------------------------- Iteration      1(   1)  ---------------------------------------


    POTLOK:  cpu time      0.0096: real time      0.0096
    SETDIJ:  cpu time      0.0020: real time      0.0020
     EDDAV:  cpu time      2.3457: real time      2.3460
       DOS:  cpu time      0.0008: real time      0.0008
    --------------------------------------------
      LOOP:  cpu time      2.3582: real time      2.3585

 eigenvalue-minimisations  :  5280
 total energy-change (2. order) : 0.9549995E+03  (-0.6242702E+04)
 number of electron     121.0000000 magnetization 
 augmentation part      121.0000000 magnetization 

 Free energy of the ion-electron system (eV)
  ---------------------------------------------------
  alpha Z        PSCENC =       314.49560023
  Ewald energy   TEWEN  =     -8841.63325755
  -Hartree energ DENC   =     -4316.09581268
  -exchange      EXHF   =         0.00000000
  -V(xc)+E(xc)   XCENC  =       269.52852355
  PAW double counting   =     10984.71331719   -10925.53584238
  entropy T*S    EENTRO =        -0.03239796
  eigenvalues    EBANDS =      -224.17037002
  atomic energy  EATOM  =     13693.72977468
  Solvation  Ediel_sol  =         0.00000000
  ---------------------------------------------------
  free energy    TOTEN  =       954.99953507 eV

  energy without entropy =      955.03193303  energy(sigma->0) =      955.01573405


--------------------------------------------------------------------------------------------------------




--------------------------------------- Iteration      1(   2)  ---------------------------------------


     EDDAV:  cpu time      2.3400: real time      2.3404
       DOS:  cpu time      0.0008: real time      0.0008
    --------------------------------------------
      LOOP:  cpu time      2.3408: real time      2.3411

 eigenvalue-minimisations  :  5280
 total energy-change (2. order) :-0.9624731E+03  (-0.9559159E+03)
 number of electron     121.0000000 magnetization 
 augmentation part      121.0000000 magnetization 

 Free energy of the ion-electron system (eV)
  ---------------------------------------------------
  alpha Z        PSCENC =       314.49560023
  Ewald energy   TEWEN  =     -8841.63325755
  -Hartree energ DENC   =     -4316.09581268
  -exchange      EXHF   =         0.00000000
  -V(xc)+E(xc)   XCENC  =       269.52852355
  PAW double counting   =     10984.71331719   -10925.53584238
  entropy T*S    EENTRO =        -0.05597666
  eigenvalues    EBANDS =     -1186.61991901
  atomic energy  EATOM  =     13693.72977468
  Solvation  Ediel_sol  =         0.00000000
  ---------------------------------------------------
  free energy    TOTEN  =        -7.47359263 eV

  energy without entropy =       -7.41761597  energy(sigma->0) =       -7.44560430


--------------------------------------------------------------------------------------------------------




--------------------------------------- Iteration      1(   3)  ---------------------------------------


     EDDAV:  cpu time      5.6951: real time      5.6956
       DOS:  cpu time      0.0009: real time      0.0009
    --------------------------------------------
      LOOP:  cpu time      5.6960: real time      5.6965

 eigenvalue-minimisations  : 10560
 total energy-change (2. order) :-0.9412516E+02  (-0.9373976E+02)
 number of electron     121.0000000 magnetization 
 augmentation part      121.0000000 magnetization 

 Free energy of the ion-electron system (eV)
  ---------------------------------------------------
  alpha Z        PSCENC =       314.49560023
  Ewald energy   TEWEN  =     -8841.63325755
  -Hartree energ DENC   =     -4316.09581268
  -exchange      EXHF   =         0.00000000
  -V(xc)+E(xc)   XCENC  =       269.52852355
  PAW double counting   =     10984.71331719   -10925.53584238
  entropy T*S    EENTRO =        -0.05693625
  eigenvalues    EBANDS =     -1280.74411683
  atomic energy  EATOM  =     13693.72977468
  Solvation  Ediel_sol  =         0.00000000
  ---------------------------------------------------
  free energy    TOTEN  =      -101.59875003 eV

  energy without entropy =     -101.54181379  energy(sigma->0) =     -101.57028191


--------------------------------------------------------------------------------------------------------




--------------------------------------- Iteration      1(   4)  ---------------------------------------


     EDDAV:  cpu time      2.5058: real time      2.5062
       DOS:  cpu time      0.0008: real time      0.0008
    --------------------------------------------
      LOOP:  cpu time      2.5066: real time      2.5070

 eigenvalue-minimisations  :  5632
 total energy-change (2. order) :-0.3625767E+01  (-0.3624794E+01)
 number of electron     121.0000000 magnetization 
 augmentation part      121.0000000 magnetization 

 Free energy of the ion-electron system (eV)
  ---------------------------------------------------
  alpha Z        PSCENC =       314.49560023
  Ewald energy   TEWEN  =     -8841.63325755
  -Hartree energ DENC   =     -4316.09581268
  -exchange      EXHF   =         0.00000000
  -V(xc)+E(xc)   XCENC  =       269.52852355
  PAW double counting   =     10984.71331719   -10925.53584238
  entropy T*S    EENTRO =        -0.05621964
  eigenvalues    EBANDS =     -1284.37060043
  atomic energy  EATOM  =     13693.72977468
  Solvation  Ediel_sol  =         0.00000000
  ---------------------------------------------------
  free energy    TOTEN  =      -105.22451703 eV

  energy without entropy =     -105.16829739  energy(sigma->0) =     -105.19640721


--------------------------------------------------------------------------------------------------------




--------------------------------------- Iteration      1(   5)  ---------------------------------------


     EDDAV:  cpu time      4.6571: real time      4.6573
       DOS:  cpu time      0.0008: real time      0.0008
    CHARGE:  cpu time      0.0352: real time      0.0352
    MIXING:  cpu time      0.0003: real time      0.0003
    --------------------------------------------
      LOOP:  cpu time      4.6934: real time      4.6937

 eigenvalue-minimisations  :  9240
 total energy-change (2. order) :-0.1908899E+00  (-0.1908809E+00)
 number of electron     120.9999800 magnetization 
 augmentation part       31.8636846 magnetization 

 Broyden mixing:
  rms(total) = 0.25753E+01    rms(broyden)= 0.25753E+01
  rms(prec ) = 0.35739E+01
  weight for this iteration     100.00

 Free energy of the ion-electron system (eV)
  ---------------------------------------------------
  alpha Z        PSCENC =       314.49560023
  Ewald energy   TEWEN  =     -8841.63325755
  -Hartree energ DENC   =     -4316.09581268
  -exchange      EXHF   =         0.00000000
  -V(xc)+E(xc)   XCENC  =       269.52852355
  PAW double counting   =     10984.71331719   -10925.53584238
  entropy T*S    EENTRO =        -0.05621646
  eigenvalues    EBANDS =     -1284.56149351
  atomic energy  EATOM  =     13693.72977468
  Solvation  Ediel_sol  =         0.00000000
  ---------------------------------------------------
  free energy    TOTEN  =      -105.41540693 eV

  energy without entropy =     -105.35919047  energy(sigma->0) =     -105.38729870


--------------------------------------------------------------------------------------------------------




--------------------------------------- Iteration      1(   6)  ---------------------------------------


    POTLOK:  cpu time      0.0105: real time      0.0105
    SETDIJ:  cpu time      0.0016: real time      0.0016
     EDDAV:  cpu time      4.2862: real time      4.2863
       DOS:  cpu time      0.0008: real time      0.0008
    CHARGE:  cpu time      0.0349: real time      0.0349
    MIXING:  cpu time      0.0004: real time      0.0004
    --------------------------------------------
      LOOP:  cpu time      4.3343: real time      4.3344

 eigenvalue-minimisations  :  8668
 total energy-change (2. order) : 0.9452956E+01  (-0.1313971E+02)
 number of electron     120.9999758 magnetization 
 augmentation part       36.0295318 magnetization 

 Broyden mixing:
  rms(total) = 0.11639E+01    rms(broyden)= 0.11639E+01
  rms(prec ) = 0.19174E+01
  weight for this iteration     100.00

 eigenvalues of (default mixing * dielectric matrix)
  average eigenvalue GAMMA=   0.7793
  0.7793

 Free energy of the ion-electron system (eV)
  ---------------------------------------------------
  alpha Z        PSCENC =       314.49560023
  Ewald energy   TEWEN  =     -8841.63325755
  -Hartree energ DENC   =     -4048.83074774
  -exchange      EXHF   =         0.00000000
  -V(xc)+E(xc)   XCENC  =       259.21586190
  PAW double counting   =     11834.12756023   -11776.72209576
  entropy T*S    EENTRO =        -0.08545549
  eigenvalues    EBANDS =     -1530.25969177
  atomic energy  EATOM  =     13693.72977468
  Solvation  Ediel_sol  =         0.00000000
  ---------------------------------------------------
  free energy    TOTEN  =       -95.96245127 eV

  energy without entropy =      -95.87699578  energy(sigma->0) =      -95.91972352


--------------------------------------------------------------------------------------------------------




--------------------------------------- Iteration      1(   7)  ---------------------------------------


    POTLOK:  cpu time      0.0109: real time      0.0109
    SETDIJ:  cpu time      0.0016: real time      0.0016
     EDDAV:  cpu time      3.6258: real time      3.6262
       DOS:  cpu time      0.0008: real time      0.0008
    CHARGE:  cpu time      0.0353: real time      0.0353
    MIXING:  cpu time      0.0004: real time      0.0004
    --------------------------------------------
      LOOP:  cpu time      3.6748: real time      3.6752

 eigenvalue-minimisations  :  7524
 total energy-change (2. order) : 0.2711704E+00  (-0.5154675E+01)
 number of electron     120.9999775 magnetization 
 augmentation part       34.3321303 magnetization 

 Broyden mixing:
  rms(total) = 0.11701E+01    rms(broyden)= 0.11700E+01
  rms(prec ) = 0.22962E+01
  weight for this iteration     100.00

 eigenvalues of (default mixing * dielectric matrix)
  average eigenvalue GAMMA=   0.6117
  0.8907  0.3327

 Free energy of the ion-electron system (eV)
  ---------------------------------------------------
  alpha Z        PSCENC =       314.49560023
  Ewald energy   TEWEN  =     -8841.63325755
  -Hartree energ DENC   =     -4119.02096822
  -exchange      EXHF   =         0.00000000
  -V(xc)+E(xc)   XCENC  =       261.97563722
  PAW double counting   =     12339.98426796   -12276.16067799
  entropy T*S    EENTRO =        -0.05678398
  eigenvalues    EBANDS =     -1469.00487324
  atomic energy  EATOM  =     13693.72977468
  Solvation  Ediel_sol  =         0.00000000
  ---------------------------------------------------
  free energy    TOTEN  =       -95.69128088 eV

  energy without entropy =      -95.63449690  energy(sigma->0) =      -95.66288889


--------------------------------------------------------------------------------------------------------




--------------------------------------- Iteration      1(   8)  ---------------------------------------


    POTLOK:  cpu time      0.0101: real time      0.0101
    SETDIJ:  cpu time      0.0016: real time      0.0016
     EDDAV:  cpu time      3.7429: real time      3.7439
       DOS:  cpu time      0.0008: real time      0.0008
    CHARGE:  cpu time      0.0354: real time      0.0354
    MIXING:  cpu time      0.0004: real time      0.0004
    --------------------------------------------
      LOOP:  cpu time      3.7910: real time      3.7920

 eigenvalue-minimisations  :  7656
 total energy-change (2. order) : 0.1628366E+01  (-0.1831074E+01)
 number of electron     120.9999776 magnetization 
 augmentation part       34.1207796 magnetization 

 Broyden mixing:
  rms(total) = 0.54350E+00    rms(broyden)= 0.54345E+00
  rms(prec ) = 0.77970E+00
  weight for this iteration     100.00

 eigenvalues of (default mixing * dielectric matrix)
  average eigenvalue GAMMA=   0.8053
  1.5645  0.6092  0.2423

 Free energy of the ion-electron system (eV)
  ---------------------------------------------------
  alpha Z        PSCENC =       314.49560023
  Ewald energy   TEWEN  =     -8841.63325755
  -Hartree energ DENC   =     -4120.89501384
  -exchange      EXHF   =         0.00000000
  -V(xc)+E(xc)   XCENC  =       262.07959578
  PAW double counting   =     12509.55717682   -12444.03439927
  entropy T*S    EENTRO =        -0.06490399
  eigenvalues    EBANDS =     -1467.29748762
  atomic energy  EATOM  =     13693.72977468
  Solvation  Ediel_sol  =         0.00000000
  ---------------------------------------------------
  free energy    TOTEN  =       -94.06291475 eV

  energy without entropy =      -93.99801076  energy(sigma->0) =      -94.03046275


--------------------------------------------------------------------------------------------------------




--------------------------------------- Iteration      1(   9)  ---------------------------------------


    POTLOK:  cpu time      0.0102: real time      0.0102
    SETDIJ:  cpu time      0.0016: real time      0.0016
     EDDAV:  cpu time      3.9682: real time      3.9686
       DOS:  cpu time      0.0008: real time      0.0008
    CHARGE:  cpu time      0.0347: real time      0.0347
    MIXING:  cpu time      0.0004: real time      0.0004
    --------------------------------------------
      LOOP:  cpu time      4.0159: real time      4.0162

 eigenvalue-minimisations  :  8008
 total energy-change (2. order) :-0.2780610E+00  (-0.9105920E+00)
 number of electron     120.9999778 magnetization 
 augmentation part       34.3979995 magnetization 

 Broyden mixing:
  rms(total) = 0.63777E+00    rms(broyden)= 0.63773E+00
  rms(prec ) = 0.11880E+01
  weight for this iteration     100.00

 eigenvalues of (default mixing * dielectric matrix)
  average eigenvalue GAMMA=   0.8478
  2.1937  0.6946  0.2919  0.2109

 Free energy of the ion-electron system (eV)
  ---------------------------------------------------
  alpha Z        PSCENC =       314.49560023
  Ewald energy   TEWEN  =     -8841.63325755
  -Hartree energ DENC   =     -4108.09857889
  -exchange      EXHF   =         0.00000000
  -V(xc)+E(xc)   XCENC  =       261.65698596
  PAW double counting   =     12967.86609925   -12898.76779177
  entropy T*S    EENTRO =        -0.05020476
  eigenvalues    EBANDS =     -1483.53960287
  atomic energy  EATOM  =     13693.72977468
  Solvation  Ediel_sol  =         0.00000000
  ---------------------------------------------------
  free energy    TOTEN  =       -94.34097572 eV

  energy without entropy =      -94.29077096  energy(sigma->0) =      -94.31587334


--------------------------------------------------------------------------------------------------------




--------------------------------------- Iteration      1(  10)  ---------------------------------------


    POTLOK:  cpu time      0.0105: real time      0.0105
    SETDIJ:  cpu time      0.0016: real time      0.0016
     EDDAV:  cpu time      4.0209: real time      4.0215
       DOS:  cpu time      0.0008: real time      0.0008
    CHARGE:  cpu time      0.0352: real time      0.0352
    MIXING:  cpu time      0.0004: real time      0.0005
    --------------------------------------------
      LOOP:  cpu time      4.0695: real time      4.0702

 eigenvalue-minimisations  :  8228
 total energy-change (2. order) : 0.4801757E+00  (-0.4941177E+00)
 number of electron     120.9999774 magnetization 
 augmentation part       34.4091134 magnetization 

 Broyden mixing:
  rms(total) = 0.21910E+00    rms(broyden)= 0.21905E+00
  rms(prec ) = 0.36999E+00
  weight for this iteration     100.00

 eigenvalues of (default mixing * dielectric matrix)
  average eigenvalue GAMMA=   0.7957
  2.2192  0.8093  0.4698  0.2683  0.2120

 Free energy of the ion-electron system (eV)
  ---------------------------------------------------
  alpha Z        PSCENC =       314.49560023
  Ewald energy   TEWEN  =     -8841.63325755
  -Hartree energ DENC   =     -4100.52982831
  -exchange      EXHF   =         0.00000000
  -V(xc)+E(xc)   XCENC  =       261.47130254
  PAW double counting   =     13348.17789943   -13275.80913859
  entropy T*S    EENTRO =        -0.06656965
  eigenvalues    EBANDS =     -1493.69658285
  atomic energy  EATOM  =     13693.72977468
  Solvation  Ediel_sol  =         0.00000000
  ---------------------------------------------------
  free energy    TOTEN  =       -93.86080007 eV

  energy without entropy =      -93.79423041  energy(sigma->0) =      -93.82751524


--------------------------------------------------------------------------------------------------------




--------------------------------------- Iteration      1(  11)  ---------------------------------------


    POTLOK:  cpu time      0.0102: real time      0.0102
    SETDIJ:  cpu time      0.0016: real time      0.0016
     EDDAV:  cpu time      4.1050: real time      4.1060
       DOS:  cpu time      0.0008: real time      0.0008
    CHARGE:  cpu time      0.0351: real time      0.0351
    MIXING:  cpu time      0.0004: real time      0.0004
    --------------------------------------------
      LOOP:  cpu time      4.1530: real time      4.1540

 eigenvalue-minimisations  :  8448
 total energy-change (2. order) : 0.1034999E-01  (-0.9966887E-01)
 number of electron     120.9999776 magnetization 
 augmentation part       34.3232321 magnetization 

 Broyden mixing:
  rms(total) = 0.17189E+00    rms(broyden)= 0.17187E+00
  rms(prec ) = 0.33856E+00
  weight for this iteration     100.00

 eigenvalues of (default mixing * dielectric matrix)
  average eigenvalue GAMMA=   0.8318
  2.3168  1.3441  0.6055  0.2896  0.2174  0.2174

 Free energy of the ion-electron system (eV)
  ---------------------------------------------------
  alpha Z        PSCENC =       314.49560023
  Ewald energy   TEWEN  =     -8841.63325755
  -Hartree energ DENC   =     -4103.37246401
  -exchange      EXHF   =         0.00000000
  -V(xc)+E(xc)   XCENC  =       261.63365393
  PAW double counting   =     13419.17068498   -13345.34395739
  entropy T*S    EENTRO =        -0.06225290
  eigenvalues    EBANDS =     -1492.46823206
  atomic energy  EATOM  =     13693.72977468
  Solvation  Ediel_sol  =         0.00000000
  ---------------------------------------------------
  free energy    TOTEN  =       -93.85045008 eV

  energy without entropy =      -93.78819718  energy(sigma->0) =      -93.81932363


--------------------------------------------------------------------------------------------------------




--------------------------------------- Iteration      1(  12)  ---------------------------------------


    POTLOK:  cpu time      0.0107: real time      0.0107
    SETDIJ:  cpu time      0.0016: real time      0.0016
     EDDAV:  cpu time      3.5896: real time      3.5899
       DOS:  cpu time      0.0008: real time      0.0008
    CHARGE:  cpu time      0.0353: real time      0.0353
    MIXING:  cpu time      0.0004: real time      0.0004
    --------------------------------------------
      LOOP:  cpu time      3.6385: real time      3.6387

 eigenvalue-minimisations  :  7480
 total energy-change (2. order) : 0.2451468E-01  (-0.3384705E-01)
 number of electron     120.9999776 magnetization 
 augmentation part       34.2157776 magnetization 

 Broyden mixing:
  rms(total) = 0.72277E-01    rms(broyden)= 0.72272E-01
  rms(prec ) = 0.12768E+00
  weight for this iteration     100.00

 eigenvalues of (default mixing * dielectric matrix)
  average eigenvalue GAMMA=   0.8072
  2.3716  1.5020  0.6195  0.4163  0.2804  0.2141  0.2466

 Free energy of the ion-electron system (eV)
  ---------------------------------------------------
  alpha Z        PSCENC =       314.49560023
  Ewald energy   TEWEN  =     -8841.63325755
  -Hartree energ DENC   =     -4109.32669331
  -exchange      EXHF   =         0.00000000
  -V(xc)+E(xc)   XCENC  =       261.95853288
  PAW double counting   =     13489.28735214   -13412.89676733
  entropy T*S    EENTRO =        -0.06076168
  eigenvalues    EBANDS =     -1489.37971547
  atomic energy  EATOM  =     13693.72977468
  Solvation  Ediel_sol  =         0.00000000
  ---------------------------------------------------
  free energy    TOTEN  =       -93.82593540 eV

  energy without entropy =      -93.76517372  energy(sigma->0) =      -93.79555456


--------------------------------------------------------------------------------------------------------




--------------------------------------- Iteration      1(  13)  ---------------------------------------


    POTLOK:  cpu time      0.0101: real time      0.0101
    SETDIJ:  cpu time      0.0016: real time      0.0016
     EDDAV:  cpu time      3.8153: real time      3.8155
       DOS:  cpu time      0.0008: real time      0.0008
    CHARGE:  cpu time      0.0350: real time      0.0350
    MIXING:  cpu time      0.0004: real time      0.0004
    --------------------------------------------
      LOOP:  cpu time      3.8632: real time      3.8634

 eigenvalue-minimisations  :  7832
 total energy-change (2. order) : 0.2894115E-02  (-0.9772612E-02)
 number of electron     120.9999776 magnetization 
 augmentation part       34.2092828 magnetization 

 Broyden mixing:
  rms(total) = 0.46212E-01    rms(broyden)= 0.46203E-01
  rms(prec ) = 0.74644E-01
  weight for this iteration     100.00

 eigenvalues of (default mixing * dielectric matrix)
  average eigenvalue GAMMA=   0.8887
  2.6761  1.8576  1.0126  0.6049  0.2958  0.2321  0.2202  0.2106

 Free energy of the ion-electron system (eV)
  ---------------------------------------------------
  alpha Z        PSCENC =       314.49560023
  Ewald energy   TEWEN  =     -8841.63325755
  -Hartree energ DENC   =     -4109.79609119
  -exchange      EXHF   =         0.00000000
  -V(xc)+E(xc)   XCENC  =       261.99821492
  PAW double counting   =     13496.20380799   -13419.18651462
  entropy T*S    EENTRO =        -0.06144526
  eigenvalues    EBANDS =     -1489.57313049
  atomic energy  EATOM  =     13693.72977468
  Solvation  Ediel_sol  =         0.00000000
  ---------------------------------------------------
  free energy    TOTEN  =       -93.82304128 eV

  energy without entropy =      -93.76159602  energy(sigma->0) =      -93.79231865


--------------------------------------------------------------------------------------------------------




--------------------------------------- Iteration      1(  14)  ---------------------------------------


    POTLOK:  cpu time      0.0100: real time      0.0100
    SETDIJ:  cpu time      0.0016: real time      0.0016
     EDDAV:  cpu time      3.5171: real time      3.5175
       DOS:  cpu time      0.0008: real time      0.0008
    CHARGE:  cpu time      0.0351: real time      0.0351
    MIXING:  cpu time      0.0004: real time      0.0004
    --------------------------------------------
      LOOP:  cpu time      3.5650: real time      3.5654

 eigenvalue-minimisations  :  7392
 total energy-change (2. order) : 0.3474984E-03  (-0.1705330E-02)
 number of electron     120.9999776 magnetization 
 augmentation part       34.2146414 magnetization 

 Broyden mixing:
  rms(total) = 0.13786E-01    rms(broyden)= 0.13783E-01
  rms(prec ) = 0.18509E-01
  weight for this iteration     100.00

 eigenvalues of (default mixing * dielectric matrix)
  average eigenvalue GAMMA=   0.9593
  2.4831  2.2004  1.1927  1.1927  0.6040  0.2959  0.2264  0.2264  0.2122

 Free energy of the ion-electron system (eV)
  ---------------------------------------------------
  alpha Z        PSCENC =       314.49560023
  Ewald energy   TEWEN  =     -8841.63325755
  -Hartree energ DENC   =     -4110.73129713
  -exchange      EXHF   =         0.00000000
  -V(xc)+E(xc)   XCENC  =       262.10206345
  PAW double counting   =     13503.48917085   -13424.34793974
  entropy T*S    EENTRO =        -0.06164852
  eigenvalues    EBANDS =     -1490.86516007
  atomic energy  EATOM  =     13693.72977468
  Solvation  Ediel_sol  =         0.00000000
  ---------------------------------------------------
  free energy    TOTEN  =       -93.82269379 eV

  energy without entropy =      -93.76104526  energy(sigma->0) =      -93.79186952


--------------------------------------------------------------------------------------------------------




--------------------------------------- Iteration      1(  15)  ---------------------------------------


    POTLOK:  cpu time      0.0109: real time      0.0109
    SETDIJ:  cpu time      0.0016: real time      0.0016
     EDDAV:  cpu time      3.3542: real time      3.3546
       DOS:  cpu time      0.0008: real time      0.0008
    CHARGE:  cpu time      0.0348: real time      0.0348
    MIXING:  cpu time      0.0004: real time      0.0004
    --------------------------------------------
      LOOP:  cpu time      3.4028: real time      3.4031

 eigenvalue-minimisations  :  7128
 total energy-change (2. order) : 0.1013400E-03  (-0.2401030E-03)
 number of electron     120.9999776 magnetization 
 augmentation part       34.1912178 magnetization 

 Broyden mixing:
  rms(total) = 0.56275E-02    rms(broyden)= 0.56265E-02
  rms(prec ) = 0.66844E-02
  weight for this iteration     100.00

 eigenvalues of (default mixing * dielectric matrix)
  average eigenvalue GAMMA=   1.0617
  3.1458  2.3313  1.5757  1.0010  1.0010  0.6018  0.2959  0.2265  0.2265  0.2117

 Free energy of the ion-electron system (eV)
  ---------------------------------------------------
  alpha Z        PSCENC =       314.49560023
  Ewald energy   TEWEN  =     -8841.63325755
  -Hartree energ DENC   =     -4111.87095764
  -exchange      EXHF   =         0.00000000
  -V(xc)+E(xc)   XCENC  =       262.14739022
  PAW double counting   =     13486.51676914   -13407.04450134
  entropy T*S    EENTRO =        -0.06139492
  eigenvalues    EBANDS =     -1490.10201526
  atomic energy  EATOM  =     13693.72977468
  Solvation  Ediel_sol  =         0.00000000
  ---------------------------------------------------
  free energy    TOTEN  =       -93.82259245 eV

  energy without entropy =      -93.76119752  energy(sigma->0) =      -93.79189498


--------------------------------------------------------------------------------------------------------




--------------------------------------- Iteration      1(  16)  ---------------------------------------


    POTLOK:  cpu time      0.0106: real time      0.0106
    SETDIJ:  cpu time      0.0016: real time      0.0016
     EDDAV:  cpu time      3.7590: real time      3.7591
       DOS:  cpu time      0.0008: real time      0.0008
    CHARGE:  cpu time      0.0349: real time      0.0349
    MIXING:  cpu time      0.0005: real time      0.0005
    --------------------------------------------
      LOOP:  cpu time      3.8073: real time      3.8074

 eigenvalue-minimisations  :  7920
 total energy-change (2. order) :-0.1512977E-04  (-0.1658238E-04)
 number of electron     120.9999776 magnetization 
 augmentation part       34.1922142 magnetization 

 Broyden mixing:
  rms(total) = 0.11271E-02    rms(broyden)= 0.11259E-02
  rms(prec ) = 0.16246E-02
  weight for this iteration     100.00

 eigenvalues of (default mixing * dielectric matrix)
  average eigenvalue GAMMA=   1.0644
  2.7708  2.4975  1.5303  1.2672  1.0700  1.0094  0.6019  0.2959  0.2265  0.2265
  0.2117

 Free energy of the ion-electron system (eV)
  ---------------------------------------------------
  alpha Z        PSCENC =       314.49560023
  Ewald energy   TEWEN  =     -8841.63325755
  -Hartree energ DENC   =     -4112.16388268
  -exchange      EXHF   =         0.00000000
  -V(xc)+E(xc)   XCENC  =       262.16648883
  PAW double counting   =     13480.49897230   -13400.50717496
  entropy T*S    EENTRO =        -0.06141909
  eigenvalues    EBANDS =     -1490.34770936
  atomic energy  EATOM  =     13693.72977468
  Solvation  Ediel_sol  =         0.00000000
  ---------------------------------------------------
  free energy    TOTEN  =       -93.82260758 eV

  energy without entropy =      -93.76118849  energy(sigma->0) =      -93.79189803


--------------------------------------------------------------------------------------------------------




--------------------------------------- Iteration      1(  17)  ---------------------------------------


    POTLOK:  cpu time      0.0104: real time      0.0104
    SETDIJ:  cpu time      0.0016: real time      0.0016
     EDDAV:  cpu time      2.7620: real time      2.7622
       DOS:  cpu time      0.0008: real time      0.0008
    --------------------------------------------
      LOOP:  cpu time      2.7748: real time      2.7749

 eigenvalue-minimisations  :  5896
 total energy-change (2. order) : 0.3800973E-05  (-0.1192994E-05)
 number of electron     120.9999776 magnetization 
 augmentation part       34.1922142 magnetization 

 Free energy of the ion-electron system (eV)
  ---------------------------------------------------
  alpha Z        PSCENC =       314.49560023
  Ewald energy   TEWEN  =     -8841.63325755
  -Hartree energ DENC   =     -4112.12776444
  -exchange      EXHF   =         0.00000000
  -V(xc)+E(xc)   XCENC  =       262.16310586
  PAW double counting   =     13479.29634139   -13399.33830573
  entropy T*S    EENTRO =        -0.06142403
  eigenvalues    EBANDS =     -1490.34667419
  atomic energy  EATOM  =     13693.72977468
  Solvation  Ediel_sol  =         0.00000000
  ---------------------------------------------------
  free energy    TOTEN  =       -93.82260378 eV

  energy without entropy =      -93.76117974  energy(sigma->0) =      -93.79189176


--------------------------------------------------------------------------------------------------------




 average (electrostatic) potential at core
  the test charge radii are     1.0314  1.0397  1.0406
  (the norm of the test charge is              1.0000)
       1 -62.1484       2 -72.3180       3 -72.5149       4 -72.4512       5 -72.5149
       6 -72.4512       7 -72.4390       8 -72.2974       9 -71.5461      10 -71.5461
      11 -71.5461      12 -71.5461      13 -71.5461      14 -71.5461      15 -71.5461
      16 -71.5461
 
 
 
 E-fermi :   8.2562     XC(G=0): -11.0339     alpha+bet :-15.9805

 val. band max:        8.2494488321   @ k =   0.3333   0.3333   0.5000
 cond. band min:       8.2582725917   @ k =   0.3333   0.1667   0.5000
 fundamental gap:      0.0088237596
 Fermi energy:         8.2562103992

 k-point     1 :       0.0000    0.0000    0.0000
  band No.  band energies     occupation 
      1     -48.4852      2.00000
      2     -48.4676      2.00000
      3     -48.4218      2.00000
      4     -48.4003      2.00000
      5     -48.3711      2.00000
      6     -48.2655      2.00000
      7     -48.2402      2.00000
      8     -24.8711      2.00000
      9     -24.8711      2.00000
     10     -24.8352      2.00000
     11     -24.8276      2.00000
     12     -24.8276      2.00000
     13     -24.8189      2.00000
     14     -24.8134      2.00000
     15     -24.8061      2.00000
     16     -24.8061      2.00000
     17     -24.7992      2.00000
     18     -24.7617      2.00000
     19     -24.7617      2.00000
     20     -24.7195      2.00000
     21     -24.6429      2.00000
     22     -24.6265      2.00000
     23     -24.4011      2.00000
     24     -24.4011      2.00000
     25     -24.3407      2.00000
     26     -24.3407      2.00000
     27     -24.2969      2.00000
     28     -24.2969      2.00000
     29      -6.6079      2.00000
     30      -6.6079      2.00000
     31      -6.6075      2.00000
     32      -6.5982      2.00000
     33      -6.5599      2.00000
     34      -1.4056      2.00000
     35       0.4624      2.00000
     36       1.4291      2.00000
     37       3.3236      2.00000
     38       3.3236      2.00000
     39       3.4253      2.00000
     40       3.4253      2.00000
     41       3.4405      2.00000
     42       3.7272      2.00000
     43       4.8197      2.00000
     44       5.1878      2.00000
     45       5.2582      2.00000
     46       5.7280      2.00000
     47       6.0101      2.00000
     48       6.0839      2.00000
     49       6.0839      2.00000
     50       6.3605      2.00000
     51       6.3605      2.00000
     52       6.5978      2.00000
     53       6.7950      2.00000
     54       6.7950      2.00000
     55       7.1268      2.00000
     56       7.4427      2.00000
     57       7.4804      2.00000
     58       7.5947      2.00000
     59       7.5947      2.00000
     60       7.7455      2.00000
     61       7.7961      2.00000
     62       8.2358      1.22736
     63       8.3091      0.45421
     64       8.3091      0.45421
     65       9.0456      0.00000
[...]
     69       9.2659      0.00000
     70       9.4576      0.00000
     71       9.6055      0.00000
     72       9.9444      0.00000
     73      10.0491      0.00000
     74      10.0813      0.00000
     75      10.1893      0.00000
     76      10.2239      0.00000
     77      10.2263      0.00000
     78      10.3935      0.00000
     79      10.6068      0.00000
     80      10.8586      0.00000
     81      10.9943      0.00000
     82      11.0909      0.00000
     83      11.4871      0.00000
     84      11.4902      0.00000
     85      11.5111      0.00000
     86      11.9152      0.00000
     87      12.0307      0.00000
     88      12.1574      0.00000

 k-point    29 :       0.5000    0.3333    0.5000
  band No.  band energies     occupation 
      1     -48.4537      2.00000
      2     -48.4501      2.00000
      3     -48.3846      2.00000
      4     -48.3586      2.00000
      5     -48.3582      2.00000
      6     -48.2265      2.00000
      7     -48.1856      2.00000
      8     -24.8026      2.00000
      9     -24.7996      2.00000
     10     -24.7991      2.00000
     11     -24.7830      2.00000
     12     -24.7656      2.00000
     13     -24.7656      2.00000
     14     -24.7458      2.00000
     15     -24.7334      2.00000
     16     -24.6617      2.00000
     17     -24.6450      2.00000
     18     -24.6276      2.00000
     19     -24.6202      2.00000
     20     -24.5865      2.00000
     21     -24.5818      2.00000
     22     -24.5813      2.00000
     23     -24.5789      2.00000
     24     -24.5016      2.00000
     25     -24.4765      2.00000
     26     -24.4236      2.00000
     27     -24.3946      2.00000
     28     -24.3547      2.00000
     29      -6.5548      2.00000
     30      -6.5546      2.00000
     31      -6.5545      2.00000
     32      -6.5372      2.00000
     33      -6.5072      2.00000
     34      -0.0043      2.00000
     35       1.1320      2.00000
     36       1.1806      2.00000
     37       1.3135      2.00000
     38       2.0472      2.00000
     39       2.6048      2.00000
     40       2.6056      2.00000
     41       2.6841      2.00000
     42       4.4399      2.00000
     43       5.3450      2.00000
     44       5.4379      2.00000
     45       5.7259      2.00000
     46       5.8836      2.00000
     47       6.4118      2.00000
     48       6.4210      2.00000
     49       6.4416      2.00000
     50       6.9882      2.00000
     51       7.1337      2.00000
     52       7.1481      2.00000
     53       7.4426      2.00000
     54       7.4435      2.00000
     55       7.7789      2.00000
     56       7.9044      2.00000
     57       7.9476      1.99999
     58       8.2301      1.40405
     59       8.2729      0.93958
     60       8.3479      0.25614
     61       8.3630      0.17719
     62       8.4282      0.02313
     63       8.5026      0.00089
     64       8.6183      0.00000
     65       8.8331      0.00000
     66       8.8339      0.00000
     67       9.0091      0.00000
     68       9.0777      0.00000
     69       9.1265      0.00000
     70       9.1295      0.00000
     71       9.7285      0.00000
     72       9.9199      0.00000
     73       9.9523      0.00000
     74       9.9688      0.00000
     75      10.0774      0.00000
     76      10.1290      0.00000
     77      10.1589      0.00000
     78      10.2537      0.00000
     79      10.2993      0.00000
     80      11.0591      0.00000
     81      11.0802      0.00000
     82      11.1026      0.00000
     83      11.4356      0.00000
     84      11.5044      0.00000
     85      11.7529      0.00000
     86      11.9502      0.00000
     87      12.0898      0.00000
     88      12.2455      0.00000

 k-point    30 :       0.5000    0.5000    0.5000
  band No.  band energies     occupation 
      1     -48.4501      2.00000
      2     -48.4501      2.00000
      3     -48.3882      2.00000
      4     -48.3568      2.00000
      5     -48.3568      2.00000
      6     -48.2284      2.00000
      7     -48.1870      2.00000
      8     -24.8003      2.00000
      9     -24.7991      2.00000
     10     -24.7991      2.00000
     11     -24.7812      2.00000
     12     -24.7643      2.00000
     13     -24.7643      2.00000
     14     -24.7369      2.00000
     15     -24.6289      2.00000
     16     -24.6289      2.00000
     17     -24.6278      2.00000
     18     -24.6126      2.00000
     19     -24.5878      2.00000
     20     -24.5878      2.00000
     21     -24.5847      2.00000
     22     -24.5831      2.00000
     23     -24.5726      2.00000
     24     -24.5695      2.00000
     25     -24.4796      2.00000
     26     -24.4796      2.00000
     27     -24.4231      2.00000
     28     -24.4231      2.00000
     29      -6.5545      2.00000
     30      -6.5545      2.00000
     31      -6.5539      2.00000
     32      -6.5350      2.00000
     33      -6.5069      2.00000
     34       0.1895      2.00000
     35       1.5836      2.00000
     36       1.6685      2.00000
     37       1.6685      2.00000
     38       1.8632      2.00000
     39       1.9117      2.00000
     40       1.9376      2.00000
     41       1.9376      2.00000
     42       4.6655      2.00000
     43       5.4704      2.00000
     44       5.4704      2.00000
     45       5.6174      2.00000
     46       6.0946      2.00000
     47       6.2746      2.00000
     48       6.2746      2.00000
     49       6.3320      2.00000
     50       7.5610      2.00000
     51       7.5610      2.00000
     52       7.8619      2.00000
     53       7.8663      2.00000
     54       7.8992      2.00000
     55       8.0516      1.99774
     56       8.0516      1.99774
     57       8.1112      1.97300
     58       8.1500      1.90365
     59       8.1500      1.90365
     60       8.2112      1.57431
     61       8.2167      1.52814
     62       8.4345      0.01823
     63       8.4352      0.01778
     64       8.5504      0.00006
     65       8.5504      0.00006
     66       8.7270      0.00000
     67       8.7270      0.00000
     68       8.9395      0.00000
     69       8.9674      0.00000
     70       9.0195      0.00000
     71       9.8035      0.00000
     72       9.8035      0.00000
     73       9.8964      0.00000
     74       9.9246      0.00000
     75       9.9246      0.00000
     76      10.0181      0.00000
     77      10.0354      0.00000
     78      10.0712      0.00000
     79      10.0712      0.00000
     80      10.7219      0.00000
     81      11.3679      0.00000
     82      11.4966      0.00000
     83      11.4966      0.00000
     84      11.5328      0.00000
     85      11.6037      0.00000
     86      12.3507      0.00000
     87      12.3507      0.00000
     88      12.6582      0.00000


--------------------------------------------------------------------------------------------------------


 soft charge-density along one line, spin component           1
         0         1         2         3         4         5         6         7         8         9
 total charge-density along one line
 
 pseudopotential strength for first ion, spin component:           1
-10.214  -0.000  -0.000  -0.000   0.000  -0.256   0.000   0.000
 -0.000 -10.244  -0.000   0.000   0.000   0.000  -0.239   0.000
 -0.000  -0.000 -10.257  -0.000   0.000   0.000   0.000  -0.232
 -0.000   0.000  -0.000 -10.244  -0.000   0.000  -0.000   0.000
  0.000   0.000   0.000  -0.000 -10.230  -0.000  -0.000  -0.000
 -0.256   0.000   0.000   0.000  -0.000   5.257  -0.000  -0.000
  0.000  -0.239   0.000  -0.000  -0.000  -0.000   5.249  -0.000
  0.000   0.000  -0.232   0.000  -0.000  -0.000  -0.000   5.246
  0.000  -0.000   0.000  -0.239   0.000  -0.000   0.000  -0.000
 -0.000  -0.000  -0.000   0.000  -0.248  -0.000   0.000   0.000
  0.000  -0.000   0.001  -0.000  -0.000  -0.000   0.000   0.002
 -0.000   0.000   0.005   0.000   0.000   0.000  -0.000  -0.003
 -0.000  -0.000   0.000   0.000   0.000  -0.000  -0.000   0.000
  0.000  -0.000  -0.000  -0.000   0.000  -0.000  -0.000  -0.000
 -0.000   0.000   0.000  -0.000  -0.000  -0.000  -0.000   0.000
 -0.000  -0.000   0.000  -0.000   0.000   0.000   0.000  -0.000
 -0.000  -0.000  -0.000  -0.000  -0.000   0.000   0.000   0.000
 -0.000  -0.000   0.000  -0.000  -0.000   0.000   0.000  -0.000
 total augmentation occupancy for first ion, spin component:           1
  2.001  -0.000   0.000   0.000   0.000   0.010   0.000   0.000  -0.000   0.000   0.000   0.000   0.000   0.000   0.000   0.000
 -0.000   2.002  -0.000   0.000   0.000   0.000   0.013   0.000   0.000   0.000  -0.000  -0.000   0.000   0.000   0.000   0.000
  0.000  -0.000   2.002  -0.000   0.000   0.000   0.000   0.011   0.000   0.000  -0.003  -0.001   0.000   0.000   0.000   0.000
  0.000   0.000  -0.000   2.002  -0.000  -0.000   0.000   0.000   0.013  -0.000  -0.000   0.000   0.000   0.000   0.000   0.000
  0.000   0.000   0.000  -0.000   2.005   0.000  -0.000   0.000  -0.000   0.016   0.000   0.000   0.000   0.000   0.000   0.000
  0.010   0.000   0.000  -0.000   0.000   0.034   0.000   0.000   0.000  -0.000   0.000   0.000   0.000   0.000   0.000   0.000
  0.000   0.013   0.000   0.000  -0.000   0.000   0.037   0.000   0.000   0.000  -0.000   0.000   0.000   0.000   0.000   0.000
  0.000   0.000   0.011   0.000   0.000   0.000   0.000   0.018  -0.000   0.000  -0.032   0.001   0.000   0.000   0.000   0.000
 -0.000   0.000   0.000   0.013  -0.000   0.000   0.000  -0.000   0.037   0.000   0.000   0.000   0.000   0.000   0.000   0.000
  0.000   0.000   0.000  -0.000   0.016  -0.000   0.000   0.000   0.000   0.007   0.000   0.000   0.000   0.000   0.000   0.000
  0.000  -0.000  -0.003  -0.000   0.000   0.000  -0.000  -0.032   0.000   0.000   1.575   0.021   0.000   0.000   0.000   0.000
  0.000  -0.000  -0.001   0.000   0.000   0.000   0.000   0.001   0.000   0.000   0.021   0.001   0.000   0.000   0.000   0.000
  0.000   0.000   0.000   0.000   0.000   0.000   0.000   0.000   0.000   0.000   0.000   0.000   0.940  -0.000   0.000   0.014
  0.000   0.000   0.000   0.000   0.000   0.000   0.000   0.000   0.000   0.000   0.000   0.000  -0.000   0.769   0.000  -0.000
  0.000   0.000   0.000   0.000   0.000   0.000   0.000   0.000   0.000   0.000   0.000   0.000   0.000   0.000   0.940   0.000
  0.000   0.000   0.000   0.000   0.000   0.000   0.000   0.000   0.000   0.000   0.000   0.000   0.014  -0.000   0.000   0.000
  0.000   0.000   0.000   0.000   0.000   0.000   0.000   0.000   0.000   0.000   0.000   0.000   0.000   0.012   0.000   0.000
  0.000   0.000   0.000   0.000   0.000   0.000   0.000   0.000   0.000   0.000   0.000   0.000   0.000  -0.000   0.014   0.000


------------------------ aborting loop because EDIFF is reached ----------------------------------------


    CHARGE:  cpu time      0.0353: real time      0.0353
    FORLOC:  cpu time      0.0005: real time      0.0005
    FORNL :  cpu time      0.5841: real time      0.5842
    STRESS:  cpu time      1.9939: real time      1.9947
    FORCOR:  cpu time      0.0097: real time      0.0097
    FORHAR:  cpu time      0.0019: real time      0.0019
    MIXING:  cpu time      0.0002: real time      0.0002
    OFIELD:  cpu time      0.0000: real time      0.0000

  FORCE on cell =-STRESS in cart. coord.  units (eV):
  Direction    XX          YY          ZZ          XY          YZ          ZX
  --------------------------------------------------------------------------------------
  Alpha Z   315.16450   315.16450   315.16450
  Ewald   -2299.74450 -2299.74450 -4224.56271     0.00000    -0.00000    -0.00000
  Hartree  1935.40388  1935.40388   263.71770    -0.00000    -0.00000    -0.00000
  E(xc)    -591.74586  -591.74586  -593.01424    -0.00000    -0.00000     0.00000
  Local   -1261.74811 -1261.74811  2359.48781    -0.00000     0.00000     0.00000
  n-local   -70.79081   -91.92885   -43.38582    -2.04865     0.79079     1.26858
  augment   553.18009   553.18009   537.66054     0.00000    -0.00000     0.00000
  Kinetic  1417.54669  1444.12119  1384.88097     0.55687    -1.22642    -0.67462
  Fock        0.00000     0.00000     0.00000     0.00000     0.00000     0.00000
  -------------------------------------------------------------------------------------
  Total      -0.01588    -0.01588    -0.05125     0.00000     0.00000     0.00000
  in kB      -0.09819    -0.09819    -0.31692     0.00000     0.00000     0.00000
  external pressure =       -0.17 kB  Pullay stress =        0.00 kB


 VOLUME and BASIS-vectors are now :
 -----------------------------------------------------------------------------
  energy-cutoff  :      520.00
  volume of cell :      259.10
      direct lattice vectors                 reciprocal lattice vectors
     5.606951968  0.000000000 -0.000000000     0.178350021  0.000000000  0.000000000
     0.000000000  5.606951968  0.000000000     0.000000000  0.178350021  0.000000000
    -0.000000000  0.000000000  8.241706534     0.000000000  0.000000000  0.121334095

  length of vectors
     5.606951968  5.606951968  8.241706534     0.178350021  0.178350021  0.121334095


 FORCES acting on ions
    electron-ion (+dipol)            ewald-force                    non-local-force                 convergence-correction
 -----------------------------------------------------------------------------------------------
   0.715E-14 0.113E-13 -.101E-12   0.378E-13 0.624E-14 -.292E-13   -.123E-27 0.000E+00 0.000E+00   -.264E-12 0.154E-12 0.236E-12
   0.856E-15 0.139E-15 0.103E-11   -.325E-13 -.969E-14 0.512E-13   0.122E-27 0.000E+00 0.000E+00   0.234E-12 -.135E-12 0.343E-12
   -.229E-14 0.382E-12 -.555E-13   -.295E-13 -.613E-14 -.274E-13   0.578E-28 0.000E+00 0.000E+00   -.267E-12 -.170E-12 0.575E-14
   -.704E-15 0.388E-12 0.104E-11   -.451E-13 -.140E-13 0.195E-13   -.446E-28 0.000E+00 0.000E+00   0.226E-12 0.101E-12 0.489E-12
   0.376E-12 -.249E-14 -.688E-11   -.591E-14 0.658E-14 -.231E-13   -.192E-28 0.000E+00 0.000E+00   0.232E-12 0.129E-12 0.200E-12
   0.386E-12 -.133E-14 0.434E-11   0.286E-13 0.284E-14 0.274E-13   0.253E-27 0.000E+00 0.000E+00   -.242E-12 -.130E-12 0.309E-12
   0.388E-12 0.401E-12 -.211E-11   -.259E-13 -.184E-13 -.310E-13   0.756E-28 0.000E+00 0.000E+00   0.261E-12 -.170E-12 0.268E-13
   0.388E-12 0.420E-12 0.259E-11   0.946E-14 -.108E-13 0.433E-13   0.163E-28 0.000E+00 0.000E+00   -.230E-12 0.855E-13 0.519E-12
   -.620E+00 -.620E+00 0.464E+00   0.109E+01 0.109E+01 0.671E+00   -.466E+00 -.466E+00 -.113E+01   -.495E-02 -.495E-02 0.343E-02
   -.620E+00 -.620E+00 -.464E+00   0.109E+01 0.109E+01 -.671E+00   -.466E+00 -.466E+00 0.113E+01   -.495E-02 -.495E-02 -.343E-02
   -.620E+00 0.620E+00 0.464E+00   0.109E+01 -.109E+01 0.671E+00   -.466E+00 0.466E+00 -.113E+01   -.495E-02 0.495E-02 0.343E-02
   -.620E+00 0.620E+00 -.464E+00   0.109E+01 -.109E+01 -.671E+00   -.466E+00 0.466E+00 0.113E+01   -.495E-02 0.495E-02 -.343E-02
   0.620E+00 -.620E+00 0.464E+00   -.109E+01 0.109E+01 0.671E+00   0.466E+00 -.466E+00 -.113E+01   0.495E-02 -.495E-02 0.343E-02
   0.620E+00 -.620E+00 -.464E+00   -.109E+01 0.109E+01 -.671E+00   0.466E+00 -.466E+00 0.113E+01   0.495E-02 -.495E-02 -.343E-02
   0.620E+00 0.620E+00 0.464E+00   -.109E+01 -.109E+01 0.671E+00   0.466E+00 0.466E+00 -.113E+01   0.495E-02 0.495E-02 0.343E-02
   0.620E+00 0.620E+00 -.464E+00   -.109E+01 -.109E+01 -.671E+00   0.466E+00 0.466E+00 0.113E+01   0.495E-02 0.495E-02 -.343E-02
 -----------------------------------------------------------------------------------------------
   0.147E-11 0.144E-11 -.374E-12   0.200E-14 -.666E-14 -.167E-14   0.000E+00 -.278E-15 -.222E-15   -.507E-13 -.131E-12 0.189E-11
 
 
 POSITION                                       TOTAL-FORCE (eV/Angst)
 -----------------------------------------------------------------------------------
     -0.00000     -0.00000     -0.00000        -0.000000      0.000000      0.000000
     -0.00000     -0.00000      4.12085        -0.000000      0.000000      0.000000
     -0.00000      2.80348     -0.00000        -0.000000      0.000000      0.000000
     -0.00000      2.80348      4.12085        -0.000000      0.000000      0.000000
      2.80348     -0.00000     -0.00000        -0.000000      0.000000      0.000000
      2.80348     -0.00000      4.12085        -0.000000      0.000000      0.000000
      2.80348      2.80348     -0.00000        -0.000000      0.000000      0.000000
      2.80348      2.80348      4.12085        -0.000000      0.000000      0.000000
      1.40705      1.40705      2.07750         0.002312      0.002312      0.006833
      1.40705      1.40705      6.16421         0.002312      0.002312     -0.006833
      1.40705      4.19990      2.07750         0.002312     -0.002312      0.006833
      1.40705      4.19990      6.16421         0.002312     -0.002312     -0.006833
      4.19990      1.40705      2.07750        -0.002312      0.002312      0.006833
      4.19990      1.40705      6.16421        -0.002312      0.002312     -0.006833
      4.19990      4.19990      2.07750        -0.002312     -0.002312      0.006833
      4.19990      4.19990      6.16421        -0.002312     -0.002312     -0.006833
 -----------------------------------------------------------------------------------
    total drift:                                0.000000      0.000000      0.000000


--------------------------------------------------------------------------------------------------------



  FREE ENERGIE OF THE ION-ELECTRON SYSTEM (eV)
  ---------------------------------------------------
  free  energy   TOTEN  =       -93.85374195 eV

  energy  without entropy=      -93.79317915  energy(sigma->0) =      -93.82346055
 d Force = 0.5539358E-04[ 0.413E-04, 0.695E-04]  d Energy = 0.5622653E-04-0.833E-06
 d Force = 0.6421993E-02[ 0.607E-02, 0.678E-02]  d Ewald  = 0.5048205E+00-0.498E+00
 


--------------------------------------------------------------------------------------------------------


    POTLOK:  cpu time      0.0098: real time      0.0098


--------------------------------------------------------------------------------------------------------


 Quasi-Newton relaxation of ions (Broydens 2nd method)
  g(Force)  = 0.221E-04   g(Stress)= 0.944E-05

 retain information from N=  3 steps
 eigenvalues of (default step * inverse Hessian matrix)
  average eigenvalue of G=   1.7842
 eigenvalue spectrum of G is  2.4830  2.4830  0.3866


--------------------------------------------------------------------------------------------------------


  
 reached required accuracy - stopping structural energy minimisation
 writing wavefunctions
     LOOP+:  cpu time     21.8574: real time     21.8875
    4ORBIT:  cpu time      0.0000: real time      0.0000

 total amount of memory used by VASP MPI-rank0   133636. kBytes
=======================================================================

   base                                    :      30000. kBytes
   nonl-proj                               :      93040. kBytes
   fftplans                                :        598. kBytes
   grid                                    :       2781. kBytes
   one-center                              :        248. kBytes
   wavefun                                 :       6969. kBytes
 
  
  
 General timing and accounting informations for this job:
 ========================================================
  
                  Total CPU time used (sec):      216.731
                            User time (sec):      203.209
                          System time (sec):       13.522
                         Elapsed time (sec):      217.032
  
                   Maximum memory used (kb):      268288.
                   Average memory used (kb):          N/A
  
                          Minor page faults:        48576
                          Major page faults:           12
                 Voluntary context switches:          237
