<?xml version="1.0" encoding="ISO-8859-1"?>
<modeling>
 <generator>
  <i name="program" type="string">vasp </i>
  <i name="version" type="string">6.5.0  </i>
  <i name="subversion" type="string">16Dec24 (build Apr 17 2025 17:55:45) complex                          parallel </i>
  <i name="platform" type="string">LinuxIFC </i>
  <i name="date" type="string">2025 06 03 </i>
  <i name="time" type="string">18:32:53 </i>
 </generator>
 <incar>
  <i type="string" name="SYSTEM">CaNi2</i>
  <i type="int" name="ISTART">     0</i>
  <i type="string" name="PREC">N</i>
  <i type="string" name="ALGO">N</i>
  <i type="int" name="ICHARG">     2</i>
  <i type="int" name="NELM">   500</i>
  <i type="int" name="IBRION">     1</i>
  <i name="EDIFF">      0.00001000</i>
  <i name="EDIFFG">     -0.01000000</i>
  <i type="int" name="NSW">   300</i>
  <i type="int" name="ISIF">     3</i>
  <i name="ENCUT">    520.00000000</i>
  <i type="logical" name="LREAL"> F  </i>
  <i type="int" name="ISMEAR">     0</i>
  <i name="SIGMA">      0.10000000</i>
 </incar>
 <primitive_cell>
  <structure name="primitive_cell" >
   <crystal>
    <varray name="basis" >
     <v>       5.64763737       0.00000000       0.00000000 </v>
     <v>       0.00000000       5.64763737       0.00000000 </v>
     <v>       0.00000000       0.00000000       8.14066601 </v>
    </varray>
    <i name="volume">    259.65311861 </i>
    <varray name="rec_basis" >
     <v>       0.17706519       0.00000000       0.00000000 </v>
     <v>       0.00000000       0.17706519       0.00000000 </v>
     <v>       0.00000000       0.00000000       0.12284007 </v>
    </varray>
   </crystal>
   <varray name="positions" >
    <v>       0.00000000       0.00000000       0.00000000 </v>
    <v>       0.00000000       0.00000000       0.50000000 </v>
    <v>       0.00000000       0.50000000       0.00000000 </v>
    <v>       0.00000000       0.50000000       0.50000000 </v>
    <v>       0.50000000       0.00000000       0.00000000 </v>
    <v>       0.50000000       0.00000000       0.50000000 </v>
    <v>       0.50000000       0.50000000       0.00000000 </v>
    <v>       0.50000000       0.50000000       0.50000000 </v>
    <v>       0.25000000       0.25000000       0.25000000 </v>
    <v>       0.25000000       0.25000000       0.75000000 </v>
    <v>       0.25000000       0.75000000       0.25000000 </v>
    <v>       0.25000000       0.75000000       0.75000000 </v>
    <v>       0.75000000       0.25000000       0.25000000 </v>
    <v>       0.75000000       0.25000000       0.75000000 </v>
    <v>       0.75000000       0.75000000       0.25000000 </v>
    <v>       0.75000000       0.75000000       0.75000000 </v>
   </varray>
  </structure>
  <varray name="primitive_index" >
   <v type="int" >        1 </v>
   <v type="int" >        2 </v>
   <v type="int" >        3 </v>
   <v type="int" >        4 </v>
   <v type="int" >        5 </v>
   <v type="int" >        6 </v>
   <v type="int" >        7 </v>
   <v type="int" >        8 </v>
   <v type="int" >        9 </v>
   <v type="int" >       10 </v>
   <v type="int" >       11 </v>
   <v type="int" >       12 </v>
   <v type="int" >       13 </v>
   <v type="int" >       14 </v>
   <v type="int" >       15 </v>
   <v type="int" >       16 </v>
  </varray>
 </primitive_cell>
 <kpoints>
  <generation param="Gamma">
   <v type="int" name="divisions">       6        6        4 </v>
   <v name="usershift">      0.00000000       0.00000000       0.00000000 </v>
   <v name="genvec1">      0.16666667       0.00000000       0.00000000 </v>
   <v name="genvec2">      0.00000000       0.16666667       0.00000000 </v>
   <v name="genvec3">      0.00000000       0.00000000       0.25000000 </v>
   <v name="shift">      0.00000000       0.00000000       0.00000000 </v>
  </generation>
  <varray name="kpointlist" >
   <v>       0.00000000       0.00000000       0.00000000 </v>
   <v>       0.16666667       0.00000000       0.00000000 </v>
   <v>       0.33333333       0.00000000       0.00000000 </v>
   <v>       0.50000000       0.00000000       0.00000000 </v>
   <v>       0.16666667       0.16666667       0.00000000 </v>
   <v>       0.33333333       0.16666667       0.00000000 </v>
   <v>       0.50000000       0.16666667       0.00000000 </v>
   <v>       0.33333333       0.33333333       0.00000000 </v>
   <v>       0.50000000       0.33333333       0.00000000 </v>
   <v>       0.50000000       0.50000000       0.00000000 </v>
   <v>       0.00000000       0.00000000       0.25000000 </v>
   <v>       0.16666667       0.00000000       0.25000000 </v>
   <v>       0.33333333       0.00000000       0.25000000 </v>
   <v>       0.50000000       0.00000000       0.25000000 </v>
   <v>       0.16666667       0.16666667       0.25000000 </v>
   <v>       0.33333333       0.16666667       0.25000000 </v>
   <v>       0.50000000       0.16666667       0.25000000 </v>
   <v>       0.33333333       0.33333333       0.25000000 </v>
   <v>       0.50000000       0.33333333       0.25000000 </v>
   <v>       0.50000000       0.50000000       0.25000000 </v>
   <v>       0.00000000       0.00000000       0.50000000 </v>
   <v>       0.16666667       0.00000000       0.50000000 </v>
   <v>       0.33333333       0.00000000       0.50000000 </v>
   <v>       0.50000000       0.00000000       0.50000000 </v>
   <v>       0.16666667       0.16666667       0.50000000 </v>
   <v>       0.33333333       0.16666667       0.50000000 </v>
   <v>       0.50000000       0.16666667       0.50000000 </v>
   <v>       0.33333333       0.33333333       0.50000000 </v>
   <v>       0.50000000       0.33333333       0.50000000 </v>
   <v>       0.50000000       0.50000000       0.50000000 </v>
  </varray>
  <varray name="weights" >
   <v>       0.00694444 </v>
   <v>       0.02777778 </v>
   <v>       0.02777778 </v>
   <v>       0.01388889 </v>
   <v>       0.02777778 </v>
   <v>       0.05555556 </v>
   <v>       0.02777778 </v>
   <v>       0.02777778 </v>
   <v>       0.02777778 </v>
   <v>       0.00694444 </v>
   <v>       0.01388889 </v>
   <v>       0.05555556 </v>
   <v>       0.05555556 </v>
   <v>       0.02777778 </v>
   <v>       0.05555556 </v>
   <v>       0.11111111 </v>
   <v>       0.05555556 </v>
   <v>       0.05555556 </v>
   <v>       0.05555556 </v>
   <v>       0.01388889 </v>
   <v>       0.00694444 </v>
   <v>       0.02777778 </v>
   <v>       0.02777778 </v>
   <v>       0.01388889 </v>
   <v>       0.02777778 </v>
   <v>       0.05555556 </v>
   <v>       0.02777778 </v>
   <v>       0.02777778 </v>
   <v>       0.02777778 </v>
   <v>       0.00694444 </v>
  </varray>
 </kpoints>
 <parameters>
  <separator name="general" >
   <i type="string" name="SYSTEM">CaNi2</i>
   <i type="logical" name="LCOMPAT"> F  </i>
  </separator>
  <separator name="electronic" >
   <i type="string" name="PREC">n</i>
   <i name="ENMAX">    520.00000000</i>
   <i name="ENAUG">    490.69000000</i>
   <i name="EDIFF">      0.00001000</i>
   <i type="int" name="IALGO">    38</i>
   <i type="int" name="IWAVPR">    11</i>
   <i type="int" name="NBANDS">    88</i>
   <i type="int" name="NBANDSLOW">    -1</i>
   <i type="int" name="NBANDSHIGH">    -1</i>
   <i name="NELECT">    121.00000000</i>
   <i type="int" name="TURBO">     0</i>
   <i type="int" name="IRESTART">     0</i>
   <i type="int" name="NREBOOT">     0</i>
   <i type="int" name="NMIN">     0</i>
   <i name="EREF">      0.00000000</i>
   <separator name="electronic smearing" >
    <i type="int" name="ISMEAR">     0</i>
    <i name="SIGMA">      0.10000000</i>
    <i name="KSPACING">      0.50000000</i>
    <i type="logical" name="KGAMMA"> T  </i>
    <i type="logical" name="KBLOWUP"> T  </i>
   </separator>
   <separator name="electronic projectors" >
    <i type="logical" name="LREAL"> F  </i>
    <v name="ROPT">      0.00000000      0.00000000      0.00000000</v>
    <i type="int" name="LMAXPAW">  -100</i>
    <i type="int" name="LMAXMIX">     2</i>
    <i type="logical" name="NLSPLINE"> F  </i>
   </separator>
   <separator name="electronic startup" >
    <i type="int" name="ISTART">     0</i>
    <i type="int" name="ICHARG">     2</i>
    <i type="int" name="INIWAV">     1</i>
   </separator>
   <separator name="electronic spin" >
    <i type="int" name="ISPIN">     1</i>
    <i type="logical" name="LNONCOLLINEAR"> F  </i>
    <v name="MAGMOM">      1.00000000      1.00000000      1.00000000      1.00000000      1.00000000      1.00000000      1.00000000      1.00000000      1.00000000      1.00000000      1.00000000      1.00000000      1.00000000      1.00000000      1.00000000      1.00000000</v>
    <i name="NUPDOWN">     -1.00000000</i>
    <i type="logical" name="LSORBIT"> F  </i>
    <v name="SAXIS">      0.00000000      0.00000000      1.00000000</v>
    <i type="logical" name="LSPIRAL"> F  </i>
    <v name="QSPIRAL">      0.00000000      0.00000000      0.00000000</v>
    <i type="logical" name="LZEROZ"> F  </i>
   </separator>
   <separator name="electronic exchange-correlation" >
    <i type="logical" name="LASPH"> F  </i>
   </separator>
   <separator name="electronic convergence" >
    <i type="int" name="NELM">   500</i>
    <i type="int" name="NELMDL">    -5</i>
    <i type="int" name="NELMIN">     2</i>
    <i name="ENINI">    520.00000000</i>
    <separator name="electronic convergence detail" >
     <i type="logical" name="LDIAG"> T  </i>
     <i type="logical" name="LSUBROT"> F  </i>
     <i name="WEIMIN">      0.00100000</i>
     <i name="EBREAK">      0.00000003</i>
     <i name="DEPER">      0.30000000</i>
     <i type="int" name="NRMM">     4</i>
     <i name="TIME">      0.40000000</i>
    </separator>
   </separator>
   <separator name="electronic mixer" >
    <i name="AMIX">      0.40000000</i>
    <i name="BMIX">      1.00000000</i>
    <i name="AMIN">      0.10000000</i>
    <i name="AMIX_MAG">      1.60000000</i>
    <i name="BMIX_MAG">      1.00000000</i>
    <separator name="electronic mixer details" >
     <i type="int" name="IMIX">     4</i>
     <i type="logical" name="MIXFIRST"> F  </i>
     <i type="int" name="MAXMIX">   -45</i>
     <i name="WC">    100.00000000</i>
     <i type="int" name="INIMIX">     1</i>
     <i type="int" name="MIXPRE">     1</i>
     <i type="int" name="MREMOVE">     5</i>
    </separator>
   </separator>
   <separator name="electronic dipolcorrection" >
    <i type="logical" name="LDIPOL"> F  </i>
    <i type="logical" name="LMONO"> F  </i>
    <i type="int" name="IDIPOL">     0</i>
    <i name="EPSILON">      1.00000000</i>
    <v name="DIPOL">   -100.00000000   -100.00000000   -100.00000000</v>
    <i name="EFIELD">      0.00000000</i>
    <i type="logical" name="LVACPOTAV"> F  </i>
   </separator>
  </separator>
  <separator name="grids" >
   <i type="int" name="NGX">    32</i>
   <i type="int" name="NGY">    32</i>
   <i type="int" name="NGZ">    48</i>
   <i type="int" name="NGXF">    64</i>
   <i type="int" name="NGYF">    64</i>
   <i type="int" name="NGZF">    96</i>
   <i type="logical" name="ADDGRID"> F  </i>
  </separator>
  <separator name="ionic" >
   <i type="int" name="NSW">   300</i>
   <i type="int" name="IBRION">     1</i>
   <i type="int" name="MDALGO">     0</i>
   <i type="int" name="ISIF">     3</i>
   <i name="PSTRESS">      0.00000000</i>
   <i name="EDIFFG">     -0.01000000</i>
   <i type="int" name="NFREE">     0</i>
   <i name="POTIM">      0.50000000</i>
   <i name="SMASS">     -3.00000000</i>
   <i name="SCALEE">      1.00000000</i>
  </separator>
  <separator name="ionic md" >
   <i name="TEBEG">      0.00010000</i>
   <i name="TEEND">      0.00010000</i>
   <i type="int" name="NBLOCK">     1</i>
   <i type="int" name="KBLOCK">   300</i>
   <i type="int" name="NPACO">   256</i>
   <i name="APACO">     10.00000000</i>
  </separator>
  <separator name="symmetry" >
   <i type="int" name="ISYM">     2</i>
   <i name="SYMPREC">      0.00001000</i>
  </separator>
  <separator name="dos" >
   <i type="int" name="LORBIT">     0</i>
   <v name="RWIGS">     -1.00000000     -1.00000000     -1.00000000</v>
   <i type="int" name="NEDOS">   301</i>
   <i name="EMIN">     10.00000000</i>
   <i name="EMAX">    -10.00000000</i>
   <i name="EFERMI">      0.00000000</i>
  </separator>
  <separator name="writing" >
   <i type="int" name="NWRITE">     2</i>
   <i type="logical" name="LWAVE"> T  </i>
   <i type="logical" name="LDOWNSAMPLE"> F  </i>
   <i type="logical" name="LCHARG"> T  </i>
   <i type="logical" name="LPARD"> F  </i>
   <i type="logical" name="LVTOT"> F  </i>
   <i type="logical" name="LVHAR"> F  </i>
   <i type="logical" name="LELF"> F  </i>
   <i type="logical" name="LOPTICS"> F  </i>
   <v name="STM">      0.00000000      0.00000000      0.00000000      0.00000000      0.00000000      0.00000000      0.00000000</v>
  </separator>
  <separator name="performance" >
   <i type="int" name="NPAR">    44</i>
   <i type="int" name="NSIM">     4</i>
   <i type="int" name="NBLK">    -1</i>
   <i type="logical" name="LPLANE"> T  </i>
   <i type="logical" name="LSCALAPACK"> T  </i>
   <i type="logical" name="LSCAAWARE"> F  </i>
   <i type="logical" name="LSCALU"> F  </i>
   <i type="logical" name="LASYNC"> F  </i>
   <i type="logical" name="LORBITALREAL"> F  </i>
  </separator>
  <separator name="miscellaneous" >
   <i type="int" name="IDIOT">     3</i>
   <i type="int" name="PHON_NSTRUCT">    -1</i>
   <i type="logical" name="LMUSIC"> F  </i>
   <v name="POMASS">     69.72300000     47.88000000     26.98100000</v>
   <v name="DARWINR">      0.00000000      0.00000000      0.00000000</v>
   <v name="DARWINV">      1.00000000      1.00000000      1.00000000</v>
   <i type="logical" name="LCORR"> T  </i>
  </separator>
  <i type="logical" name="GGA_COMPAT"> T  </i>
  <i type="logical" name="LBERRY"> F  </i>
  <i type="int" name="ICORELEVEL">     0</i>
  <i type="logical" name="LDAU"> F  </i>
  <i type="int" name="I_CONSTRAINED_M">     0</i>
  <separator name="electronic exchange-correlation" >
   <i type="string" name="GGA    ">PE</i>
   <i type="string" name="XC_C">1</i>
   <i type="int" name="VOSKOWN">     0</i>
   <i type="logical" name="LHFCALC"> F  </i>
   <i type="string" name="PRECFOCK"></i>
   <i type="logical" name="LSYMGRAD"> F  </i>
   <i type="logical" name="LHFONE"> F  </i>
   <i type="logical" name="LRHFCALC"> F  </i>
   <i type="logical" name="LTHOMAS"> F  </i>
   <i type="logical" name="LMODELHF"> F  </i>
   <i type="logical" name="LFOCKACE"> F  </i>
   <i name="ENCUT4O">     -1.00000000</i>
   <i type="int" name="EXXOEP">     0</i>
   <i type="int" name="FOURORBIT">     0</i>
   <i name="AEXX">      0.00000000</i>
   <i name="HFALPHA">      0.00000000</i>
   <i name="MCALPHA">      0.00000000</i>
   <i name="ALDAX">      1.00000000</i>
   <i name="AGGAX">      1.00000000</i>
   <i name="AMGGAX">      1.00000000</i>
   <i name="ALDAC">      1.00000000</i>
   <i name="AGGAC">      1.00000000</i>
   <i name="AMGGAC">      1.00000000</i>
   <i type="int" name="NKREDX">     1</i>
   <i type="int" name="NKREDY">     1</i>
   <i type="int" name="NKREDZ">     1</i>
   <i type="logical" name="SHIFTRED"> F  </i>
   <i type="logical" name="ODDONLY"> F  </i>
   <i type="logical" name="EVENONLY"> F  </i>
   <i type="int" name="LMAXFOCK">     0</i>
   <i type="int" name="NMAXFOCKAE">     0</i>
   <i type="logical" name="LFOCKAEDFT"> F  </i>
   <i name="HFSCREEN">      0.00000000</i>
   <i name="HFSCREENC">      0.00000000</i>
   <i type="int" name="NBANDSGWLOW">     0</i>
  </separator>
  <separator name="vdW DFT" >
   <i type="logical" name="LUSE_VDW"> F  </i>
   <i type="int" name="IVDW_NL">    -1</i>
   <i type="logical" name="LSPIN_VDW"> F  </i>
   <i name="ZAB_VDW">     -0.84910000</i>
   <i name="GAMMA_VDW">      1.39626340</i>
   <i name="ALPHA_VDW">      0.00000000</i>
   <i name="PARAM1">      0.12340000</i>
   <i name="PARAM2">      1.00000000</i>
   <i name="BPARAM">      6.30000000</i>
   <i name="CPARAM">      0.00930000</i>
  </separator>
  <separator name="model GW" >
   <i type="int" name="MODEL_GW">     0</i>
   <i name="MODEL_EPS0">      9.73699195</i>
   <i name="MODEL_ALPHA">      1.00000000</i>
  </separator>
  <separator name="linear response parameters" >
   <i type="logical" name="LEPSILON"> F  </i>
   <i type="logical" name="LRPA"> F  </i>
   <i type="logical" name="LNABLA"> F  </i>
   <i type="logical" name="LVEL"> F  </i>
   <i name="CSHIFT">      0.10000000</i>
   <i name="OMEGAMAX">     -1.00000000</i>
   <i name="DEG_THRESHOLD">      0.00200000</i>
   <i name="RTIME">     -0.10000000</i>
   <i name="WPLASMAI">      0.00000000</i>
   <v name="DFIELD">      0.00000000      0.00000000      0.00000000</v>
   <v name="WPLASMA">      0.00000000      0.00000000      0.00000000      0.00000000      0.00000000      0.00000000      0.00000000      0.00000000      0.00000000</v>
  </separator>
  <separator name="orbital magnetization" >
   <i type="logical" name="NUCIND"> F  </i>
   <v name="MAGPOS">      0.00000000      0.00000000      0.00000000</v>
   <i type="logical" name="LNICSALL"> T  </i>
   <i type="logical" name="ORBITALMAG"> F  </i>
   <i type="logical" name="LMAGBLOCH"> F  </i>
   <i type="logical" name="LCHIMAG"> F  </i>
   <i type="logical" name="LGAUGE"> T  </i>
   <i type="int" name="MAGATOM">     0</i>
   <v name="MAGDIPOL">      0.00000000      0.00000000      0.00000000</v>
   <v name="AVECCONST">      0.00000000      0.00000000      0.00000000</v>
  </separator>
  <separator name="response functions" >
   <i type="logical" name="LALL_IN_ONE"> F  </i>
   <i type="int" name="IALL_IN_ONE">    -1</i>
   <i type="int" name="NBANDS_WAVE">    -1</i>
   <i type="logical" name="LFINITE_TEMPERATURE"> F  </i>
   <i type="logical" name="LADDER"> F  </i>
   <i type="logical" name="LRPAFORCE"> F  </i>
   <i type="logical" name="LFXC"> F  </i>
   <i type="logical" name="LHARTREE"> T  </i>
   <i type="int" name="IBSE">     2</i>
   <v type="int" name="KPOINT">    -1     0     0     0</v>
   <i type="logical" name="LTCTC"> F  </i>
   <i type="logical" name="LTCTE"> F  </i>
   <i type="logical" name="LTETE"> F  </i>
   <i type="logical" name="LTRIPLET"> F  </i>
   <i type="logical" name="LFXCEPS"> F  </i>
   <i type="logical" name="LFXHEG"> F  </i>
   <i type="int" name="NATURALO">     2</i>
   <i type="logical" name="LHOLEGF"> F  </i>
   <i type="logical" name="L2ORDER"> F  </i>
   <i type="logical" name="LDMP1"> F  </i>
   <i type="logical" name="LMP2LT"> F  </i>
   <i type="logical" name="LSMP2LT"> F  </i>
   <i type="logical" name="LGWLF"> F  </i>
   <i name="ENCUTGW">     -1.60000002</i>
   <i name="ENCUTGWSOFT">     -1.60000002</i>
   <i name="ENCUTLF">     -1.00000000</i>
   <i type="logical" name="ESF_SPLINES"> F  </i>
   <i name="ESF_CONV">      0.01000000</i>
   <i type="int" name="ESF_NINTER">    15</i>
   <i type="int" name="LMAXMP2">    -1</i>
   <i name="SCISSOR">      0.00000000</i>
   <i type="int" name="NOMEGA">     0</i>
   <i type="int" name="NOMEGAR">     0</i>
   <i type="int" name="NBANDSGW">    -1</i>
   <i type="int" name="NBANDSO">    -1</i>
   <i type="int" name="NBANDSV">    -1</i>
   <i type="int" name="NELMGW">     1</i>
   <i type="int" name="NELMHF">     1</i>
   <i type="int" name="DIM">     3</i>
   <i type="int" name="IESPILON">     4</i>
   <i type="int" name="ANTIRES">     0</i>
   <i name="OMEGAMAX">    -30.00000000</i>
   <i name="OMEGAMIN">    -30.00000000</i>
   <i name="OMEGATL">   -200.00000000</i>
   <i type="int" name="OMEGAGRID">     0</i>
   <i name="CSHIFT">     -0.10000000</i>
   <i type="logical" name="LSELFENERGY"> F  </i>
   <i type="logical" name="LSPECTRAL"> F  </i>
   <i type="logical" name="LSPECTRALGW"> F  </i>
   <i type="logical" name="LSINGLES"> F  </i>
   <i type="logical" name="LFERMIGW"> F  </i>
   <i type="logical" name="ODDONLYGW"> F  </i>
   <i type="logical" name="EVENONLYGW"> F  </i>
   <i type="int" name="NKREDLFX">     1</i>
   <i type="int" name="NKREDLFY">     1</i>
   <i type="int" name="NKREDLFZ">     1</i>
   <i type="int" name="MAXMEM">  2800</i>
   <i type="int" name="TELESCOPE">     0</i>
   <i type="int" name="NTAUPAR">    -1</i>
   <i type="int" name="NOMEGAPAR">    -1</i>
   <i name="DAMP_NEWTON">      0.80000001</i>
   <i name="LAMBDA">      1.00000000</i>
  </separator>
  <separator name="External order field" >
   <i name="OFIELD_KAPPA">      0.00000000</i>
   <v name="OFIELD_K">      0.00000000      0.00000000      0.00000000</v>
   <i name="OFIELD_Q6_NEAR">      0.00000000</i>
   <i name="OFIELD_Q6_FAR">      0.00000000</i>
   <i name="OFIELD_A">      0.00000000</i>
  </separator>
  <separator name="optional k-points parameters" >
   <i type="int" name="KPOINTS_OPT_MODE">     1</i>
   <i type="logical" name="LKPOINTS_OPT"> F  </i>
  </separator>
 </parameters>
 <atominfo>
  <atoms>      16 </atoms>
  <types>       3 </types>
  <array name="atoms" >
   <dimension dim="1">ion</dimension>
   <field type="string">element</field>
   <field type="int">atomtype</field>
   <set>
    <rc><c>Ga</c><c>   1</c></rc>
    <rc><c>Ti</c><c>   2</c></rc>
    <rc><c>Ti</c><c>   2</c></rc>
    <rc><c>Ti</c><c>   2</c></rc>
    <rc><c>Ti</c><c>   2</c></rc>
    <rc><c>Ti</c><c>   2</c></rc>
    <rc><c>Ti</c><c>   2</c></rc>
    <rc><c>Ti</c><c>   2</c></rc>
    <rc><c>Al</c><c>   3</c></rc>
    <rc><c>Al</c><c>   3</c></rc>
    <rc><c>Al</c><c>   3</c></rc>
    <rc><c>Al</c><c>   3</c></rc>
    <rc><c>Al</c><c>   3</c></rc>
    <rc><c>Al</c><c>   3</c></rc>
    <rc><c>Al</c><c>   3</c></rc>
    <rc><c>Al</c><c>   3</c></rc>
   </set>
  </array>
  <array name="atomtypes" >
   <dimension dim="1">type</dimension>
   <field type="int">atomspertype</field>
   <field type="string">element</field>
   <field>mass</field>
   <field>valence</field>
   <field type="string">pseudopotential</field>
   <set>
    <rc><c>   1</c><c>Ga</c><c>     69.72300000</c><c>     13.00000000</c><c>  PAW_PBE Ga_d 06Jul2010                </c></rc>
    <rc><c>   7</c><c>Ti</c><c>     47.88000000</c><c>     12.00000000</c><c>  PAW_PBE Ti_sv 26Sep2005               </c></rc>
    <rc><c>   8</c><c>Al</c><c>     26.98100000</c><c>      3.00000000</c><c>  PAW_PBE Al 04Jan2001                  </c></rc>
   </set>
  </array>
 </atominfo>
 <structure name="initialpos" >
  <crystal>
   <varray name="basis" >
    <v>       5.64763737       0.00000000       0.00000000 </v>
    <v>       0.00000000       5.64763737       0.00000000 </v>
    <v>       0.00000000       0.00000000       8.14066601 </v>
   </varray>
   <i name="volume">    259.65311861 </i>
   <varray name="rec_basis" >
    <v>       0.17706519       0.00000000       0.00000000 </v>
    <v>       0.00000000       0.17706519       0.00000000 </v>
    <v>       0.00000000       0.00000000       0.12284007 </v>
   </varray>
  </crystal>
  <varray name="positions" >
   <v>       0.00000000       0.00000000       0.00000000 </v>
   <v>       0.00000000       0.00000000       0.50000000 </v>
   <v>       0.00000000       0.50000000       0.00000000 </v>
   <v>       0.00000000       0.50000000       0.50000000 </v>
   <v>       0.50000000       0.00000000       0.00000000 </v>
   <v>       0.50000000       0.00000000       0.50000000 </v>
   <v>       0.50000000       0.50000000       0.00000000 </v>
   <v>       0.50000000       0.50000000       0.50000000 </v>
   <v>       0.25000000       0.25000000       0.25000000 </v>
   <v>       0.25000000       0.25000000       0.75000000 </v>
   <v>       0.25000000       0.75000000       0.25000000 </v>
   <v>       0.25000000       0.75000000       0.75000000 </v>
   <v>       0.75000000       0.25000000       0.25000000 </v>
   <v>       0.75000000       0.25000000       0.75000000 </v>
   <v>       0.75000000       0.75000000       0.25000000 </v>
   <v>       0.75000000       0.75000000       0.75000000 </v>
  </varray>
 </structure>
 <calculation>
  <scstep>
   <time name="dav">    2.35    2.35</time>
   <time name="total">    2.36    2.36</time>
   <energy>
    <i name="alphaZ">    314.49560023 </i>
    <i name="ewald">  -8841.63325755 </i>
    <i name="hartreedc">  -4316.09581268 </i>
    <i name="XCdc">    269.52852355 </i>
    <i name="pawpsdc">  10984.71331719 </i>
    <i name="pawaedc"> -10925.53584238 </i>
    <i name="eentropy">     -0.03239796 </i>
    <i name="bandstr">   -224.17037002 </i>
    <i name="atom">  13693.72977468 </i>
    <i name="e_fr_energy">    954.99953507 </i>
    <i name="e_wo_entrp">    955.03193303 </i>
    <i name="e_0_energy">    955.01573405 </i>
   </energy>
  </scstep>
  <scstep>
   <time name="dav">    2.34    2.34</time>
   <time name="total">    2.34    2.34</time>
   <energy>
    <i name="e_fr_energy">     -7.47359263 </i>
    <i name="e_wo_entrp">     -7.41761597 </i>
    <i name="e_0_energy">     -7.44560430 </i>
   </energy>
  </scstep>
  <scstep>
   <time name="dav">    5.70    5.70</time>
   <time name="total">    5.70    5.70</time>
   <energy>
    <i name="e_fr_energy">   -101.59875003 </i>
    <i name="e_wo_entrp">   -101.54181379 </i>
    <i name="e_0_energy">   -101.57028191 </i>
   </energy>
  </scstep>
  <scstep>
   <time name="dav">    2.51    2.51</time>
   <time name="total">    2.51    2.51</time>
   <energy>
    <i name="e_fr_energy">   -105.22451703 </i>
    <i name="e_wo_entrp">   -105.16829739 </i>
    <i name="e_0_energy">   -105.19640721 </i>
   </energy>
  </scstep>
  <scstep>
   <time name="dav">    4.66    4.66</time>
   <time name="total">    4.69    4.69</time>
   <energy>
    <i name="e_fr_energy">   -105.41540693 </i>
    <i name="e_wo_entrp">   -105.35919047 </i>
    <i name="e_0_energy">   -105.38729870 </i>
   </energy>
  </scstep>
  <scstep>
   <time name="dav">    4.29    4.29</time>
   <time name="total">    4.33    4.33</time>
   <energy>
    <i name="e_fr_energy">    -95.96245127 </i>
    <i name="e_wo_entrp">    -95.87699578 </i>
    <i name="e_0_energy">    -95.91972352 </i>
   </energy>
  </scstep>
  <scstep>
   <time name="dav">    3.63    3.63</time>
   <time name="total">    3.67    3.68</time>
   <energy>
    <i name="e_fr_energy">    -95.69128088 </i>
    <i name="e_wo_entrp">    -95.63449690 </i>
    <i name="e_0_energy">    -95.66288889 </i>
   </energy>
  </scstep>
  <scstep>
   <time name="dav">    3.74    3.74</time>
   <time name="total">    3.79    3.79</time>
   <energy>
    <i name="e_fr_energy">    -94.06291475 </i>
    <i name="e_wo_entrp">    -93.99801076 </i>
    <i name="e_0_energy">    -94.03046275 </i>
   </energy>
  </scstep>
  <scstep>
   <time name="dav">    3.97    3.97</time>
   <time name="total">    4.02    4.02</time>
   <energy>
    <i name="e_fr_energy">    -94.34097572 </i>
    <i name="e_wo_entrp">    -94.29077096 </i>
    <i name="e_0_energy">    -94.31587334 </i>
   </energy>
  </scstep>
  <scstep>
   <time name="dav">    4.02    4.02</time>
   <time name="total">    4.07    4.07</time>
   <energy>
    <i name="e_fr_energy">    -93.86080007 </i>
    <i name="e_wo_entrp">    -93.79423041 </i>
    <i name="e_0_energy">    -93.82751524 </i>
   </energy>
  </scstep>
  <scstep>
   <time name="dav">    4.11    4.11</time>
   <time name="total">    4.15    4.15</time>
   <energy>
    <i name="e_fr_energy">    -93.85045008 </i>
    <i name="e_wo_entrp">    -93.78819718 </i>
    <i name="e_0_energy">    -93.81932363 </i>
   </energy>
  </scstep>
  <scstep>
   <time name="dav">    3.59    3.59</time>
   <time name="total">    3.64    3.64</time>
   <energy>
    <i name="e_fr_energy">    -93.82593540 </i>
    <i name="e_wo_entrp">    -93.76517372 </i>
    <i name="e_0_energy">    -93.79555456 </i>
   </energy>
  </scstep>
  <scstep>
   <time name="dav">    3.82    3.82</time>
   <time name="total">    3.86    3.86</time>
   <energy>
    <i name="e_fr_energy">    -93.82304128 </i>
    <i name="e_wo_entrp">    -93.76159602 </i>
    <i name="e_0_energy">    -93.79231865 </i>
   </energy>
  </scstep>
  <scstep>
   <time name="dav">    3.52    3.52</time>
   <time name="total">    3.57    3.57</time>
   <energy>
    <i name="e_fr_energy">    -93.82269379 </i>
    <i name="e_wo_entrp">    -93.76104526 </i>
    <i name="e_0_energy">    -93.79186952 </i>
   </energy>
  </scstep>
  <scstep>
   <time name="dav">    3.35    3.35</time>
   <time name="total">    3.40    3.40</time>
   <energy>
    <i name="e_fr_energy">    -93.82259245 </i>
    <i name="e_wo_entrp">    -93.76119752 </i>
    <i name="e_0_energy">    -93.79189498 </i>
   </energy>
  </scstep>
  <scstep>
   <time name="dav">    3.76    3.76</time>
   <time name="total">    3.81    3.81</time>
   <energy>
    <i name="e_fr_energy">    -93.82260758 </i>
    <i name="e_wo_entrp">    -93.76118849 </i>
    <i name="e_0_energy">    -93.79189803 </i>
   </energy>
  </scstep>
  <scstep>
   <time name="dav">    2.76    2.76</time>
   <time name="total">    2.77    2.77</time>
   <energy>
    <i name="alphaZ">    314.49560023 </i>
    <i name="ewald">  -8841.63325755 </i>
    <i name="hartreedc">  -4112.12776444 </i>
    <i name="XCdc">    262.16310586 </i>
    <i name="pawpsdc">  13479.29634139 </i>
    <i name="pawaedc"> -13399.33830573 </i>
    <i name="eentropy">     -0.06142403 </i>
    <i name="bandstr">  -1490.34667419 </i>
    <i name="atom">  13693.72977468 </i>
    <i name="e_fr_energy">    -93.82260378 </i>
    <i name="e_wo_entrp">    -93.76117974 </i>
    <i name="e_0_energy">    -93.79189176 </i>
   </energy>
  </scstep>
  <structure>
   <crystal>
    <varray name="basis" >
     <v>       5.64763737       0.00000000       0.00000000 </v>
     <v>       0.00000000       5.64763737       0.00000000 </v>
     <v>       0.00000000       0.00000000       8.14066601 </v>
    </varray>
    <i name="volume">    259.65311861 </i>
    <varray name="rec_basis" >
     <v>       0.17706519       0.00000000       0.00000000 </v>
     <v>       0.00000000       0.17706519       0.00000000 </v>
     <v>       0.00000000       0.00000000       0.12284007 </v>
    </varray>
   </crystal>
   <varray name="positions" >
    <v>       0.00000000       0.00000000       0.00000000 </v>
    <v>       0.00000000       0.00000000       0.50000000 </v>
    <v>       0.00000000       0.50000000       0.00000000 </v>
    <v>       0.00000000       0.50000000       0.50000000 </v>
    <v>       0.50000000       0.00000000       0.00000000 </v>
    <v>       0.50000000       0.00000000       0.50000000 </v>
    <v>       0.50000000       0.50000000       0.00000000 </v>
    <v>       0.50000000       0.50000000       0.50000000 </v>
    <v>       0.25000000       0.25000000       0.25000000 </v>
    <v>       0.25000000       0.25000000       0.75000000 </v>
    <v>       0.25000000       0.75000000       0.25000000 </v>
    <v>       0.25000000       0.75000000       0.75000000 </v>
    <v>       0.75000000       0.25000000       0.25000000 </v>
    <v>       0.75000000       0.25000000       0.75000000 </v>
    <v>       0.75000000       0.75000000       0.25000000 </v>
    <v>       0.75000000       0.75000000       0.75000000 </v>
   </varray>
  </structure>
  <varray name="forces" >
   <v>      -0.00000000      -0.00000000       0.00000000 </v>
   <v>      -0.00000000      -0.00000000       0.00000000 </v>
   <v>      -0.00000000      -0.00000000       0.00000000 </v>
   <v>      -0.00000000      -0.00000000       0.00000000 </v>
   <v>      -0.00000000      -0.00000000       0.00000000 </v>
   <v>      -0.00000000      -0.00000000       0.00000000 </v>
   <v>      -0.00000000      -0.00000000       0.00000000 </v>
   <v>      -0.00000000      -0.00000000       0.00000000 </v>
   <v>       0.04279433       0.04279433       0.13576579 </v>
   <v>       0.04279433       0.04279433      -0.13576579 </v>
   <v>       0.04279433      -0.04279433       0.13576579 </v>
   <v>       0.04279433      -0.04279433      -0.13576579 </v>
   <v>      -0.04279433       0.04279433       0.13576579 </v>
   <v>      -0.04279433       0.04279433      -0.13576579 </v>
   <v>      -0.04279433      -0.04279433       0.13576579 </v>
   <v>      -0.04279433      -0.04279433      -0.13576579 </v>
  </varray>
  <varray name="stress" >
   <v>      -9.17858883       0.00000000      -0.00000000 </v>
   <v>       0.00000000      -9.17858883       0.00000000 </v>
   <v>       0.00000000       0.00000000       8.99164840 </v>
  </varray>
  <energy>
   <i name="e_fr_energy">    -93.82260378 </i>
   <i name="e_wo_entrp">    -93.76117974 </i>
   <i name="e_0_energy">    -93.79189176 </i>
  </energy>
  <time name="totalsc">   65.85   65.86</time>
 </calculation>
 <calculation>
  <scstep>
   <time name="dav">    2.88    2.88</time>
   <time name="total">    2.93    2.93</time>
   <energy>
    <i name="alphaZ">    315.94757989 </i>
    <i name="ewald">  -8844.61106902 </i>
    <i name="hartreedc">  -4127.65797125 </i>
    <i name="XCdc">    262.94931481 </i>
    <i name="pawpsdc">  13478.37114046 </i>
    <i name="pawaedc"> -13398.34446529 </i>
    <i name="eentropy">     -0.06134769 </i>
    <i name="bandstr">  -1474.22795369 </i>
    <i name="atom">  13693.72977468 </i>
    <i name="e_fr_energy">    -93.90499710 </i>
    <i name="e_wo_entrp">    -93.84364941 </i>
    <i name="e_0_energy">    -93.87432326 </i>
   </energy>
  </scstep>
  <scstep>
   <time name="dav">    3.56    3.56</time>
   <time name="total">    3.60    3.61</time>
   <energy>
    <i name="e_fr_energy">    -93.88388689 </i>
    <i name="e_wo_entrp">    -93.82113628 </i>
    <i name="e_0_energy">    -93.85251158 </i>
   </energy>
  </scstep>
  <scstep>
   <time name="dav">    3.86    3.86</time>
   <time name="total">    3.91    3.91</time>
   <energy>
    <i name="e_fr_energy">    -93.86807214 </i>
    <i name="e_wo_entrp">    -93.80721228 </i>
    <i name="e_0_energy">    -93.83764221 </i>
   </energy>
  </scstep>
  <scstep>
   <time name="dav">    3.64    3.64</time>
   <time name="total">    3.69    3.69</time>
   <energy>
    <i name="e_fr_energy">    -93.84548232 </i>
    <i name="e_wo_entrp">    -93.78380173 </i>
    <i name="e_0_energy">    -93.81464202 </i>
   </energy>
  </scstep>
  <scstep>
   <time name="dav">    4.08    4.08</time>
   <time name="total">    4.13    4.13</time>
   <energy>
    <i name="e_fr_energy">    -93.84671950 </i>
    <i name="e_wo_entrp">    -93.78781158 </i>
    <i name="e_0_energy">    -93.81726554 </i>
   </energy>
  </scstep>
  <scstep>
   <time name="dav">    4.22    4.22</time>
   <time name="total">    4.27    4.27</time>
   <energy>
    <i name="e_fr_energy">    -93.84300060 </i>
    <i name="e_wo_entrp">    -93.78195924 </i>
    <i name="e_0_energy">    -93.81247992 </i>
   </energy>
  </scstep>
  <scstep>
   <time name="dav">    3.46    3.46</time>
   <time name="total">    3.51    3.51</time>
   <energy>
    <i name="e_fr_energy">    -93.84297638 </i>
    <i name="e_wo_entrp">    -93.78214356 </i>
    <i name="e_0_energy">    -93.81255997 </i>
   </energy>
  </scstep>
  <scstep>
   <time name="dav">    3.56    3.57</time>
   <time name="total">    3.61    3.61</time>
   <energy>
    <i name="e_fr_energy">    -93.84304067 </i>
    <i name="e_wo_entrp">    -93.78218021 </i>
    <i name="e_0_energy">    -93.81261044 </i>
   </energy>
  </scstep>
  <scstep>
   <time name="dav">    4.38    4.38</time>
   <time name="total">    4.43    4.43</time>
   <energy>
    <i name="e_fr_energy">    -93.84322101 </i>
    <i name="e_wo_entrp">    -93.78218698 </i>
    <i name="e_0_energy">    -93.81270399 </i>
   </energy>
  </scstep>
  <scstep>
   <time name="dav">    3.95    3.95</time>
   <time name="total">    4.00    4.00</time>
   <energy>
    <i name="e_fr_energy">    -93.84310258 </i>
    <i name="e_wo_entrp">    -93.78225869 </i>
    <i name="e_0_energy">    -93.81268064 </i>
   </energy>
  </scstep>
  <scstep>
   <time name="dav">    2.44    2.44</time>
   <time name="total">    2.46    2.46</time>
   <energy>
    <i name="alphaZ">    315.94757989 </i>
    <i name="ewald">  -8844.61106902 </i>
    <i name="hartreedc">  -4117.62889889 </i>
    <i name="XCdc">    262.41199052 </i>
    <i name="pawpsdc">  13527.01527310 </i>
    <i name="pawaedc"> -13446.41995103 </i>
    <i name="eentropy">     -0.06083560 </i>
    <i name="bandstr">  -1484.22697097 </i>
    <i name="atom">  13693.72977468 </i>
    <i name="e_fr_energy">    -93.84310732 </i>
    <i name="e_wo_entrp">    -93.78227173 </i>
    <i name="e_0_energy">    -93.81268952 </i>
   </energy>
  </scstep>
  <structure>
   <crystal>
    <varray name="basis" >
     <v>       5.62230727       0.00000000      -0.00000000 </v>
     <v>       0.00000000       5.62230727       0.00000000 </v>
     <v>       0.00000000       0.00000000       8.17643391 </v>
    </varray>
    <i name="volume">    258.45984773 </i>
    <varray name="rec_basis" >
     <v>       0.17786292       0.00000000       0.00000000 </v>
     <v>       0.00000000       0.17786292       0.00000000 </v>
     <v>       0.00000000       0.00000000       0.12230271 </v>
    </varray>
   </crystal>
   <varray name="positions" >
    <v>      -0.00000000      -0.00000000       0.00000000 </v>
    <v>      -0.00000000      -0.00000000       0.50000000 </v>
    <v>      -0.00000000       0.50000000       0.00000000 </v>
    <v>      -0.00000000       0.50000000       0.50000000 </v>
    <v>       0.50000000      -0.00000000       0.00000000 </v>
    <v>       0.50000000      -0.00000000       0.50000000 </v>
    <v>       0.50000000       0.50000000       0.00000000 </v>
    <v>       0.50000000       0.50000000       0.50000000 </v>
    <v>       0.25036555       0.25036555       0.25080457 </v>
    <v>       0.25036555       0.25036555       0.74919543 </v>
    <v>       0.25036555       0.74963445       0.25080457 </v>
    <v>       0.25036555       0.74963445       0.74919543 </v>
    <v>       0.74963445       0.25036555       0.25080457 </v>
    <v>       0.74963445       0.25036555       0.74919543 </v>
    <v>       0.74963445       0.74963445       0.25080457 </v>
    <v>       0.74963445       0.74963445       0.74919543 </v>
   </varray>
  </structure>
  <varray name="forces" >
   <v>       0.00000000      -0.00000000      -0.00000000 </v>
   <v>       0.00000000      -0.00000000      -0.00000000 </v>
   <v>       0.00000000      -0.00000000      -0.00000000 </v>
   <v>       0.00000000      -0.00000000      -0.00000000 </v>
   <v>       0.00000000      -0.00000000      -0.00000000 </v>
   <v>       0.00000000      -0.00000000      -0.00000000 </v>
   <v>       0.00000000      -0.00000000      -0.00000000 </v>
   <v>       0.00000000      -0.00000000      -0.00000000 </v>
   <v>       0.02702046       0.02702046       0.08430046 </v>
   <v>       0.02702046       0.02702046      -0.08430046 </v>
   <v>       0.02702046      -0.02702046       0.08430046 </v>
   <v>       0.02702046      -0.02702046      -0.08430046 </v>
   <v>      -0.02702046       0.02702046       0.08430046 </v>
   <v>      -0.02702046       0.02702046      -0.08430046 </v>
   <v>      -0.02702046      -0.02702046       0.08430046 </v>
   <v>      -0.02702046      -0.02702046      -0.08430046 </v>
  </varray>
  <varray name="stress" >
   <v>      -1.03242997       0.00000000       0.00000000 </v>
   <v>       0.00000000      -1.03242997       0.00000000 </v>
   <v>      -0.00000000       0.00000000       8.88875380 </v>
  </varray>
  <energy>
   <i name="e_fr_energy">    -93.84310732 </i>
   <i name="e_wo_entrp">    -93.78227173 </i>
   <i name="e_0_energy">    -93.81268952 </i>
  </energy>
  <time name="totalsc">   43.43   43.43</time>
 </calculation>
 <calculation>
  <scstep>
   <time name="dav">    3.16    3.16</time>
   <time name="total">    3.20    3.20</time>
   <energy>
    <i name="alphaZ">    314.67262855 </i>
    <i name="ewald">  -8825.46701191 </i>
    <i name="hartreedc">  -4118.33923973 </i>
    <i name="XCdc">    261.72972682 </i>
    <i name="pawpsdc">  13527.11672294 </i>
    <i name="pawaedc"> -13446.49784641 </i>
    <i name="eentropy">     -0.06426465 </i>
    <i name="bandstr">  -1500.78109070 </i>
    <i name="atom">  13693.72977468 </i>
    <i name="e_fr_energy">    -93.90060041 </i>
    <i name="e_wo_entrp">    -93.83633576 </i>
    <i name="e_0_energy">    -93.86846809 </i>
   </energy>
  </scstep>
  <scstep>
   <time name="dav">    3.82    3.82</time>
   <time name="total">    3.87    3.87</time>
   <energy>
    <i name="e_fr_energy">    -93.88128713 </i>
    <i name="e_wo_entrp">    -93.82099320 </i>
    <i name="e_0_energy">    -93.85114016 </i>
   </energy>
  </scstep>
  <scstep>
   <time name="dav">    3.91    3.91</time>
   <time name="total">    3.96    3.96</time>
   <energy>
    <i name="e_fr_energy">    -93.87534402 </i>
    <i name="e_wo_entrp">    -93.81464996 </i>
    <i name="e_0_energy">    -93.84499699 </i>
   </energy>
  </scstep>
  <scstep>
   <time name="dav">    4.07    4.07</time>
   <time name="total">    4.12    4.12</time>
   <energy>
    <i name="e_fr_energy">    -93.85257117 </i>
    <i name="e_wo_entrp">    -93.79092846 </i>
    <i name="e_0_energy">    -93.82174981 </i>
   </energy>
  </scstep>
  <scstep>
   <time name="dav">    4.16    4.16</time>
   <time name="total">    4.21    4.21</time>
   <energy>
    <i name="e_fr_energy">    -93.85372729 </i>
    <i name="e_wo_entrp">    -93.79444620 </i>
    <i name="e_0_energy">    -93.82408675 </i>
   </energy>
  </scstep>
  <scstep>
   <time name="dav">    3.68    3.68</time>
   <time name="total">    3.73    3.73</time>
   <energy>
    <i name="e_fr_energy">    -93.85088843 </i>
    <i name="e_wo_entrp">    -93.78984251 </i>
    <i name="e_0_energy">    -93.82036547 </i>
   </energy>
  </scstep>
  <scstep>
   <time name="dav">    3.13    3.13</time>
   <time name="total">    3.18    3.18</time>
   <energy>
    <i name="e_fr_energy">    -93.85090548 </i>
    <i name="e_wo_entrp">    -93.79001666 </i>
    <i name="e_0_energy">    -93.82046107 </i>
   </energy>
  </scstep>
  <scstep>
   <time name="dav">    3.47    3.47</time>
   <time name="total">    3.52    3.52</time>
   <energy>
    <i name="e_fr_energy">    -93.85094673 </i>
    <i name="e_wo_entrp">    -93.79003453 </i>
    <i name="e_0_energy">    -93.82049063 </i>
   </energy>
  </scstep>
  <scstep>
   <time name="dav">    3.93    3.93</time>
   <time name="total">    3.98    3.98</time>
   <energy>
    <i name="e_fr_energy">    -93.85105370 </i>
    <i name="e_wo_entrp">    -93.79000866 </i>
    <i name="e_0_energy">    -93.82053118 </i>
   </energy>
  </scstep>
  <scstep>
   <time name="dav">    3.68    3.68</time>
   <time name="total">    3.73    3.73</time>
   <energy>
    <i name="e_fr_energy">    -93.85098647 </i>
    <i name="e_wo_entrp">    -93.79003469 </i>
    <i name="e_0_energy">    -93.82051058 </i>
   </energy>
  </scstep>
  <scstep>
   <time name="dav">    2.44    2.44</time>
   <time name="total">    2.46    2.46</time>
   <energy>
    <i name="alphaZ">    314.67262855 </i>
    <i name="ewald">  -8825.46701191 </i>
    <i name="hartreedc">  -4130.27567176 </i>
    <i name="XCdc">    262.24115613 </i>
    <i name="pawpsdc">  13494.84804714 </i>
    <i name="pawaedc"> -13414.31266042 </i>
    <i name="eentropy">     -0.06094193 </i>
    <i name="bandstr">  -1489.22630719 </i>
    <i name="atom">  13693.72977468 </i>
    <i name="e_fr_energy">    -93.85098671 </i>
    <i name="e_wo_entrp">    -93.79004478 </i>
    <i name="e_0_energy">    -93.82051575 </i>
   </energy>
  </scstep>
  <structure>
   <crystal>
    <varray name="basis" >
     <v>       5.61885558       0.00000000       0.00000000 </v>
     <v>       0.00000000       5.61885558       0.00000000 </v>
     <v>      -0.00000000       0.00000000       8.21965162 </v>
    </varray>
    <i name="volume">    259.50704314 </i>
    <varray name="rec_basis" >
     <v>       0.17797218       0.00000000       0.00000000 </v>
     <v>       0.00000000       0.17797218       0.00000000 </v>
     <v>      -0.00000000       0.00000000       0.12165966 </v>
    </varray>
   </crystal>
   <varray name="positions" >
    <v>      -0.00000000      -0.00000000      -0.00000000 </v>
    <v>      -0.00000000      -0.00000000       0.50000000 </v>
    <v>      -0.00000000       0.50000000      -0.00000000 </v>
    <v>      -0.00000000       0.50000000       0.50000000 </v>
    <v>       0.50000000      -0.00000000      -0.00000000 </v>
    <v>       0.50000000      -0.00000000       0.50000000 </v>
    <v>       0.50000000       0.50000000      -0.00000000 </v>
    <v>       0.50000000       0.50000000       0.50000000 </v>
    <v>       0.25064900       0.25064900       0.25141265 </v>
    <v>       0.25064900       0.25064900       0.74858735 </v>
    <v>       0.25064900       0.74935100       0.25141265 </v>
    <v>       0.25064900       0.74935100       0.74858735 </v>
    <v>       0.74935100       0.25064900       0.25141265 </v>
    <v>       0.74935100       0.25064900       0.74858735 </v>
    <v>       0.74935100       0.74935100       0.25141265 </v>
    <v>       0.74935100       0.74935100       0.74858735 </v>
   </varray>
  </structure>
  <varray name="forces" >
   <v>      -0.00000000       0.00000000       0.00000000 </v>
   <v>      -0.00000000       0.00000000       0.00000000 </v>
   <v>      -0.00000000       0.00000000       0.00000000 </v>
   <v>      -0.00000000       0.00000000       0.00000000 </v>
   <v>      -0.00000000       0.00000000       0.00000000 </v>
   <v>      -0.00000000       0.00000000       0.00000000 </v>
   <v>      -0.00000000       0.00000000       0.00000000 </v>
   <v>      -0.00000000       0.00000000       0.00000000 </v>
   <v>       0.01583574       0.01583574       0.04901867 </v>
   <v>       0.01583574       0.01583574      -0.04901867 </v>
   <v>       0.01583574      -0.01583574       0.04901867 </v>
   <v>       0.01583574      -0.01583574      -0.04901867 </v>
   <v>      -0.01583574       0.01583574       0.04901867 </v>
   <v>      -0.01583574       0.01583574      -0.04901867 </v>
   <v>      -0.01583574      -0.01583574       0.04901867 </v>
   <v>      -0.01583574      -0.01583574      -0.04901867 </v>
  </varray>
  <varray name="stress" >
   <v>      -3.21364889       0.00000000      -0.00000000 </v>
   <v>       0.00000000      -3.21364889       0.00000000 </v>
   <v>       0.00000000       0.00000000       1.11097227 </v>
  </varray>
  <energy>
   <i name="e_fr_energy">    -93.85098671 </i>
   <i name="e_wo_entrp">    -93.79004478 </i>
   <i name="e_0_energy">    -93.82051575 </i>
  </energy>
  <time name="totalsc">   42.85   42.85</time>
 </calculation>
 <calculation>
  <scstep>
   <time name="dav">    2.80    2.80</time>
   <time name="total">    2.85    2.85</time>
   <energy>
    <i name="alphaZ">    315.11311321 </i>
    <i name="ewald">  -8823.53181416 </i>
    <i name="hartreedc">  -4137.36843766 </i>
    <i name="XCdc">    262.47819475 </i>
    <i name="pawpsdc">  13494.69204305 </i>
    <i name="pawaedc"> -13414.19240218 </i>
    <i name="eentropy">     -0.06141254 </i>
    <i name="bandstr">  -1484.72610226 </i>
    <i name="atom">  13693.72977468 </i>
    <i name="e_fr_energy">    -93.86704310 </i>
    <i name="e_wo_entrp">    -93.80563057 </i>
    <i name="e_0_energy">    -93.83633683 </i>
   </energy>
  </scstep>
  <scstep>
   <time name="dav">    3.64    3.64</time>
   <time name="total">    3.69    3.69</time>
   <energy>
    <i name="e_fr_energy">    -93.87154160 </i>
    <i name="e_wo_entrp">    -93.81053322 </i>
    <i name="e_0_energy">    -93.84103741 </i>
   </energy>
  </scstep>
  <scstep>
   <time name="dav">    3.97    3.97</time>
   <time name="total">    4.02    4.02</time>
   <energy>
    <i name="e_fr_energy">    -93.85718164 </i>
    <i name="e_wo_entrp">    -93.79636912 </i>
    <i name="e_0_energy">    -93.82677538 </i>
   </energy>
  </scstep>
  <scstep>
   <time name="dav">    3.77    3.77</time>
   <time name="total">    3.82    3.82</time>
   <energy>
    <i name="e_fr_energy">    -93.85446316 </i>
    <i name="e_wo_entrp">    -93.79308233 </i>
    <i name="e_0_energy">    -93.82377274 </i>
   </energy>
  </scstep>
  <scstep>
   <time name="dav">    4.16    4.16</time>
   <time name="total">    4.21    4.21</time>
   <energy>
    <i name="e_fr_energy">    -93.85380192 </i>
    <i name="e_wo_entrp">    -93.79358478 </i>
    <i name="e_0_energy">    -93.82369335 </i>
   </energy>
  </scstep>
  <scstep>
   <time name="dav">    3.64    3.64</time>
   <time name="total">    3.69    3.69</time>
   <energy>
    <i name="e_fr_energy">    -93.85370080 </i>
    <i name="e_wo_entrp">    -93.79302370 </i>
    <i name="e_0_energy">    -93.82336225 </i>
   </energy>
  </scstep>
  <scstep>
   <time name="dav">    3.55    3.55</time>
   <time name="total">    3.60    3.60</time>
   <energy>
    <i name="e_fr_energy">    -93.85368653 </i>
    <i name="e_wo_entrp">    -93.79305538 </i>
    <i name="e_0_energy">    -93.82337096 </i>
   </energy>
  </scstep>
  <scstep>
   <time name="dav">    3.45    3.46</time>
   <time name="total">    3.50    3.50</time>
   <energy>
    <i name="e_fr_energy">    -93.85368515 </i>
    <i name="e_wo_entrp">    -93.79308170 </i>
    <i name="e_0_energy">    -93.82338342 </i>
   </energy>
  </scstep>
  <scstep>
   <time name="dav">    3.65    3.65</time>
   <time name="total">    3.70    3.70</time>
   <energy>
    <i name="e_fr_energy">    -93.85369824 </i>
    <i name="e_wo_entrp">    -93.79302296 </i>
    <i name="e_0_energy">    -93.82336060 </i>
   </energy>
  </scstep>
  <scstep>
   <time name="dav">    3.27    3.27</time>
   <time name="total">    3.32    3.32</time>
   <energy>
    <i name="e_fr_energy">    -93.85368491 </i>
    <i name="e_wo_entrp">    -93.79306346 </i>
    <i name="e_0_energy">    -93.82337418 </i>
   </energy>
  </scstep>
  <scstep>
   <time name="dav">    1.45    1.46</time>
   <time name="total">    1.47    1.47</time>
   <energy>
    <i name="alphaZ">    315.11311321 </i>
    <i name="ewald">  -8823.53181416 </i>
    <i name="hartreedc">  -4134.82985438 </i>
    <i name="XCdc">    262.32120549 </i>
    <i name="pawpsdc">  13511.68953948 </i>
    <i name="pawaedc"> -13430.98016912 </i>
    <i name="eentropy">     -0.06062256 </i>
    <i name="bandstr">  -1487.30485838 </i>
    <i name="atom">  13693.72977468 </i>
    <i name="e_fr_energy">    -93.85368573 </i>
    <i name="e_wo_entrp">    -93.79306317 </i>
    <i name="e_0_energy">    -93.82337445 </i>
   </energy>
  </scstep>
  <structure>
   <crystal>
    <varray name="basis" >
     <v>       5.60722945       0.00000000      -0.00000000 </v>
     <v>       0.00000000       5.60722945       0.00000000 </v>
     <v>      -0.00000000       0.00000000       8.24223484 </v>
    </varray>
    <i name="volume">    259.14428809 </i>
    <varray name="rec_basis" >
     <v>       0.17834119       0.00000000       0.00000000 </v>
     <v>       0.00000000       0.17834119       0.00000000 </v>
     <v>       0.00000000       0.00000000       0.12132632 </v>
    </varray>
   </crystal>
   <varray name="positions" >
    <v>      -0.00000000      -0.00000000      -0.00000000 </v>
    <v>      -0.00000000      -0.00000000       0.50000000 </v>
    <v>      -0.00000000       0.50000000      -0.00000000 </v>
    <v>      -0.00000000       0.50000000       0.50000000 </v>
    <v>       0.50000000      -0.00000000      -0.00000000 </v>
    <v>       0.50000000      -0.00000000       0.50000000 </v>
    <v>       0.50000000       0.50000000      -0.00000000 </v>
    <v>       0.50000000       0.50000000       0.50000000 </v>
    <v>       0.25092098       0.25092098       0.25199150 </v>
    <v>       0.25092098       0.25092098       0.74800850 </v>
    <v>       0.25092098       0.74907902       0.25199150 </v>
    <v>       0.25092098       0.74907902       0.74800850 </v>
    <v>       0.74907902       0.25092098       0.25199150 </v>
    <v>       0.74907902       0.25092098       0.74800850 </v>
    <v>       0.74907902       0.74907902       0.25199150 </v>
    <v>       0.74907902       0.74907902       0.74800850 </v>
   </varray>
  </structure>
  <varray name="forces" >
   <v>       0.00000000       0.00000000       0.00000000 </v>
   <v>      -0.00000000       0.00000000       0.00000000 </v>
   <v>       0.00000000       0.00000000       0.00000000 </v>
   <v>      -0.00000000       0.00000000       0.00000000 </v>
   <v>       0.00000000       0.00000000       0.00000000 </v>
   <v>      -0.00000000       0.00000000       0.00000000 </v>
   <v>       0.00000000       0.00000000       0.00000000 </v>
   <v>      -0.00000000       0.00000000       0.00000000 </v>
   <v>       0.00260576       0.00260576       0.01206922 </v>
   <v>       0.00260576       0.00260576      -0.01206922 </v>
   <v>       0.00260576      -0.00260576       0.01206922 </v>
   <v>       0.00260576      -0.00260576      -0.01206922 </v>
   <v>      -0.00260576       0.00260576       0.01206922 </v>
   <v>      -0.00260576       0.00260576      -0.01206922 </v>
   <v>      -0.00260576      -0.00260576       0.01206922 </v>
   <v>      -0.00260576      -0.00260576      -0.01206922 </v>
  </varray>
  <varray name="stress" >
   <v>      -0.15321676       0.00000000       0.00000000 </v>
   <v>       0.00000000      -0.15321676       0.00000000 </v>
   <v>       0.00000000       0.00000000      -0.29649381 </v>
  </varray>
  <energy>
   <i name="e_fr_energy">    -93.85368573 </i>
   <i name="e_wo_entrp">    -93.79306317 </i>
   <i name="e_0_energy">    -93.82337445 </i>
  </energy>
  <time name="totalsc">   40.76   40.77</time>
 </calculation>
 <calculation>
  <scstep>
   <time name="dav">    3.06    3.06</time>
   <time name="total">    3.11    3.11</time>
   <energy>
    <i name="alphaZ">    315.16450473 </i>
    <i name="ewald">  -8824.03663466 </i>
    <i name="hartreedc">  -4135.04700231 </i>
    <i name="XCdc">    262.34983680 </i>
    <i name="pawpsdc">  13511.77430095 </i>
    <i name="pawaedc"> -13431.04955150 </i>
    <i name="eentropy">     -0.06055272 </i>
    <i name="bandstr">  -1486.67847697 </i>
    <i name="atom">  13693.72977468 </i>
    <i name="e_fr_energy">    -93.85380099 </i>
    <i name="e_wo_entrp">    -93.79324827 </i>
    <i name="e_0_energy">    -93.82352463 </i>
   </energy>
  </scstep>
  <scstep>
   <time name="dav">    3.95    3.95</time>
   <time name="total">    4.00    4.00</time>
   <energy>
    <i name="e_fr_energy">    -93.85397217 </i>
    <i name="e_wo_entrp">    -93.79329751 </i>
    <i name="e_0_energy">    -93.82363484 </i>
   </energy>
  </scstep>
  <scstep>
   <time name="dav">    4.19    4.19</time>
   <time name="total">    4.24    4.24</time>
   <energy>
    <i name="e_fr_energy">    -93.85375115 </i>
    <i name="e_wo_entrp">    -93.79313891 </i>
    <i name="e_0_energy">    -93.82344503 </i>
   </energy>
  </scstep>
  <scstep>
   <time name="dav">    3.51    3.52</time>
   <time name="total">    3.56    3.56</time>
   <energy>
    <i name="e_fr_energy">    -93.85374190 </i>
    <i name="e_wo_entrp">    -93.79310685 </i>
    <i name="e_0_energy">    -93.82342438 </i>
   </energy>
  </scstep>
  <scstep>
   <time name="dav">    3.08    3.08</time>
   <time name="total">    3.09    3.10</time>
   <energy>
    <i name="alphaZ">    315.16450473 </i>
    <i name="ewald">  -8824.03663466 </i>
    <i name="hartreedc">  -4134.61965616 </i>
    <i name="XCdc">    262.33016492 </i>
    <i name="pawpsdc">  13513.05551217 </i>
    <i name="pawaedc"> -13432.35445502 </i>
    <i name="eentropy">     -0.06056280 </i>
    <i name="bandstr">  -1487.06238981 </i>
    <i name="atom">  13693.72977468 </i>
    <i name="e_fr_energy">    -93.85374195 </i>
    <i name="e_wo_entrp">    -93.79317915 </i>
    <i name="e_0_energy">    -93.82346055 </i>
   </energy>
  </scstep>
  <structure>
   <crystal>
    <varray name="basis" >
     <v>       5.60695197       0.00000000      -0.00000000 </v>
     <v>       0.00000000       5.60695197       0.00000000 </v>
     <v>      -0.00000000       0.00000000       8.24170653 </v>
    </varray>
    <i name="volume">    259.10203137 </i>
    <varray name="rec_basis" >
     <v>       0.17835002       0.00000000       0.00000000 </v>
     <v>       0.00000000       0.17835002       0.00000000 </v>
     <v>       0.00000000       0.00000000       0.12133409 </v>
    </varray>
   </crystal>
   <varray name="positions" >
    <v>      -0.00000000      -0.00000000      -0.00000000 </v>
    <v>      -0.00000000      -0.00000000       0.50000000 </v>
    <v>      -0.00000000       0.50000000      -0.00000000 </v>
    <v>      -0.00000000       0.50000000       0.50000000 </v>
    <v>       0.50000000      -0.00000000      -0.00000000 </v>
    <v>       0.50000000      -0.00000000       0.50000000 </v>
    <v>       0.50000000       0.50000000      -0.00000000 </v>
    <v>       0.50000000       0.50000000       0.50000000 </v>
    <v>       0.25094688       0.25094688       0.25207123 </v>
    <v>       0.25094688       0.25094688       0.74792877 </v>
    <v>       0.25094688       0.74905312       0.25207123 </v>
    <v>       0.25094688       0.74905312       0.74792877 </v>
    <v>       0.74905312       0.25094688       0.25207123 </v>
    <v>       0.74905312       0.25094688       0.74792877 </v>
    <v>       0.74905312       0.74905312       0.25207123 </v>
    <v>       0.74905312       0.74905312       0.74792877 </v>
   </varray>
  </structure>
  <varray name="forces" >
   <v>      -0.00000000       0.00000000       0.00000000 </v>
   <v>      -0.00000000       0.00000000       0.00000000 </v>
   <v>      -0.00000000       0.00000000       0.00000000 </v>
   <v>      -0.00000000       0.00000000       0.00000000 </v>
   <v>      -0.00000000       0.00000000       0.00000000 </v>
   <v>      -0.00000000       0.00000000       0.00000000 </v>
   <v>      -0.00000000       0.00000000       0.00000000 </v>
   <v>      -0.00000000       0.00000000       0.00000000 </v>
   <v>       0.00231189       0.00231189       0.00683313 </v>
   <v>       0.00231189       0.00231189      -0.00683313 </v>
   <v>       0.00231189      -0.00231189       0.00683313 </v>
   <v>       0.00231189      -0.00231189      -0.00683313 </v>
   <v>      -0.00231189       0.00231189       0.00683313 </v>
   <v>      -0.00231189       0.00231189      -0.00683313 </v>
   <v>      -0.00231189      -0.00231189       0.00683313 </v>
   <v>      -0.00231189      -0.00231189      -0.00683313 </v>
  </varray>
  <varray name="stress" >
   <v>      -0.09819178       0.00000000       0.00000000 </v>
   <v>       0.00000000      -0.09819178       0.00000000 </v>
   <v>       0.00000000       0.00000000      -0.31691737 </v>
  </varray>
  <energy>
   <i name="e_fr_energy">    -93.85374195 </i>
   <i name="e_wo_entrp">    -93.79317915 </i>
   <i name="e_0_energy">    -93.82346055 </i>
  </energy>
  <time name="totalsc">   21.86   21.89</time>
  <eigenvalues>
   <array>
    <dimension dim="1">band</dimension>
    <dimension dim="2">kpoint</dimension>
    <dimension dim="3">spin</dimension>
    <field>eigene</field>
    <field>occ</field>
    <set>
     <set comment="spin 1">
      <set comment="kpoint 1">
       <r>  -48.4728    1.0000 </r>
       <r>  -48.4493    1.0000 </r>
       <r>  -48.3797    1.0000 </r>
       <r>  -48.3659    1.0000 </r>
       <r>  -48.3560    1.0000 </r>
       <r>  -48.2182    1.0000 </r>
       <r>  -48.1742    1.0000 </r>
       <r>  -24.8728    1.0000 </r>
       <r>  -24.8728    1.0000 </r>
       <r>  -24.8232    1.0000 </r>
       <r>  -24.8021    1.0000 </r>
       <r>  -24.8021    1.0000 </r>
       <r>  -24.7981    1.0000 </r>
       <r>  -24.7835    1.0000 </r>
       <r>  -24.7823    1.0000 </r>
       <r>  -24.7823    1.0000 </r>
       <r>  -24.7617    1.0000 </r>
       <r>  -24.7288    1.0000 </r>
       <r>  -24.7288    1.0000 </r>
       <r>  -24.7154    1.0000 </r>
       <r>  -24.5839    1.0000 </r>
       <r>  -24.5674    1.0000 </r>
       <r>  -24.3767    1.0000 </r>
       <r>  -24.3767    1.0000 </r>
       <r>  -24.2851    1.0000 </r>
       <r>  -24.2851    1.0000 </r>
       <r>  -24.2295    1.0000 </r>
       <r>  -24.2295    1.0000 </r>
       <r>   -6.5594    1.0000 </r>
       <r>   -6.5559    1.0000 </r>
       <r>   -6.5559    1.0000 </r>
       <r>   -6.5526    1.0000 </r>
       <r>   -6.5095    1.0000 </r>
       <r>   -1.3680    1.0000 </r>
       <r>    0.4066    1.0000 </r>
       <r>    1.4229    1.0000 </r>
       <r>    3.4207    1.0000 </r>
       <r>    3.4207    1.0000 </r>
       <r>    3.4479    1.0000 </r>
       <r>    3.4479    1.0000 </r>
       <r>    3.4618    1.0000 </r>
       <r>    3.7543    1.0000 </r>
       <r>    4.8223    1.0000 </r>
       <r>    5.2316    1.0000 </r>
       <r>    5.2319    1.0000 </r>
       <r>    5.6842    1.0000 </r>
       <r>    6.0686    1.0000 </r>
       <r>    6.1352    1.0000 </r>
       <r>    6.1352    1.0000 </r>
       <r>    6.4229    1.0000 </r>
       <r>    6.4229    1.0000 </r>
       <r>    6.5806    1.0000 </r>
       <r>    6.7530    1.0000 </r>
       <r>    6.7530    1.0000 </r>
       <r>    7.1380    1.0000 </r>
       <r>    7.2816    1.0000 </r>
       <r>    7.4800    1.0000 </r>
       <r>    7.6917    1.0000 </r>
       <r>    7.6917    1.0000 </r>
       <r>    7.7691    1.0000 </r>
       <r>    7.7943    1.0000 </r>
       <r>    8.2545    0.5731 </r>
       <r>    8.3282    0.1957 </r>
       <r>    8.3282    0.1957 </r>
       <r>    8.9494    0.0000 </r>
       <r>    9.3592    0.0000 </r>
       <r>    9.6261    0.0000 </r>
       <r>    9.8999    0.0000 </r>
       <r>   10.0121    0.0000 </r>
       <r>   10.0510    0.0000 </r>
       <r>   10.0544    0.0000 </r>
       <r>   10.1052    0.0000 </r>
       <r>   10.2282    0.0000 </r>
       <r>   10.2282    0.0000 </r>
       <r>   10.5035    0.0000 </r>
       <r>   10.5035    0.0000 </r>
       <r>   10.5230    0.0000 </r>
       <r>   10.7389    0.0000 </r>
       <r>   10.7389    0.0000 </r>
       <r>   10.9008    0.0000 </r>
       <r>   11.2525    0.0000 </r>
       <r>   11.4180    0.0000 </r>
       <r>   11.4180    0.0000 </r>
       <r>   11.6090    0.0000 </r>
       <r>   11.6090    0.0000 </r>
       <r>   11.6267    0.0000 </r>
       <r>   12.2220    0.0000 </r>
       <r>   12.4869    0.0000 </r>
      </set>
      <set comment="kpoint 2">
       <r>  -48.4705    1.0000 </r>
       <r>  -48.4495    1.0000 </r>
       <r>  -48.3770    1.0000 </r>
       <r>  -48.3681    1.0000 </r>
       <r>  -48.3562    1.0000 </r>
       <r>  -48.2190    1.0000 </r>
       <r>  -48.1759    1.0000 </r>
       <r>  -24.8710    1.0000 </r>
       <r>  -24.8446    1.0000 </r>
       <r>  -24.8208    1.0000 </r>
       <r>  -24.7984    1.0000 </r>
       <r>  -24.7977    1.0000 </r>
       <r>  -24.7840    1.0000 </r>
       <r>  -24.7811    1.0000 </r>
       <r>  -24.7791    1.0000 </r>
       <r>  -24.7701    1.0000 </r>
       <r>  -24.7620    1.0000 </r>
       <r>  -24.7333    1.0000 </r>
       <r>  -24.7176    1.0000 </r>
       <r>  -24.6993    1.0000 </r>
       <r>  -24.5841    1.0000 </r>
       <r>  -24.5695    1.0000 </r>
       <r>  -24.4101    1.0000 </r>
       <r>  -24.3768    1.0000 </r>
       <r>  -24.3184    1.0000 </r>
       <r>  -24.2830    1.0000 </r>
       <r>  -24.2612    1.0000 </r>
       <r>  -24.2317    1.0000 </r>
       <r>   -6.5589    1.0000 </r>
       <r>   -6.5559    1.0000 </r>
       <r>   -6.5556    1.0000 </r>
       <r>   -6.5502    1.0000 </r>
       <r>   -6.5091    1.0000 </r>
       <r>   -1.2404    1.0000 </r>
       <r>    0.5128    1.0000 </r>
       <r>    1.3614    1.0000 </r>
       <r>    2.4791    1.0000 </r>
       <r>    2.9013    1.0000 </r>
       <r>    3.4979    1.0000 </r>
       <r>    3.5601    1.0000 </r>
       <r>    3.7114    1.0000 </r>
       <r>    4.8475    1.0000 </r>
       <r>    5.0461    1.0000 </r>
       <r>    5.0790    1.0000 </r>
       <r>    5.2382    1.0000 </r>
       <r>    5.6902    1.0000 </r>
       <r>    5.8221    1.0000 </r>
       <r>    5.9559    1.0000 </r>
       <r>    6.1073    1.0000 </r>
       <r>    6.2979    1.0000 </r>
       <r>    6.5937    1.0000 </r>
       <r>    6.7520    1.0000 </r>
       <r>    6.7643    1.0000 </r>
       <r>    6.7887    1.0000 </r>
       <r>    6.8832    1.0000 </r>
       <r>    7.2795    1.0000 </r>
       <r>    7.4256    1.0000 </r>
       <r>    7.5699    1.0000 </r>
       <r>    7.7767    1.0000 </r>
       <r>    7.8273    1.0000 </r>
       <r>    8.0812    0.9958 </r>
       <r>    8.1918    0.8582 </r>
       <r>    8.4303    0.0107 </r>
       <r>    8.7664    0.0000 </r>
       <r>    9.0405    0.0000 </r>
       <r>    9.4424    0.0000 </r>
       <r>    9.5487    0.0000 </r>
       <r>    9.7571    0.0000 </r>
       <r>    9.9554    0.0000 </r>
       <r>   10.0337    0.0000 </r>
       <r>   10.0405    0.0000 </r>
       <r>   10.1532    0.0000 </r>
       <r>   10.2411    0.0000 </r>
       <r>   10.2444    0.0000 </r>
       <r>   10.4996    0.0000 </r>
       <r>   10.5074    0.0000 </r>
       <r>   10.5207    0.0000 </r>
       <r>   10.5558    0.0000 </r>
       <r>   10.7150    0.0000 </r>
       <r>   10.7590    0.0000 </r>
       <r>   10.7665    0.0000 </r>
       <r>   11.3697    0.0000 </r>
       <r>   11.4757    0.0000 </r>
       <r>   11.4968    0.0000 </r>
       <r>   11.6248    0.0000 </r>
       <r>   11.7090    0.0000 </r>
       <r>   12.1560    0.0000 </r>
       <r>   12.2823    0.0000 </r>
      </set>
      <set comment="kpoint 3">
       <r>  -48.4654    1.0000 </r>
       <r>  -48.4498    1.0000 </r>
       <r>  -48.3729    1.0000 </r>
       <r>  -48.3704    1.0000 </r>
       <r>  -48.3580    1.0000 </r>
       <r>  -48.2205    1.0000 </r>
       <r>  -48.1796    1.0000 </r>
       <r>  -24.8670    1.0000 </r>
       <r>  -24.8154    1.0000 </r>
       <r>  -24.8013    1.0000 </r>
       <r>  -24.7993    1.0000 </r>
       <r>  -24.7879    1.0000 </r>
       <r>  -24.7860    1.0000 </r>
       <r>  -24.7750    1.0000 </r>
       <r>  -24.7638    1.0000 </r>
       <r>  -24.7448    1.0000 </r>
       <r>  -24.7358    1.0000 </r>
       <r>  -24.7222    1.0000 </r>
       <r>  -24.6839    1.0000 </r>
       <r>  -24.6229    1.0000 </r>
       <r>  -24.5838    1.0000 </r>
       <r>  -24.5743    1.0000 </r>
       <r>  -24.5006    1.0000 </r>
       <r>  -24.4050    1.0000 </r>
       <r>  -24.3771    1.0000 </r>
       <r>  -24.3443    1.0000 </r>
       <r>  -24.2782    1.0000 </r>
       <r>  -24.2367    1.0000 </r>
       <r>   -6.5584    1.0000 </r>
       <r>   -6.5558    1.0000 </r>
       <r>   -6.5549    1.0000 </r>
       <r>   -6.5451    1.0000 </r>
       <r>   -6.5084    1.0000 </r>
       <r>   -0.8817    1.0000 </r>
       <r>    0.7931    1.0000 </r>
       <r>    0.8255    1.0000 </r>
       <r>    2.0891    1.0000 </r>
       <r>    2.3189    1.0000 </r>
       <r>    3.7087    1.0000 </r>
       <r>    3.8877    1.0000 </r>
       <r>    4.0564    1.0000 </r>
       <r>    4.4711    1.0000 </r>
       <r>    4.7043    1.0000 </r>
       <r>    5.1477    1.0000 </r>
       <r>    5.2286    1.0000 </r>
       <r>    5.6452    1.0000 </r>
       <r>    5.8861    1.0000 </r>
       <r>    5.9478    1.0000 </r>
       <r>    6.0261    1.0000 </r>
       <r>    6.6080    1.0000 </r>
       <r>    6.6766    1.0000 </r>
       <r>    6.8166    1.0000 </r>
       <r>    6.9530    1.0000 </r>
       <r>    7.0210    1.0000 </r>
       <r>    7.2914    1.0000 </r>
       <r>    7.2942    1.0000 </r>
       <r>    7.5599    1.0000 </r>
       <r>    7.7073    1.0000 </r>
       <r>    7.7789    1.0000 </r>
       <r>    7.8866    1.0000 </r>
       <r>    8.1065    0.9886 </r>
       <r>    8.4884    0.0009 </r>
       <r>    8.6473    0.0000 </r>
       <r>    8.8561    0.0000 </r>
       <r>    9.0902    0.0000 </r>
       <r>    9.2177    0.0000 </r>
       <r>    9.2911    0.0000 </r>
       <r>    9.4500    0.0000 </r>
       <r>    9.6182    0.0000 </r>
       <r>    9.9102    0.0000 </r>
       <r>   10.0226    0.0000 </r>
       <r>   10.1549    0.0000 </r>
       <r>   10.1582    0.0000 </r>
       <r>   10.2365    0.0000 </r>
       <r>   10.3060    0.0000 </r>
       <r>   10.3940    0.0000 </r>
       <r>   10.5039    0.0000 </r>
       <r>   10.5665    0.0000 </r>
       <r>   10.6393    0.0000 </r>
       <r>   10.6509    0.0000 </r>
       <r>   11.1516    0.0000 </r>
       <r>   11.1594    0.0000 </r>
       <r>   11.1704    0.0000 </r>
       <r>   11.2139    0.0000 </r>
       <r>   11.5625    0.0000 </r>
       <r>   11.7124    0.0000 </r>
       <r>   12.1371    0.0000 </r>
       <r>   12.2092    0.0000 </r>
      </set>
      <set comment="kpoint 4">
       <r>  -48.4626    1.0000 </r>
       <r>  -48.4501    1.0000 </r>
       <r>  -48.3755    1.0000 </r>
       <r>  -48.3637    1.0000 </r>
       <r>  -48.3621    1.0000 </r>
       <r>  -48.2212    1.0000 </r>
       <r>  -48.1815    1.0000 </r>
       <r>  -24.8649    1.0000 </r>
       <r>  -24.8121    1.0000 </r>
       <r>  -24.8001    1.0000 </r>
       <r>  -24.7957    1.0000 </r>
       <r>  -24.7898    1.0000 </r>
       <r>  -24.7765    1.0000 </r>
       <r>  -24.7684    1.0000 </r>
       <r>  -24.7683    1.0000 </r>
       <r>  -24.7545    1.0000 </r>
       <r>  -24.7247    1.0000 </r>
       <r>  -24.6237    1.0000 </r>
       <r>  -24.6202    1.0000 </r>
       <r>  -24.5854    1.0000 </r>
       <r>  -24.5851    1.0000 </r>
       <r>  -24.5826    1.0000 </r>
       <r>  -24.5777    1.0000 </r>
       <r>  -24.4704    1.0000 </r>
       <r>  -24.4187    1.0000 </r>
       <r>  -24.3773    1.0000 </r>
       <r>  -24.2752    1.0000 </r>
       <r>  -24.2397    1.0000 </r>
       <r>   -6.5582    1.0000 </r>
       <r>   -6.5558    1.0000 </r>
       <r>   -6.5546    1.0000 </r>
       <r>   -6.5424    1.0000 </r>
       <r>   -6.5080    1.0000 </r>
       <r>   -0.5386    1.0000 </r>
       <r>    0.2805    1.0000 </r>
       <r>    1.2201    1.0000 </r>
       <r>    1.5134    1.0000 </r>
       <r>    2.4941    1.0000 </r>
       <r>    3.8942    1.0000 </r>
       <r>    3.9059    1.0000 </r>
       <r>    4.2910    1.0000 </r>
       <r>    4.4418    1.0000 </r>
       <r>    4.5968    1.0000 </r>
       <r>    4.7925    1.0000 </r>
       <r>    4.8466    1.0000 </r>
       <r>    5.3533    1.0000 </r>
       <r>    5.7589    1.0000 </r>
       <r>    5.9779    1.0000 </r>
       <r>    6.6455    1.0000 </r>
       <r>    6.6647    1.0000 </r>
       <r>    6.7372    1.0000 </r>
       <r>    7.0878    1.0000 </r>
       <r>    7.0990    1.0000 </r>
       <r>    7.2313    1.0000 </r>
       <r>    7.3206    1.0000 </r>
       <r>    7.4853    1.0000 </r>
       <r>    7.6804    1.0000 </r>
       <r>    7.8361    1.0000 </r>
       <r>    7.9471    1.0000 </r>
       <r>    7.9813    1.0000 </r>
       <r>    8.2962    0.3428 </r>
       <r>    8.4715    0.0020 </r>
       <r>    8.4937    0.0007 </r>
       <r>    8.8919    0.0000 </r>
       <r>    8.8959    0.0000 </r>
       <r>    9.0522    0.0000 </r>
       <r>    9.1070    0.0000 </r>
       <r>    9.1934    0.0000 </r>
       <r>    9.5467    0.0000 </r>
       <r>    9.6274    0.0000 </r>
       <r>    9.9289    0.0000 </r>
       <r>   10.0964    0.0000 </r>
       <r>   10.1365    0.0000 </r>
       <r>   10.1723    0.0000 </r>
       <r>   10.3481    0.0000 </r>
       <r>   10.4977    0.0000 </r>
       <r>   10.6151    0.0000 </r>
       <r>   10.6420    0.0000 </r>
       <r>   10.7456    0.0000 </r>
       <r>   10.7731    0.0000 </r>
       <r>   10.9352    0.0000 </r>
       <r>   10.9541    0.0000 </r>
       <r>   11.0039    0.0000 </r>
       <r>   11.1248    0.0000 </r>
       <r>   11.4050    0.0000 </r>
       <r>   11.8278    0.0000 </r>
       <r>   11.8510    0.0000 </r>
       <r>   12.2896    0.0000 </r>
      </set>
      <set comment="kpoint 5">
       <r>  -48.4681    1.0000 </r>
       <r>  -48.4495    1.0000 </r>
       <r>  -48.3745    1.0000 </r>
       <r>  -48.3705    1.0000 </r>
       <r>  -48.3562    1.0000 </r>
       <r>  -48.2200    1.0000 </r>
       <r>  -48.1776    1.0000 </r>
       <r>  -24.8432    1.0000 </r>
       <r>  -24.8410    1.0000 </r>
       <r>  -24.8184    1.0000 </r>
       <r>  -24.7986    1.0000 </r>
       <r>  -24.7836    1.0000 </r>
       <r>  -24.7792    1.0000 </r>
       <r>  -24.7788    1.0000 </r>
       <r>  -24.7663    1.0000 </r>
       <r>  -24.7653    1.0000 </r>
       <r>  -24.7621    1.0000 </r>
       <r>  -24.7198    1.0000 </r>
       <r>  -24.7054    1.0000 </r>
       <r>  -24.7018    1.0000 </r>
       <r>  -24.5844    1.0000 </r>
       <r>  -24.5714    1.0000 </r>
       <r>  -24.4113    1.0000 </r>
       <r>  -24.4093    1.0000 </r>
       <r>  -24.3180    1.0000 </r>
       <r>  -24.3146    1.0000 </r>
       <r>  -24.2637    1.0000 </r>
       <r>  -24.2633    1.0000 </r>
       <r>   -6.5581    1.0000 </r>
       <r>   -6.5556    1.0000 </r>
       <r>   -6.5555    1.0000 </r>
       <r>   -6.5482    1.0000 </r>
       <r>   -6.5088    1.0000 </r>
       <r>   -1.1141    1.0000 </r>
       <r>    0.6190    1.0000 </r>
       <r>    1.3514    1.0000 </r>
       <r>    2.3768    1.0000 </r>
       <r>    2.7568    1.0000 </r>
       <r>    2.9363    1.0000 </r>
       <r>    3.0895    1.0000 </r>
       <r>    4.5623    1.0000 </r>
       <r>    4.7245    1.0000 </r>
       <r>    5.0242    1.0000 </r>
       <r>    5.1862    1.0000 </r>
       <r>    5.3790    1.0000 </r>
       <r>    5.7161    1.0000 </r>
       <r>    5.8491    1.0000 </r>
       <r>    5.8567    1.0000 </r>
       <r>    6.1132    1.0000 </r>
       <r>    6.3243    1.0000 </r>
       <r>    6.4348    1.0000 </r>
       <r>    6.7645    1.0000 </r>
       <r>    6.8452    1.0000 </r>
       <r>    6.9158    1.0000 </r>
       <r>    7.2483    1.0000 </r>
       <r>    7.3448    1.0000 </r>
       <r>    7.4323    1.0000 </r>
       <r>    7.6278    1.0000 </r>
       <r>    7.8194    1.0000 </r>
       <r>    7.9465    1.0000 </r>
       <r>    8.0715    0.9972 </r>
       <r>    8.1710    0.9140 </r>
       <r>    8.4347    0.0090 </r>
       <r>    8.9387    0.0000 </r>
       <r>    9.1563    0.0000 </r>
       <r>    9.4009    0.0000 </r>
       <r>    9.5010    0.0000 </r>
       <r>    9.7856    0.0000 </r>
       <r>    9.8731    0.0000 </r>
       <r>    9.9165    0.0000 </r>
       <r>   10.0093    0.0000 </r>
       <r>   10.0299    0.0000 </r>
       <r>   10.1839    0.0000 </r>
       <r>   10.2268    0.0000 </r>
       <r>   10.2939    0.0000 </r>
       <r>   10.2951    0.0000 </r>
       <r>   10.4484    0.0000 </r>
       <r>   10.4528    0.0000 </r>
       <r>   10.6591    0.0000 </r>
       <r>   10.8711    0.0000 </r>
       <r>   10.8848    0.0000 </r>
       <r>   11.1516    0.0000 </r>
       <r>   11.3538    0.0000 </r>
       <r>   11.5145    0.0000 </r>
       <r>   11.6572    0.0000 </r>
       <r>   11.7765    0.0000 </r>
       <r>   12.1475    0.0000 </r>
       <r>   12.4324    0.0000 </r>
      </set>
      <set comment="kpoint 6">
       <r>  -48.4628    1.0000 </r>
       <r>  -48.4498    1.0000 </r>
       <r>  -48.3756    1.0000 </r>
       <r>  -48.3682    1.0000 </r>
       <r>  -48.3573    1.0000 </r>
       <r>  -48.2220    1.0000 </r>
       <r>  -48.1810    1.0000 </r>
       <r>  -24.8365    1.0000 </r>
       <r>  -24.8128    1.0000 </r>
       <r>  -24.7998    1.0000 </r>
       <r>  -24.7993    1.0000 </r>
       <r>  -24.7859    1.0000 </r>
       <r>  -24.7732    1.0000 </r>
       <r>  -24.7633    1.0000 </r>
       <r>  -24.7547    1.0000 </r>
       <r>  -24.7379    1.0000 </r>
       <r>  -24.7247    1.0000 </r>
       <r>  -24.7149    1.0000 </r>
       <r>  -24.6801    1.0000 </r>
       <r>  -24.6264    1.0000 </r>
       <r>  -24.5846    1.0000 </r>
       <r>  -24.5759    1.0000 </r>
       <r>  -24.5009    1.0000 </r>
       <r>  -24.4106    1.0000 </r>
       <r>  -24.4031    1.0000 </r>
       <r>  -24.3467    1.0000 </r>
       <r>  -24.3111    1.0000 </r>
       <r>  -24.2687    1.0000 </r>
       <r>   -6.5571    1.0000 </r>
       <r>   -6.5555    1.0000 </r>
       <r>   -6.5549    1.0000 </r>
       <r>   -6.5434    1.0000 </r>
       <r>   -6.5081    1.0000 </r>
       <r>   -0.7606    1.0000 </r>
       <r>    0.8996    1.0000 </r>
       <r>    0.9316    1.0000 </r>
       <r>    2.1744    1.0000 </r>
       <r>    2.1909    1.0000 </r>
       <r>    3.0270    1.0000 </r>
       <r>    3.3420    1.0000 </r>
       <r>    3.8488    1.0000 </r>
       <r>    4.5068    1.0000 </r>
       <r>    4.5609    1.0000 </r>
       <r>    5.2975    1.0000 </r>
       <r>    5.6190    1.0000 </r>
       <r>    5.9314    1.0000 </r>
       <r>    6.0586    1.0000 </r>
       <r>    6.2037    1.0000 </r>
       <r>    6.3547    1.0000 </r>
       <r>    6.5337    1.0000 </r>
       <r>    6.6547    1.0000 </r>
       <r>    6.9772    1.0000 </r>
       <r>    7.0107    1.0000 </r>
       <r>    7.0857    1.0000 </r>
       <r>    7.2719    1.0000 </r>
       <r>    7.5646    1.0000 </r>
       <r>    7.6036    1.0000 </r>
       <r>    7.8071    1.0000 </r>
       <r>    7.8963    1.0000 </r>
       <r>    7.9293    1.0000 </r>
       <r>    8.1017    0.9905 </r>
       <r>    8.3833    0.0509 </r>
       <r>    8.6249    0.0000 </r>
       <r>    8.9431    0.0000 </r>
       <r>    9.1173    0.0000 </r>
       <r>    9.2186    0.0000 </r>
       <r>    9.4272    0.0000 </r>
       <r>    9.4657    0.0000 </r>
       <r>    9.5129    0.0000 </r>
       <r>    9.6886    0.0000 </r>
       <r>    9.8043    0.0000 </r>
       <r>    9.9965    0.0000 </r>
       <r>   10.0044    0.0000 </r>
       <r>   10.1682    0.0000 </r>
       <r>   10.2151    0.0000 </r>
       <r>   10.2592    0.0000 </r>
       <r>   10.3201    0.0000 </r>
       <r>   10.3485    0.0000 </r>
       <r>   10.6373    0.0000 </r>
       <r>   10.8373    0.0000 </r>
       <r>   10.9300    0.0000 </r>
       <r>   11.0017    0.0000 </r>
       <r>   11.3033    0.0000 </r>
       <r>   11.4426    0.0000 </r>
       <r>   11.7720    0.0000 </r>
       <r>   12.0048    0.0000 </r>
       <r>   12.0081    0.0000 </r>
       <r>   12.2770    0.0000 </r>
      </set>
      <set comment="kpoint 7">
       <r>  -48.4598    1.0000 </r>
       <r>  -48.4501    1.0000 </r>
       <r>  -48.3783    1.0000 </r>
       <r>  -48.3621    1.0000 </r>
       <r>  -48.3609    1.0000 </r>
       <r>  -48.2229    1.0000 </r>
       <r>  -48.1828    1.0000 </r>
       <r>  -24.8331    1.0000 </r>
       <r>  -24.8094    1.0000 </r>
       <r>  -24.8001    1.0000 </r>
       <r>  -24.7975    1.0000 </r>
       <r>  -24.7870    1.0000 </r>
       <r>  -24.7672    1.0000 </r>
       <r>  -24.7671    1.0000 </r>
       <r>  -24.7453    1.0000 </r>
       <r>  -24.7274    1.0000 </r>
       <r>  -24.7242    1.0000 </r>
       <r>  -24.6250    1.0000 </r>
       <r>  -24.6202    1.0000 </r>
       <r>  -24.5841    1.0000 </r>
       <r>  -24.5838    1.0000 </r>
       <r>  -24.5832    1.0000 </r>
       <r>  -24.5790    1.0000 </r>
       <r>  -24.4723    1.0000 </r>
       <r>  -24.4201    1.0000 </r>
       <r>  -24.4108    1.0000 </r>
       <r>  -24.3081    1.0000 </r>
       <r>  -24.2718    1.0000 </r>
       <r>   -6.5568    1.0000 </r>
       <r>   -6.5554    1.0000 </r>
       <r>   -6.5546    1.0000 </r>
       <r>   -6.5409    1.0000 </r>
       <r>   -6.5077    1.0000 </r>
       <r>   -0.4276    1.0000 </r>
       <r>    0.4123    1.0000 </r>
       <r>    1.3268    1.0000 </r>
       <r>    1.6167    1.0000 </r>
       <r>    2.3410    1.0000 </r>
       <r>    3.3472    1.0000 </r>
       <r>    3.4641    1.0000 </r>
[...]
       <r>   -6.5482    1.0000 </r>
       <r>   -6.5088    1.0000 </r>
       <r>   -0.8471    1.0000 </r>
       <r>   -0.1535    1.0000 </r>
       <r>    1.8503    1.0000 </r>
       <r>    2.5759    1.0000 </r>
       <r>    2.6761    1.0000 </r>
       <r>    2.8371    1.0000 </r>
       <r>    3.5648    1.0000 </r>
       <r>    4.4989    1.0000 </r>
       <r>    4.8123    1.0000 </r>
       <r>    4.9394    1.0000 </r>
       <r>    5.1858    1.0000 </r>
       <r>    5.3273    1.0000 </r>
       <r>    5.3492    1.0000 </r>
       <r>    5.3762    1.0000 </r>
       <r>    5.9219    1.0000 </r>
       <r>    6.1892    1.0000 </r>
       <r>    6.3424    1.0000 </r>
       <r>    6.5260    1.0000 </r>
       <r>    6.5836    1.0000 </r>
       <r>    6.6456    1.0000 </r>
       <r>    6.6862    1.0000 </r>
       <r>    7.2196    1.0000 </r>
       <r>    7.4252    1.0000 </r>
       <r>    7.6140    1.0000 </r>
       <r>    7.7007    1.0000 </r>
       <r>    8.0192    0.9998 </r>
       <r>    8.0467    0.9991 </r>
       <r>    8.2841    0.4076 </r>
       <r>    8.3126    0.2620 </r>
       <r>    8.5539    0.0000 </r>
       <r>    8.8664    0.0000 </r>
       <r>    9.0557    0.0000 </r>
       <r>    9.7056    0.0000 </r>
       <r>    9.7489    0.0000 </r>
       <r>    9.8572    0.0000 </r>
       <r>    9.9094    0.0000 </r>
       <r>    9.9347    0.0000 </r>
       <r>    9.9957    0.0000 </r>
       <r>   10.0022    0.0000 </r>
       <r>   10.0456    0.0000 </r>
       <r>   10.0998    0.0000 </r>
       <r>   10.2043    0.0000 </r>
       <r>   10.2190    0.0000 </r>
       <r>   10.4053    0.0000 </r>
       <r>   10.6869    0.0000 </r>
       <r>   10.7075    0.0000 </r>
       <r>   10.7388    0.0000 </r>
       <r>   10.7752    0.0000 </r>
       <r>   11.1896    0.0000 </r>
       <r>   11.2255    0.0000 </r>
       <r>   11.3547    0.0000 </r>
       <r>   11.7796    0.0000 </r>
       <r>   11.9272    0.0000 </r>
       <r>   11.9536    0.0000 </r>
       <r>   12.0484    0.0000 </r>
      </set>
      <set comment="kpoint 26">
       <r>  -48.4628    1.0000 </r>
       <r>  -48.4498    1.0000 </r>
       <r>  -48.3756    1.0000 </r>
       <r>  -48.3682    1.0000 </r>
       <r>  -48.3573    1.0000 </r>
       <r>  -48.2220    1.0000 </r>
       <r>  -48.1810    1.0000 </r>
       <r>  -24.8365    1.0000 </r>
       <r>  -24.8119    1.0000 </r>
       <r>  -24.7998    1.0000 </r>
       <r>  -24.7984    1.0000 </r>
       <r>  -24.7859    1.0000 </r>
       <r>  -24.7742    1.0000 </r>
       <r>  -24.7642    1.0000 </r>
       <r>  -24.7547    1.0000 </r>
       <r>  -24.7378    1.0000 </r>
       <r>  -24.7246    1.0000 </r>
       <r>  -24.7149    1.0000 </r>
       <r>  -24.6801    1.0000 </r>
       <r>  -24.6264    1.0000 </r>
       <r>  -24.5846    1.0000 </r>
       <r>  -24.5761    1.0000 </r>
       <r>  -24.5009    1.0000 </r>
       <r>  -24.4106    1.0000 </r>
       <r>  -24.4031    1.0000 </r>
       <r>  -24.3467    1.0000 </r>
       <r>  -24.3111    1.0000 </r>
       <r>  -24.2687    1.0000 </r>
       <r>   -6.5570    1.0000 </r>
       <r>   -6.5555    1.0000 </r>
       <r>   -6.5549    1.0000 </r>
       <r>   -6.5434    1.0000 </r>
       <r>   -6.5081    1.0000 </r>
       <r>   -0.5328    1.0000 </r>
       <r>    0.2288    1.0000 </r>
       <r>    1.2514    1.0000 </r>
       <r>    1.7130    1.0000 </r>
       <r>    2.5855    1.0000 </r>
       <r>    3.0912    1.0000 </r>
       <r>    3.7649    1.0000 </r>
       <r>    4.1499    1.0000 </r>
       <r>    4.2419    1.0000 </r>
       <r>    4.8844    1.0000 </r>
       <r>    5.3588    1.0000 </r>
       <r>    5.6467    1.0000 </r>
       <r>    5.6602    1.0000 </r>
       <r>    6.0035    1.0000 </r>
       <r>    6.0169    1.0000 </r>
       <r>    6.2616    1.0000 </r>
       <r>    6.3906    1.0000 </r>
       <r>    6.5360    1.0000 </r>
       <r>    6.5671    1.0000 </r>
       <r>    6.7744    1.0000 </r>
       <r>    6.9038    1.0000 </r>
       <r>    7.1213    1.0000 </r>
       <r>    7.7301    1.0000 </r>
       <r>    7.7666    1.0000 </r>
       <r>    7.8507    1.0000 </r>
       <r>    8.1034    0.9899 </r>
       <r>    8.2547    0.5721 </r>
       <r>    8.2580    0.5540 </r>
       <r>    8.4506    0.0048 </r>
       <r>    8.6137    0.0000 </r>
       <r>    8.7183    0.0000 </r>
       <r>    8.9370    0.0000 </r>
       <r>    9.2966    0.0000 </r>
       <r>    9.4219    0.0000 </r>
       <r>    9.6752    0.0000 </r>
       <r>    9.6793    0.0000 </r>
       <r>    9.7671    0.0000 </r>
       <r>    9.7973    0.0000 </r>
       <r>    9.9303    0.0000 </r>
       <r>    9.9562    0.0000 </r>
       <r>   10.1158    0.0000 </r>
       <r>   10.2413    0.0000 </r>
       <r>   10.2865    0.0000 </r>
       <r>   10.4844    0.0000 </r>
       <r>   10.5085    0.0000 </r>
       <r>   10.5204    0.0000 </r>
       <r>   10.7587    0.0000 </r>
       <r>   10.9702    0.0000 </r>
       <r>   11.0687    0.0000 </r>
       <r>   11.2891    0.0000 </r>
       <r>   11.5172    0.0000 </r>
       <r>   11.6953    0.0000 </r>
       <r>   11.9966    0.0000 </r>
       <r>   12.0498    0.0000 </r>
       <r>   12.1334    0.0000 </r>
      </set>
      <set comment="kpoint 27">
       <r>  -48.4598    1.0000 </r>
       <r>  -48.4501    1.0000 </r>
       <r>  -48.3783    1.0000 </r>
       <r>  -48.3621    1.0000 </r>
       <r>  -48.3609    1.0000 </r>
       <r>  -48.2229    1.0000 </r>
       <r>  -48.1828    1.0000 </r>
       <r>  -24.8331    1.0000 </r>
       <r>  -24.8086    1.0000 </r>
       <r>  -24.7991    1.0000 </r>
       <r>  -24.7975    1.0000 </r>
       <r>  -24.7870    1.0000 </r>
       <r>  -24.7681    1.0000 </r>
       <r>  -24.7680    1.0000 </r>
       <r>  -24.7453    1.0000 </r>
       <r>  -24.7273    1.0000 </r>
       <r>  -24.7242    1.0000 </r>
       <r>  -24.6250    1.0000 </r>
       <r>  -24.6202    1.0000 </r>
       <r>  -24.5841    1.0000 </r>
       <r>  -24.5838    1.0000 </r>
       <r>  -24.5832    1.0000 </r>
       <r>  -24.5792    1.0000 </r>
       <r>  -24.4723    1.0000 </r>
       <r>  -24.4201    1.0000 </r>
       <r>  -24.4108    1.0000 </r>
       <r>  -24.3081    1.0000 </r>
       <r>  -24.2718    1.0000 </r>
       <r>   -6.5567    1.0000 </r>
       <r>   -6.5554    1.0000 </r>
       <r>   -6.5546    1.0000 </r>
       <r>   -6.5409    1.0000 </r>
       <r>   -6.5077    1.0000 </r>
       <r>   -0.2697    1.0000 </r>
       <r>    0.7697    1.0000 </r>
       <r>    0.8161    1.0000 </r>
       <r>    0.9516    1.0000 </r>
       <r>    2.8113    1.0000 </r>
       <r>    3.5700    1.0000 </r>
       <r>    3.6007    1.0000 </r>
       <r>    3.6092    1.0000 </r>
       <r>    4.1176    1.0000 </r>
       <r>    5.1364    1.0000 </r>
       <r>    5.1810    1.0000 </r>
       <r>    5.6357    1.0000 </r>
       <r>    5.9415    1.0000 </r>
       <r>    5.9893    1.0000 </r>
       <r>    6.0384    1.0000 </r>
       <r>    6.0962    1.0000 </r>
       <r>    6.2137    1.0000 </r>
       <r>    6.5332    1.0000 </r>
       <r>    6.8063    1.0000 </r>
       <r>    6.9887    1.0000 </r>
       <r>    7.2018    1.0000 </r>
       <r>    7.5695    1.0000 </r>
       <r>    7.6990    1.0000 </r>
       <r>    7.8772    1.0000 </r>
       <r>    8.0052    0.9999 </r>
       <r>    8.0562    0.9986 </r>
       <r>    8.1475    0.9552 </r>
       <r>    8.2059    0.8085 </r>
       <r>    8.6777    0.0000 </r>
       <r>    8.6952    0.0000 </r>
       <r>    8.8569    0.0000 </r>
       <r>    8.8866    0.0000 </r>
       <r>    9.1480    0.0000 </r>
       <r>    9.1770    0.0000 </r>
       <r>    9.4314    0.0000 </r>
       <r>    9.5023    0.0000 </r>
       <r>    9.5930    0.0000 </r>
       <r>    9.7073    0.0000 </r>
       <r>    9.8437    0.0000 </r>
       <r>    9.9893    0.0000 </r>
       <r>   10.0528    0.0000 </r>
       <r>   10.1913    0.0000 </r>
       <r>   10.3450    0.0000 </r>
       <r>   10.3593    0.0000 </r>
       <r>   10.5225    0.0000 </r>
       <r>   10.6026    0.0000 </r>
       <r>   10.6109    0.0000 </r>
       <r>   10.7683    0.0000 </r>
       <r>   11.2429    0.0000 </r>
       <r>   11.4053    0.0000 </r>
       <r>   11.5502    0.0000 </r>
       <r>   11.8336    0.0000 </r>
       <r>   11.9981    0.0000 </r>
       <r>   12.0408    0.0000 </r>
       <r>   12.2970    0.0000 </r>
      </set>
      <set comment="kpoint 28">
       <r>  -48.4571    1.0000 </r>
       <r>  -48.4499    1.0000 </r>
       <r>  -48.3814    1.0000 </r>
       <r>  -48.3632    1.0000 </r>
       <r>  -48.3566    1.0000 </r>
       <r>  -48.2250    1.0000 </r>
       <r>  -48.1841    1.0000 </r>
       <r>  -24.8061    1.0000 </r>
       <r>  -24.8005    1.0000 </r>
       <r>  -24.7986    1.0000 </r>
       <r>  -24.7867    1.0000 </r>
       <r>  -24.7697    1.0000 </r>
       <r>  -24.7638    1.0000 </r>
       <r>  -24.7457    1.0000 </r>
       <r>  -24.7398    1.0000 </r>
       <r>  -24.7302    1.0000 </r>
       <r>  -24.6725    1.0000 </r>
       <r>  -24.6676    1.0000 </r>
       <r>  -24.6416    1.0000 </r>
       <r>  -24.6305    1.0000 </r>
       <r>  -24.5860    1.0000 </r>
       <r>  -24.5797    1.0000 </r>
       <r>  -24.5044    1.0000 </r>
       <r>  -24.4984    1.0000 </r>
       <r>  -24.4026    1.0000 </r>
       <r>  -24.3948    1.0000 </r>
       <r>  -24.3521    1.0000 </r>
       <r>  -24.3511    1.0000 </r>
       <r>   -6.5552    1.0000 </r>
       <r>   -6.5548    1.0000 </r>
       <r>   -6.5548    1.0000 </r>
       <r>   -6.5394    1.0000 </r>
       <r>   -6.5075    1.0000 </r>
       <r>   -0.2379    1.0000 </r>
       <r>    0.6039    1.0000 </r>
       <r>    1.4169    1.0000 </r>
       <r>    1.9066    1.0000 </r>
       <r>    1.9716    1.0000 </r>
       <r>    2.1687    1.0000 </r>
       <r>    3.1192    1.0000 </r>
       <r>    3.3903    1.0000 </r>
       <r>    4.2366    1.0000 </r>
       <r>    5.1704    1.0000 </r>
       <r>    5.6159    1.0000 </r>
       <r>    5.6245    1.0000 </r>
       <r>    6.1078    1.0000 </r>
       <r>    6.3382    1.0000 </r>
       <r>    6.3587    1.0000 </r>
       <r>    6.3844    1.0000 </r>
       <r>    6.7269    1.0000 </r>
       <r>    6.8529    1.0000 </r>
       <r>    7.0142    1.0000 </r>
       <r>    7.0169    1.0000 </r>
       <r>    7.1555    1.0000 </r>
       <r>    7.5402    1.0000 </r>
       <r>    7.7875    1.0000 </r>
       <r>    7.9721    1.0000 </r>
       <r>    7.9737    1.0000 </r>
       <r>    8.1420    0.9621 </r>
       <r>    8.2599    0.5434 </r>
       <r>    8.3890    0.0429 </r>
       <r>    8.5323    0.0001 </r>
       <r>    8.5815    0.0000 </r>
       <r>    8.6070    0.0000 </r>
       <r>    8.7784    0.0000 </r>
       <r>    9.1237    0.0000 </r>
       <r>    9.1929    0.0000 </r>
       <r>    9.2064    0.0000 </r>
       <r>    9.2659    0.0000 </r>
       <r>    9.4576    0.0000 </r>
       <r>    9.6055    0.0000 </r>
       <r>    9.9444    0.0000 </r>
       <r>   10.0491    0.0000 </r>
       <r>   10.0813    0.0000 </r>
       <r>   10.1893    0.0000 </r>
       <r>   10.2239    0.0000 </r>
       <r>   10.2263    0.0000 </r>
       <r>   10.3935    0.0000 </r>
       <r>   10.6068    0.0000 </r>
       <r>   10.8586    0.0000 </r>
       <r>   10.9943    0.0000 </r>
       <r>   11.0909    0.0000 </r>
       <r>   11.4871    0.0000 </r>
       <r>   11.4902    0.0000 </r>
       <r>   11.5111    0.0000 </r>
       <r>   11.9152    0.0000 </r>
       <r>   12.0307    0.0000 </r>
       <r>   12.1574    0.0000 </r>
      </set>
      <set comment="kpoint 29">
       <r>  -48.4537    1.0000 </r>
       <r>  -48.4501    1.0000 </r>
       <r>  -48.3846    1.0000 </r>
       <r>  -48.3586    1.0000 </r>
       <r>  -48.3582    1.0000 </r>
       <r>  -48.2265    1.0000 </r>
       <r>  -48.1856    1.0000 </r>
       <r>  -24.8026    1.0000 </r>
       <r>  -24.7996    1.0000 </r>
       <r>  -24.7991    1.0000 </r>
       <r>  -24.7830    1.0000 </r>
       <r>  -24.7656    1.0000 </r>
       <r>  -24.7656    1.0000 </r>
       <r>  -24.7458    1.0000 </r>
       <r>  -24.7334    1.0000 </r>
       <r>  -24.6617    1.0000 </r>
       <r>  -24.6450    1.0000 </r>
       <r>  -24.6276    1.0000 </r>
       <r>  -24.6202    1.0000 </r>
       <r>  -24.5865    1.0000 </r>
       <r>  -24.5818    1.0000 </r>
       <r>  -24.5813    1.0000 </r>
       <r>  -24.5789    1.0000 </r>
       <r>  -24.5016    1.0000 </r>
       <r>  -24.4765    1.0000 </r>
       <r>  -24.4236    1.0000 </r>
       <r>  -24.3946    1.0000 </r>
       <r>  -24.3547    1.0000 </r>
       <r>   -6.5548    1.0000 </r>
       <r>   -6.5546    1.0000 </r>
       <r>   -6.5545    1.0000 </r>
       <r>   -6.5372    1.0000 </r>
       <r>   -6.5072    1.0000 </r>
       <r>   -0.0043    1.0000 </r>
       <r>    1.1320    1.0000 </r>
       <r>    1.1806    1.0000 </r>
       <r>    1.3135    1.0000 </r>
       <r>    2.0472    1.0000 </r>
       <r>    2.6048    1.0000 </r>
       <r>    2.6056    1.0000 </r>
       <r>    2.6841    1.0000 </r>
       <r>    4.4399    1.0000 </r>
       <r>    5.3450    1.0000 </r>
       <r>    5.4379    1.0000 </r>
       <r>    5.7259    1.0000 </r>
       <r>    5.8836    1.0000 </r>
       <r>    6.4118    1.0000 </r>
       <r>    6.4210    1.0000 </r>
       <r>    6.4416    1.0000 </r>
       <r>    6.9882    1.0000 </r>
       <r>    7.1337    1.0000 </r>
       <r>    7.1481    1.0000 </r>
       <r>    7.4426    1.0000 </r>
       <r>    7.4435    1.0000 </r>
       <r>    7.7789    1.0000 </r>
       <r>    7.9044    1.0000 </r>
       <r>    7.9476    1.0000 </r>
       <r>    8.2301    0.7020 </r>
       <r>    8.2729    0.4698 </r>
       <r>    8.3479    0.1281 </r>
       <r>    8.3630    0.0886 </r>
       <r>    8.4282    0.0116 </r>
       <r>    8.5026    0.0004 </r>
       <r>    8.6183    0.0000 </r>
       <r>    8.8331    0.0000 </r>
       <r>    8.8339    0.0000 </r>
       <r>    9.0091    0.0000 </r>
       <r>    9.0777    0.0000 </r>
       <r>    9.1265    0.0000 </r>
       <r>    9.1295    0.0000 </r>
       <r>    9.7285    0.0000 </r>
       <r>    9.9199    0.0000 </r>
       <r>    9.9523    0.0000 </r>
       <r>    9.9688    0.0000 </r>
       <r>   10.0774    0.0000 </r>
       <r>   10.1290    0.0000 </r>
       <r>   10.1589    0.0000 </r>
       <r>   10.2537    0.0000 </r>
       <r>   10.2993    0.0000 </r>
       <r>   11.0591    0.0000 </r>
       <r>   11.0802    0.0000 </r>
       <r>   11.1026    0.0000 </r>
       <r>   11.4356    0.0000 </r>
       <r>   11.5044    0.0000 </r>
       <r>   11.7529    0.0000 </r>
       <r>   11.9502    0.0000 </r>
       <r>   12.0898    0.0000 </r>
       <r>   12.2455    0.0000 </r>
      </set>
      <set comment="kpoint 30">
       <r>  -48.4501    1.0000 </r>
       <r>  -48.4501    1.0000 </r>
       <r>  -48.3882    1.0000 </r>
       <r>  -48.3568    1.0000 </r>
       <r>  -48.3568    1.0000 </r>
       <r>  -48.2284    1.0000 </r>
       <r>  -48.1870    1.0000 </r>
       <r>  -24.8003    1.0000 </r>
       <r>  -24.7991    1.0000 </r>
       <r>  -24.7991    1.0000 </r>
       <r>  -24.7812    1.0000 </r>
       <r>  -24.7643    1.0000 </r>
       <r>  -24.7643    1.0000 </r>
       <r>  -24.7369    1.0000 </r>
       <r>  -24.6289    1.0000 </r>
       <r>  -24.6289    1.0000 </r>
       <r>  -24.6278    1.0000 </r>
       <r>  -24.6126    1.0000 </r>
       <r>  -24.5878    1.0000 </r>
       <r>  -24.5878    1.0000 </r>
       <r>  -24.5847    1.0000 </r>
       <r>  -24.5831    1.0000 </r>
       <r>  -24.5726    1.0000 </r>
       <r>  -24.5695    1.0000 </r>
       <r>  -24.4796    1.0000 </r>
       <r>  -24.4796    1.0000 </r>
       <r>  -24.4231    1.0000 </r>
       <r>  -24.4231    1.0000 </r>
       <r>   -6.5545    1.0000 </r>
       <r>   -6.5545    1.0000 </r>
       <r>   -6.5539    1.0000 </r>
       <r>   -6.5350    1.0000 </r>
       <r>   -6.5069    1.0000 </r>
       <r>    0.1895    1.0000 </r>
       <r>    1.5836    1.0000 </r>
       <r>    1.6685    1.0000 </r>
       <r>    1.6685    1.0000 </r>
       <r>    1.8632    1.0000 </r>
       <r>    1.9117    1.0000 </r>
       <r>    1.9376    1.0000 </r>
       <r>    1.9376    1.0000 </r>
       <r>    4.6655    1.0000 </r>
       <r>    5.4704    1.0000 </r>
       <r>    5.4704    1.0000 </r>
       <r>    5.6174    1.0000 </r>
       <r>    6.0946    1.0000 </r>
       <r>    6.2746    1.0000 </r>
       <r>    6.2746    1.0000 </r>
       <r>    6.3320    1.0000 </r>
       <r>    7.5610    1.0000 </r>
       <r>    7.5610    1.0000 </r>
       <r>    7.8619    1.0000 </r>
       <r>    7.8663    1.0000 </r>
       <r>    7.8992    1.0000 </r>
       <r>    8.0516    0.9989 </r>
       <r>    8.0516    0.9989 </r>
       <r>    8.1112    0.9865 </r>
       <r>    8.1500    0.9518 </r>
       <r>    8.1500    0.9518 </r>
       <r>    8.2112    0.7872 </r>
       <r>    8.2167    0.7641 </r>
       <r>    8.4345    0.0091 </r>
       <r>    8.4352    0.0089 </r>
       <r>    8.5504    0.0000 </r>
       <r>    8.5504    0.0000 </r>
       <r>    8.7270    0.0000 </r>
       <r>    8.7270    0.0000 </r>
       <r>    8.9395    0.0000 </r>
       <r>    8.9674    0.0000 </r>
       <r>    9.0195    0.0000 </r>
       <r>    9.8035    0.0000 </r>
       <r>    9.8035    0.0000 </r>
       <r>    9.8964    0.0000 </r>
       <r>    9.9246    0.0000 </r>
       <r>    9.9246    0.0000 </r>
       <r>   10.0181    0.0000 </r>
       <r>   10.0354    0.0000 </r>
       <r>   10.0712    0.0000 </r>
       <r>   10.0712    0.0000 </r>
       <r>   10.7219    0.0000 </r>
       <r>   11.3679    0.0000 </r>
       <r>   11.4966    0.0000 </r>
       <r>   11.4966    0.0000 </r>
       <r>   11.5328    0.0000 </r>
       <r>   11.6037    0.0000 </r>
       <r>   12.3507    0.0000 </r>
       <r>   12.3507    0.0000 </r>
       <r>   12.6582    0.0000 </r>
      </set>
     </set>
    </set>
   </array>
  </eigenvalues>
  <separator name="orbital magnetization" >
   <v name="MAGDIPOLOUT">      0.00000000      0.00000000      0.00000000</v>
  </separator>
 </calculation>
 <structure name="finalpos" >
  <crystal>
   <varray name="basis" >
    <v>       5.60695197       0.00000000      -0.00000000 </v>
    <v>       0.00000000       5.60695197       0.00000000 </v>
    <v>      -0.00000000       0.00000000       8.24170653 </v>
   </varray>
   <i name="volume">    259.10203137 </i>
   <varray name="rec_basis" >
    <v>       0.17835002       0.00000000       0.00000000 </v>
    <v>       0.00000000       0.17835002       0.00000000 </v>
    <v>       0.00000000       0.00000000       0.12133409 </v>
   </varray>
  </crystal>
  <varray name="positions" >
   <v>      -0.00000000      -0.00000000      -0.00000000 </v>
   <v>      -0.00000000      -0.00000000       0.50000000 </v>
   <v>      -0.00000000       0.50000000      -0.00000000 </v>
   <v>      -0.00000000       0.50000000       0.50000000 </v>
   <v>       0.50000000      -0.00000000      -0.00000000 </v>
   <v>       0.50000000      -0.00000000       0.50000000 </v>
   <v>       0.50000000       0.50000000      -0.00000000 </v>
   <v>       0.50000000       0.50000000       0.50000000 </v>
   <v>       0.25094688       0.25094688       0.25207123 </v>
   <v>       0.25094688       0.25094688       0.74792877 </v>
   <v>       0.25094688       0.74905312       0.25207123 </v>
   <v>       0.25094688       0.74905312       0.74792877 </v>
   <v>       0.74905312       0.25094688       0.25207123 </v>
   <v>       0.74905312       0.25094688       0.74792877 </v>
   <v>       0.74905312       0.74905312       0.25207123 </v>
   <v>       0.74905312       0.74905312       0.74792877 </v>
  </varray>
 </structure>
</modeling>
