CaNi2                                   
           1
     5.647637    0.000000    0.000000
     0.000000    5.647637    0.000000
     0.000000    0.000000    8.140666
   Ga   Ti   Al
     1     7     8
Direct configuration=     1
   0.00000000  0.00000000  0.00000000
   0.00000000  0.00000000  0.50000000
   0.00000000  0.50000000  0.00000000
   0.00000000  0.50000000  0.50000000
   0.50000000  0.00000000  0.00000000
   0.50000000  0.00000000  0.50000000
   0.50000000  0.50000000  0.00000000
   0.50000000  0.50000000  0.50000000
   0.25000000  0.25000000  0.25000000
   0.25000000  0.25000000  0.75000000
   0.25000000  0.75000000  0.25000000
   0.25000000  0.75000000  0.75000000
   0.75000000  0.25000000  0.25000000
   0.75000000  0.25000000  0.75000000
   0.75000000  0.75000000  0.25000000
   0.75000000  0.75000000  0.75000000
CaNi2                                   
           1
     5.622307    0.000000   -0.000000
     0.000000    5.622307    0.000000
     0.000000    0.000000    8.176434
   Ga   Ti   Al
     1     7     8
Direct configuration=     2
  -0.00000000 -0.00000000  0.00000000
  -0.00000000 -0.00000000  0.50000000
  -0.00000000  0.50000000  0.00000000
  -0.00000000  0.50000000  0.50000000
   0.50000000 -0.00000000  0.00000000
   0.50000000 -0.00000000  0.50000000
   0.50000000  0.50000000  0.00000000
   0.50000000  0.50000000  0.50000000
   0.25036555  0.25036555  0.25080457
   0.25036555  0.25036555  0.74919543
   0.25036555  0.74963445  0.25080457
   0.25036555  0.74963445  0.74919543
   0.74963445  0.25036555  0.25080457
   0.74963445  0.25036555  0.74919543
   0.74963445  0.74963445  0.25080457
   0.74963445  0.74963445  0.74919543
CaNi2                                   
           1
     5.618856    0.000000    0.000000
     0.000000    5.618856    0.000000
    -0.000000    0.000000    8.219652
   Ga   Ti   Al
     1     7     8
Direct configuration=     3
  -0.00000000 -0.00000000 -0.00000000
  -0.00000000 -0.00000000  0.50000000
  -0.00000000  0.50000000 -0.00000000
  -0.00000000  0.50000000  0.50000000
   0.50000000 -0.00000000 -0.00000000
   0.50000000 -0.00000000  0.50000000
   0.50000000  0.50000000 -0.00000000
   0.50000000  0.50000000  0.50000000
   0.25064900  0.25064900  0.25141265
   0.25064900  0.25064900  0.74858735
   0.25064900  0.74935100  0.25141265
   0.25064900  0.74935100  0.74858735
   0.74935100  0.25064900  0.25141265
   0.74935100  0.25064900  0.74858735
   0.74935100  0.74935100  0.25141265
   0.74935100  0.74935100  0.74858735
CaNi2                                   
           1
     5.607229    0.000000   -0.000000
     0.000000    5.607229    0.000000
    -0.000000    0.000000    8.242235
   Ga   Ti   Al
     1     7     8
Direct configuration=     4
  -0.00000000 -0.00000000 -0.00000000
  -0.00000000 -0.00000000  0.50000000
  -0.00000000  0.50000000 -0.00000000
  -0.00000000  0.50000000  0.50000000
   0.50000000 -0.00000000 -0.00000000
   0.50000000 -0.00000000  0.50000000
   0.50000000  0.50000000 -0.00000000
   0.50000000  0.50000000  0.50000000
   0.25092098  0.25092098  0.25199150
   0.25092098  0.25092098  0.74800850
   0.25092098  0.74907902  0.25199150
   0.25092098  0.74907902  0.74800850
   0.74907902  0.25092098  0.25199150
   0.74907902  0.25092098  0.74800850
   0.74907902  0.74907902  0.25199150
   0.74907902  0.74907902  0.74800850
CaNi2                                   
           1
     5.606952    0.000000   -0.000000
     0.000000    5.606952    0.000000
    -0.000000    0.000000    8.241707
   Ga   Ti   Al
     1     7     8
Direct configuration=     5
  -0.00000000 -0.00000000 -0.00000000
  -0.00000000 -0.00000000  0.50000000
  -0.00000000  0.50000000 -0.00000000
  -0.00000000  0.50000000  0.50000000
   0.50000000 -0.00000000 -0.00000000
   0.50000000 -0.00000000  0.50000000
   0.50000000  0.50000000 -0.00000000
   0.50000000  0.50000000  0.50000000
   0.25094688  0.25094688  0.25207123
   0.25094688  0.25094688  0.74792877
   0.25094688  0.74905312  0.25207123
   0.25094688  0.74905312  0.74792877
   0.74905312  0.25094688  0.25207123
   0.74905312  0.25094688  0.74792877
   0.74905312  0.74905312  0.25207123
   0.74905312  0.74905312  0.74792877
