   8   8   0   0
  0.4264879E+02  0.4070300E-09  0.3993500E-09  0.2099020E-08  0.5000000E-15
  1.000000000000000E-004
  CAR 
 unknown system                          
     13.38663853    -59.53713838  301      0.78018389      1.00000000
    -59.537  0.0000E+00  0.0000E+00
    -59.294  0.0000E+00  0.0000E+00
    -59.051  0.0000E+00  0.0000E+00
    -58.808  0.0000E+00  0.0000E+00
    -58.565  0.0000E+00  0.0000E+00
    -58.322  0.0000E+00  0.0000E+00
    -58.079  0.0000E+00  0.0000E+00
    -57.836  0.0000E+00  0.0000E+00
    -57.593  0.0000E+00  0.0000E+00
    -57.349  0.0000E+00  0.0000E+00
    -57.106 -0.3707E-32 -0.9011E-33
    -56.863 -0.3599E-16 -0.8749E-17
    -56.620 -0.2077E-05 -0.5049E-06
    -56.377 -0.4084E+00 -0.9927E-01
    -56.134  0.1696E+02  0.4022E+01
    -55.891 -0.2667E+00  0.3957E+01
    -55.648  0.1709E+02  0.8112E+01
    -55.405 -0.4614E+00  0.8000E+01
    -55.162 -0.1198E-04  0.8000E+01
    -54.919  0.0000E+00  0.8000E+01
    -54.676  0.0000E+00  0.8000E+01
    -54.432  0.0000E+00  0.8000E+01
    -54.189  0.0000E+00  0.8000E+01
    -53.946  0.0000E+00  0.8000E+01
    -53.703  0.0000E+00  0.8000E+01
    -53.460  0.0000E+00  0.8000E+01
    -53.217  0.0000E+00  0.8000E+01
    -52.974  0.0000E+00  0.8000E+01
    -52.731  0.0000E+00  0.8000E+01
    -52.488  0.0000E+00  0.8000E+01
    -52.245  0.0000E+00  0.8000E+01
    -52.002  0.0000E+00  0.8000E+01
    -51.759  0.0000E+00  0.8000E+01
    -51.516  0.0000E+00  0.8000E+01
    -51.272  0.0000E+00  0.8000E+01
    -51.029  0.0000E+00  0.8000E+01
    -50.786  0.0000E+00  0.8000E+01
    -50.543  0.0000E+00  0.8000E+01
    -50.300  0.0000E+00  0.8000E+01
    -50.057  0.0000E+00  0.8000E+01
    -49.814  0.0000E+00  0.8000E+01
    -49.571  0.0000E+00  0.8000E+01
    -49.328  0.0000E+00  0.8000E+01
    -49.085  0.0000E+00  0.8000E+01
    -48.842  0.0000E+00  0.8000E+01
    -48.599  0.0000E+00  0.8000E+01
    -48.355  0.0000E+00  0.8000E+01
    -48.112  0.0000E+00  0.8000E+01
    -47.869  0.0000E+00  0.8000E+01
    -47.626  0.0000E+00  0.8000E+01
    -47.383  0.0000E+00  0.8000E+01
    -47.140  0.0000E+00  0.8000E+01
    -46.897  0.0000E+00  0.8000E+01
    -46.654  0.0000E+00  0.8000E+01
    -46.411  0.0000E+00  0.8000E+01
    -46.168  0.0000E+00  0.8000E+01
    -45.925  0.0000E+00  0.8000E+01
    -45.682  0.0000E+00  0.8000E+01
    -45.439  0.0000E+00  0.8000E+01
    -45.195  0.0000E+00  0.8000E+01
    -44.952  0.0000E+00  0.8000E+01
    -44.709  0.0000E+00  0.8000E+01
    -44.466  0.0000E+00  0.8000E+01
    -44.223  0.0000E+00  0.8000E+01
    -43.980  0.0000E+00  0.8000E+01
    -43.737  0.0000E+00  0.8000E+01
    -43.494  0.0000E+00  0.8000E+01
    -43.251  0.0000E+00  0.8000E+01
    -43.008  0.0000E+00  0.8000E+01
    -42.765  0.0000E+00  0.8000E+01
    -42.522  0.0000E+00  0.8000E+01
    -42.279  0.0000E+00  0.8000E+01
    -42.035  0.0000E+00  0.8000E+01
    -41.792  0.0000E+00  0.8000E+01
    -41.549  0.0000E+00  0.8000E+01
    -41.306  0.0000E+00  0.8000E+01
    -41.063  0.0000E+00  0.8000E+01
    -40.820  0.0000E+00  0.8000E+01
    -40.577  0.0000E+00  0.8000E+01
    -40.334  0.0000E+00  0.8000E+01
    -40.091  0.0000E+00  0.8000E+01
    -39.848  0.0000E+00  0.8000E+01
    -39.605  0.0000E+00  0.8000E+01
    -39.362  0.0000E+00  0.8000E+01
    -39.118  0.0000E+00  0.8000E+01
    -38.875  0.0000E+00  0.8000E+01
    -38.632  0.0000E+00  0.8000E+01
    -38.389  0.0000E+00  0.8000E+01
    -38.146  0.0000E+00  0.8000E+01
    -37.903  0.0000E+00  0.8000E+01
    -37.660  0.0000E+00  0.8000E+01
    -37.417  0.0000E+00  0.8000E+01
    -37.174  0.0000E+00  0.8000E+01
    -36.931  0.0000E+00  0.8000E+01
    -36.688  0.0000E+00  0.8000E+01
    -36.445  0.0000E+00  0.8000E+01
    -36.202  0.0000E+00  0.8000E+01
    -35.958  0.0000E+00  0.8000E+01
    -35.715  0.0000E+00  0.8000E+01
    -35.472  0.0000E+00  0.8000E+01
    -35.229  0.0000E+00  0.8000E+01
    -34.986  0.0000E+00  0.8000E+01
    -34.743  0.0000E+00  0.8000E+01
    -34.500  0.0000E+00  0.8000E+01
    -34.257  0.0000E+00  0.8000E+01
    -34.014  0.0000E+00  0.8000E+01
    -33.771  0.0000E+00  0.8000E+01
    -33.528 -0.1617E-32  0.8000E+01
    -33.285 -0.1844E-16  0.8000E+01
    -33.041 -0.1320E-05  0.8000E+01
    -32.798 -0.3577E+00  0.7913E+01
    -32.555  0.1554E+02  0.1169E+02
    -32.312  0.3477E+02  0.2014E+02
    -32.069  0.2781E+02  0.2690E+02
    -31.826  0.1835E+02  0.3136E+02
    -31.583  0.2627E+01  0.3200E+02
    -31.340 -0.3520E-02  0.3200E+02
    -31.097 -0.2715E-10  0.3200E+02
    -30.854  0.0000E+00  0.3200E+02
    -30.611  0.0000E+00  0.3200E+02
    -30.368  0.0000E+00  0.3200E+02
    -30.125  0.0000E+00  0.3200E+02
    -29.881  0.0000E+00  0.3200E+02
    -29.638  0.0000E+00  0.3200E+02
    -29.395  0.0000E+00  0.3200E+02
    -29.152  0.0000E+00  0.3200E+02
    -28.909  0.0000E+00  0.3200E+02
    -28.666  0.0000E+00  0.3200E+02
    -28.423  0.0000E+00  0.3200E+02
    -28.180  0.0000E+00  0.3200E+02
    -27.937  0.0000E+00  0.3200E+02
    -27.694  0.0000E+00  0.3200E+02
    -27.451  0.0000E+00  0.3200E+02
    -27.208  0.0000E+00  0.3200E+02
    -26.965  0.0000E+00  0.3200E+02
    -26.721  0.0000E+00  0.3200E+02
    -26.478  0.0000E+00  0.3200E+02
    -26.235  0.0000E+00  0.3200E+02
    -25.992  0.0000E+00  0.3200E+02
    -25.749  0.0000E+00  0.3200E+02
    -25.506  0.0000E+00  0.3200E+02
    -25.263  0.0000E+00  0.3200E+02
    -25.020  0.0000E+00  0.3200E+02
    -24.777  0.0000E+00  0.3200E+02
    -24.534  0.0000E+00  0.3200E+02
    -24.291  0.0000E+00  0.3200E+02
    -24.048  0.0000E+00  0.3200E+02
    -23.804  0.0000E+00  0.3200E+02
    -23.561  0.0000E+00  0.3200E+02
    -23.318  0.0000E+00  0.3200E+02
    -23.075  0.0000E+00  0.3200E+02
    -22.832  0.0000E+00  0.3200E+02
    -22.589  0.0000E+00  0.3200E+02
    -22.346  0.0000E+00  0.3200E+02
    -22.103  0.0000E+00  0.3200E+02
    -21.860  0.0000E+00  0.3200E+02
    -21.617  0.0000E+00  0.3200E+02
    -21.374  0.0000E+00  0.3200E+02
    -21.131  0.0000E+00  0.3200E+02
    -20.888  0.0000E+00  0.3200E+02
    -20.644  0.0000E+00  0.3200E+02
    -20.401  0.0000E+00  0.3200E+02
    -20.158  0.0000E+00  0.3200E+02
    -19.915  0.0000E+00  0.3200E+02
    -19.672  0.0000E+00  0.3200E+02
    -19.429  0.0000E+00  0.3200E+02
    -19.186  0.0000E+00  0.3200E+02
    -18.943  0.0000E+00  0.3200E+02
    -18.700  0.0000E+00  0.3200E+02
    -18.457  0.0000E+00  0.3200E+02
    -18.214  0.0000E+00  0.3200E+02
    -17.971  0.0000E+00  0.3200E+02
    -17.728  0.0000E+00  0.3200E+02
    -17.484  0.0000E+00  0.3200E+02
    -17.241  0.0000E+00  0.3200E+02
    -16.998  0.0000E+00  0.3200E+02
    -16.755  0.0000E+00  0.3200E+02
    -16.512  0.0000E+00  0.3200E+02
    -16.269  0.0000E+00  0.3200E+02
    -16.026  0.0000E+00  0.3200E+02
    -15.783  0.0000E+00  0.3200E+02
    -15.540  0.0000E+00  0.3200E+02
    -15.297  0.0000E+00  0.3200E+02
    -15.054  0.0000E+00  0.3200E+02
    -14.811  0.0000E+00  0.3200E+02
    -14.567  0.0000E+00  0.3200E+02
    -14.324  0.0000E+00  0.3200E+02
    -14.081  0.0000E+00  0.3200E+02
    -13.838  0.0000E+00  0.3200E+02
    -13.595  0.0000E+00  0.3200E+02
    -13.352  0.0000E+00  0.3200E+02
    -13.109  0.0000E+00  0.3200E+02
    -12.866  0.0000E+00  0.3200E+02
    -12.623  0.0000E+00  0.3200E+02
    -12.380  0.0000E+00  0.3200E+02
    -12.137  0.0000E+00  0.3200E+02
    -11.894  0.0000E+00  0.3200E+02
    -11.651  0.0000E+00  0.3200E+02
    -11.407  0.0000E+00  0.3200E+02
    -11.164  0.0000E+00  0.3200E+02
    -10.921  0.0000E+00  0.3200E+02
    -10.678  0.0000E+00  0.3200E+02
    -10.435  0.0000E+00  0.3200E+02
    -10.192  0.0000E+00  0.3200E+02
     -9.949  0.0000E+00  0.3200E+02
     -9.706  0.0000E+00  0.3200E+02
     -9.463  0.0000E+00  0.3200E+02
     -9.220  0.0000E+00  0.3200E+02
     -8.977  0.0000E+00  0.3200E+02
     -8.734 -0.1532E-41  0.3200E+02
     -8.490 -0.1456E-23  0.3200E+02
     -8.247 -0.8716E-11  0.3200E+02
     -8.004 -0.2689E-03  0.3200E+02
     -7.761  0.1011E+00  0.3202E+02
     -7.518  0.4506E+00  0.3213E+02
     -7.275  0.8897E+00  0.3235E+02
     -7.032  0.6076E+00  0.3250E+02
     -6.789  0.4355E+00  0.3260E+02
     -6.546  0.1528E+01  0.3298E+02
     -6.303  0.1199E+01  0.3327E+02
     -6.060  0.1345E+01  0.3359E+02
     -5.817  0.1928E+01  0.3406E+02
     -5.574  0.6268E+00  0.3421E+02
     -5.330  0.2010E+01  0.3470E+02
     -5.087  0.2213E+01  0.3524E+02
     -4.844  0.1327E+01  0.3556E+02
     -4.601  0.1418E+01  0.3591E+02
     -4.358  0.6217E+00  0.3606E+02
     -4.115  0.1408E+01  0.3640E+02
     -3.872  0.2990E+01  0.3713E+02
     -3.629  0.3441E+01  0.3797E+02
     -3.386  0.3851E+01  0.3890E+02
     -3.143  0.1383E+01  0.3924E+02
     -2.900  0.9221E+00  0.3946E+02
     -2.657  0.1428E+01  0.3981E+02
     -2.414  0.2167E+01  0.4034E+02
     -2.170  0.4370E+01  0.4140E+02
     -1.927  0.1228E+01  0.4170E+02
     -1.684  0.3689E+01  0.4259E+02
     -1.441  0.4007E+01  0.4357E+02
     -1.198  0.5439E+01  0.4489E+02
     -0.955  0.5277E+01  0.4617E+02
     -0.712  0.6890E+01  0.4785E+02
     -0.469  0.8915E+01  0.5001E+02
     -0.226  0.3818E+01  0.5094E+02
      0.017  0.8287E+01  0.5296E+02
      0.260  0.8162E+01  0.5494E+02
      0.503  0.9794E+01  0.5732E+02
      0.747  0.9781E+01  0.5970E+02
      0.990  0.8425E+01  0.6175E+02
      1.233  0.6040E+01  0.6321E+02
      1.476  0.5354E+01  0.6452E+02
      1.719  0.1019E+02  0.6699E+02
      1.962  0.1152E+02  0.6979E+02
      2.205  0.1026E+02  0.7229E+02
      2.448  0.1635E+02  0.7626E+02
      2.691  0.1173E+02  0.7911E+02
      2.934  0.1312E+02  0.8230E+02
      3.177  0.7183E+01  0.8405E+02
      3.420  0.3804E+01  0.8497E+02
      3.663  0.5977E+01  0.8643E+02
      3.907  0.6726E+01  0.8806E+02
      4.150  0.5520E+01  0.8940E+02
      4.393  0.5822E+01  0.9082E+02
      4.636  0.9285E+01  0.9308E+02
      4.879  0.6091E+01  0.9456E+02
      5.122  0.4839E+01  0.9573E+02
      5.365  0.5417E+01  0.9705E+02
      5.608  0.6818E+01  0.9871E+02
      5.851  0.4190E+01  0.9973E+02
      6.094  0.6443E+01  0.1013E+03
      6.337  0.5842E+01  0.1027E+03
      6.580  0.5674E+01  0.1041E+03
      6.823  0.7676E+01  0.1060E+03
      7.067  0.1092E+02  0.1086E+03
      7.310  0.6347E+01  0.1102E+03
      7.553  0.4354E+01  0.1112E+03
      7.796  0.8392E+01  0.1133E+03
      8.039  0.8457E+01  0.1153E+03
      8.282  0.9081E+01  0.1175E+03
      8.525  0.7793E+01  0.1194E+03
      8.768  0.8309E+01  0.1214E+03
      9.011  0.5745E+01  0.1228E+03
      9.254  0.6570E+01  0.1244E+03
      9.497  0.1119E+02  0.1271E+03
      9.740  0.3346E+01  0.1280E+03
      9.984 -0.5127E-01  0.1279E+03
     10.227  0.2363E+00  0.1280E+03
     10.470 -0.5833E-02  0.1280E+03
     10.713 -0.3237E-07  0.1280E+03
     10.956  0.0000E+00  0.1280E+03
     11.199  0.0000E+00  0.1280E+03
     11.442  0.0000E+00  0.1280E+03
     11.685  0.0000E+00  0.1280E+03
     11.928  0.0000E+00  0.1280E+03
     12.171  0.0000E+00  0.1280E+03
     12.414  0.0000E+00  0.1280E+03
     12.657  0.0000E+00  0.1280E+03
     12.900  0.0000E+00  0.1280E+03
     13.144  0.0000E+00  0.1280E+03
     13.387  0.0000E+00  0.1280E+03
