    8    8    1    1
  0.4264879E+02  0.4070300E-09  0.3993500E-09  0.2099020E-08  0.5000000E-15
  1.000000000000000E-004
  CAR 
 unknown system                          
     60     16     64
 
  0.1276756E-14  0.1276756E-14  0.1276756E-14  0.2777778E-01
      1        -56.222421   1.000000
      2        -56.222156   1.000000
      3        -55.820442   1.000000
      4        -55.763554   1.000000
      5        -32.631888   1.000000
      6        -32.629332   1.000000
      7        -32.437048   1.000000
      8        -32.426823   1.000000
      9        -32.425983   1.000000
     10        -32.425576   1.000000
     11        -32.213543   1.000000
     12        -32.158764   1.000000
     13        -32.092339   1.000000
     14        -32.079100   1.000000
     15        -31.899564   1.000000
     16        -31.877748   1.000000
     17         -7.754690   1.000000
     18         -6.368167   1.000000
     19         -4.472544   1.000000
     20         -2.736581   1.000000
     21         -0.774479   1.000000
     22         -0.706195   1.000000
     23         -0.175016   1.000000
     24          0.043541   1.000000
     25          0.071905   1.000000
     26          0.071957   1.000000
     27          0.194726   1.000000
     28          0.385294   1.000000
     29          0.410643   1.000001
     30          0.458014   1.000026
     31          0.490459   1.000164
     32          0.756919   0.691098
     33          1.272558  -0.000000
     34          1.309761  -0.000000
     35          1.816159  -0.000000
     36          1.977374  -0.000000
     37          2.035499  -0.000000
     38          2.373859  -0.000000
     39          2.419116  -0.000000
     40          2.463332  -0.000000
     41          2.505179  -0.000000
     42          2.648674  -0.000000
     43          3.566714   0.000000
     44          4.330175   0.000000
     45          4.405585   0.000000
     46          4.593414   0.000000
     47          4.647832   0.000000
     48          5.181250   0.000000
     49          5.757976   0.000000
     50          6.017665   0.000000
     51          6.141308   0.000000
     52          6.395627   0.000000
     53          6.749045   0.000000
     54          6.932372   0.000000
     55          6.966235   0.000000
     56          6.972246   0.000000
     57          7.182636   0.000000
     58          7.633008   0.000000
     59          7.857305   0.000000
     60          8.308493   0.000000
     61          8.536088   0.000000
     62          9.199139   0.000000
     63          9.207712   0.000000
     64         10.071921   0.000000
 
  0.1666667E+00  0.1276756E-14  0.1276756E-14  0.5555556E-01
      1        -56.222308   1.000000
      2        -56.222045   1.000000
      3        -55.820309   1.000000
      4        -55.763441   1.000000
      5        -32.631639   1.000000
      6        -32.629062   1.000000
      7        -32.436808   1.000000
      8        -32.429848   1.000000
      9        -32.428965   1.000000
     10        -32.425352   1.000000
     11        -32.217175   1.000000
     12        -32.161615   1.000000
     13        -32.092085   1.000000
     14        -32.078722   1.000000
     15        -31.899394   1.000000
     16        -31.877494   1.000000
     17         -7.513989   1.000000
     18         -6.155062   1.000000
     19         -4.290901   1.000000
     20         -2.562656   1.000000
     21         -1.717309   1.000000
     22         -1.070439   1.000000
     23         -0.636178   1.000000
     24         -0.328914   1.000000
     25         -0.213099   1.000000
     26          0.125263   1.000000
     27          0.232582   1.000000
     28          0.263262   1.000000
     29          0.534095   1.001377
     30          0.587202   1.009963
     31          1.038691  -0.000785
     32          1.078978  -0.000100
     33          1.406749  -0.000000
     34          1.415784  -0.000000
     35          1.811728  -0.000000
     36          1.936015  -0.000000
     37          1.992475  -0.000000
     38          2.295451  -0.000000
     39          2.503109  -0.000000
     40          2.510117  -0.000000
     41          2.900693   0.000000
     42          3.063058   0.000000
     43          3.575200   0.000000
     44          3.660263   0.000000
     45          4.559223   0.000000
     46          4.635699   0.000000
     47          4.804428   0.000000
     48          4.837467   0.000000
     49          5.416470   0.000000
     50          5.592403   0.000000
     51          6.038711   0.000000
     52          6.417487   0.000000
     53          6.519748   0.000000
     54          6.931646   0.000000
     55          7.458442   0.000000
     56          7.511602   0.000000
     57          7.916395   0.000000
     58          8.090720   0.000000
     59          8.183289   0.000000
     60          8.527049   0.000000
     61          8.583858   0.000000
     62          9.050577   0.000000
     63          9.233805   0.000000
     64          9.583901   0.000000
 
  0.3333333E+00  0.1276756E-14  0.1276756E-14  0.5555556E-01
      1        -56.222085   1.000000
      2        -56.221821   1.000000
      3        -55.820043   1.000000
      4        -55.763210   1.000000
      5        -32.631139   1.000000
      6        -32.628541   1.000000
      7        -32.436315   1.000000
      8        -32.435899   1.000000
      9        -32.434889   1.000000
     10        -32.424900   1.000000
     11        -32.224407   1.000000
     12        -32.167282   1.000000
     13        -32.091574   1.000000
     14        -32.077979   1.000000
     15        -31.899059   1.000000
     16        -31.876998   1.000000
     17         -6.877189   1.000000
     18         -5.608779   1.000000
     19         -3.844685   1.000000
     20         -3.158775   1.000000
     21         -2.164889   1.000000
     22         -1.962167   1.000000
     23         -1.195882   1.000000
     24         -0.930373   1.000000
     25         -0.572517   1.000000
     26         -0.136928   1.000000
     27         -0.070065   1.000000
     28          0.235019   1.000000
     29          0.955386  -0.016342
     30          1.118173  -0.000010
     31          1.164167  -0.000000
     32          1.244719  -0.000000
     33          1.620757  -0.000000
     34          1.788986  -0.000000
     35          1.947206  -0.000000
     36          2.070158  -0.000000
     37          2.160315  -0.000000
     38          2.239256  -0.000000
     39          2.772288  -0.000000
     40          2.949148   0.000000
     41          3.003097   0.000000
     42          3.458008   0.000000
     43          3.651205   0.000000
     44          3.699534   0.000000
     45          3.920858   0.000000
     46          4.156486   0.000000
     47          4.665340   0.000000
     48          5.377473   0.000000
     49          5.499029   0.000000
     50          5.507175   0.000000
     51          5.793692   0.000000
     52          6.420808   0.000000
     53          6.423969   0.000000
     54          6.489981   0.000000
     55          6.858150   0.000000
     56          7.801893   0.000000
     57          7.879655   0.000000
     58          8.191555   0.000000
     59          8.285529   0.000000
     60          8.437031   0.000000
     61          9.057244   0.000000
     62          9.079356   0.000000
     63          9.398261   0.000000
     64          9.437267   0.000000
 
  0.5000000E+00  0.1276756E-14  0.1276756E-14  0.2777778E-01
      1        -56.221972   1.000000
      2        -56.221708   1.000000
      3        -55.819905   1.000000
      4        -55.763097   1.000000
      5        -32.630890   1.000000
      6        -32.628277   1.000000
      7        -32.438916   1.000000
      8        -32.437848   1.000000
      9        -32.436080   1.000000
     10        -32.424669   1.000000
     11        -32.227999   1.000000
     12        -32.170126   1.000000
     13        -32.091315   1.000000
     14        -32.077609   1.000000
     15        -31.898887   1.000000
     16        -31.876744   1.000000
     17         -6.372816   1.000000
     18         -5.209479   1.000000
     19         -3.989457   1.000000
     20         -3.523148   1.000000
     21         -2.674623   1.000000
     22         -1.501770   1.000000
     23         -1.464986   1.000000
     24         -1.143049   1.000000
     25         -1.138987   1.000000
     26         -0.447324   1.000000
     27         -0.222004   1.000000
     28          0.308593   1.000000
     29          0.966646  -0.012074
     30          0.989298  -0.005890
     31          1.502999  -0.000000
     32          1.873071  -0.000000
     33          1.889453  -0.000000
     34          2.115296  -0.000000
     35          2.146274  -0.000000
     36          2.319998  -0.000000
     37          2.360278  -0.000000
     38          2.419330  -0.000000
     39          2.478113  -0.000000
     40          2.738505  -0.000000
     41          2.738968  -0.000000
     42          3.146572   0.000000
     43          3.615972   0.000000
     44          3.747008   0.000000
     45          3.866639   0.000000
     46          4.225081   0.000000
     47          4.541292   0.000000
     48          5.308984   0.000000
     49          5.692882   0.000000
     50          5.851403   0.000000
     51          5.916166   0.000000
     52          6.341560   0.000000
     53          6.740153   0.000000
     54          6.802903   0.000000
     55          6.984329   0.000000
     56          7.111338   0.000000
     57          7.129729   0.000000
     58          7.820048   0.000000
     59          7.959235   0.000000
     60          8.253279   0.000000
     61          8.292255   0.000000
     62          8.886574   0.000000
     63          9.053496   0.000000
     64          9.500085   0.000000
 
  0.1276756E-14  0.1666667E+00  0.1276756E-14  0.5555556E-01
      1        -56.221788   1.000000
      2        -56.221607   1.000000
      3        -55.816975   1.000000
      4        -55.767659   1.000000
      5        -32.635267   1.000000
      6        -32.631299   1.000000
      7        -32.439263   1.000000
      8        -32.435824   1.000000
      9        -32.425637   1.000000
     10        -32.425068   1.000000
     11        -32.210460   1.000000
     12        -32.162868   1.000000
     13        -32.104113   1.000000
     14        -32.077576   1.000000
     15        -31.894241   1.000000
     16        -31.867372   1.000000
     17         -7.485893   1.000000
     18         -6.107997   1.000000
     19         -4.223538   1.000000
     20         -2.709445   1.000000
     21         -1.540433   1.000000
     22         -1.001641   1.000000
     23         -0.534770   1.000000
     24         -0.203024   1.000000
     25         -0.177489   1.000000
     26         -0.078994   1.000000
     27          0.127343   1.000000
     28          0.270538   1.000000
     29          0.311290   1.000000
     30          0.581149   1.008247
     31          0.775947   0.535821
     32          0.885857  -0.030057
     33          1.280724  -0.000000
     34          1.345100  -0.000000
     35          1.579494  -0.000000
     36          1.836459  -0.000000
     37          2.162887  -0.000000
     38          2.381937  -0.000000
     39          2.395561  -0.000000
     40          2.558503  -0.000000
     41          2.781520   0.000000
     42          3.356929   0.000000
     43          3.417240   0.000000
     44          4.449444   0.000000
     45          4.481343   0.000000
     46          4.594808   0.000000
     47          4.666626   0.000000
     48          4.868020   0.000000
     49          5.604994   0.000000
     50          6.052731   0.000000
     51          6.183697   0.000000
     52          6.708424   0.000000
     53          6.951560   0.000000
     54          7.088424   0.000000
     55          7.213774   0.000000
     56          7.295747   0.000000
     57          7.512943   0.000000
     58          7.556727   0.000000
     59          8.112197   0.000000
     60          8.481742   0.000000
     61          8.804178   0.000000
     62          9.135073   0.000000
     63          9.363942   0.000000
     64          9.508172   0.000000
 
  0.1666667E+00  0.1666667E+00  0.1276756E-14  0.1111111E+00
      1        -56.221681   1.000000
      2        -56.221499   1.000000
      3        -55.816848   1.000000
      4        -55.767548   1.000000
      5        -32.634996   1.000000
      6        -32.631055   1.000000
      7        -32.438980   1.000000
      8        -32.435555   1.000000
      9        -32.428598   1.000000
     10        -32.427983   1.000000
     11        -32.214027   1.000000
     12        -32.165746   1.000000
     13        -32.103805   1.000000
     14        -32.077226   1.000000
     15        -31.894053   1.000000
     16        -31.867160   1.000000
     17         -7.253607   1.000000
     18         -5.905536   1.000000
     19         -4.059620   1.000000
     20         -2.591594   1.000000
     21         -1.548791   1.000000
     22         -1.426601   1.000000
     23         -0.912686   1.000000
     24         -0.901496   1.000000
     25         -0.496681   1.000000
     26         -0.055993   1.000000
     27          0.050172   1.000000
     28          0.342136   1.000000
     29          0.449574   1.000015
     30          0.643865   1.033029
     31          0.810042   0.259373
     32          1.330641  -0.000000
     33          1.453104  -0.000000
     34          1.611131  -0.000000
     35          1.771589  -0.000000
     36          1.831050  -0.000000
     37          2.262249  -0.000000
     38          2.324440  -0.000000
     39          2.394231  -0.000000
     40          2.765055  -0.000000
     41          2.989615   0.000000
     42          3.080759   0.000000
     43          3.428258   0.000000
     44          3.672209   0.000000
     45          4.625115   0.000000
     46          4.649358   0.000000
     47          4.682014   0.000000
     48          4.937186   0.000000
     49          4.995344   0.000000
     50          5.908542   0.000000
     51          6.003908   0.000000
     52          6.305594   0.000000
     53          6.891821   0.000000
     54          7.053463   0.000000
     55          7.648104   0.000000
     56          7.842962   0.000000
     57          8.005454   0.000000
     58          8.282011   0.000000
     59          8.397849   0.000000
     60          8.632609   0.000000
     61          8.721566   0.000000
     62          8.785341   0.000000
     63          9.129362   0.000000
     64          9.439610   0.000000
 
  0.3333333E+00  0.1666667E+00  0.1276756E-14  0.1111111E+00
      1        -56.221463   1.000000
      2        -56.221281   1.000000
      3        -55.816587   1.000000
      4        -55.767322   1.000000
      5        -32.634440   1.000000
      6        -32.630553   1.000000
      7        -32.438398   1.000000
      8        -32.435017   1.000000
      9        -32.434501   1.000000
     10        -32.433785   1.000000
     11        -32.221125   1.000000
     12        -32.171486   1.000000
     13        -32.103172   1.000000
     14        -32.076518   1.000000
     15        -31.893677   1.000000
     16        -31.866734   1.000000
     17         -6.645591   1.000000
     18         -5.396274   1.000000
     19         -3.677331   1.000000
     20         -2.920583   1.000000
     21         -2.317414   1.000000
     22         -1.850394   1.000000
     23         -1.280342   1.000000
     24         -1.013287   1.000000
     25         -0.801430   1.000000
     26         -0.524411   1.000000
     27          0.024223   1.000000
     28          0.221726   1.000000
     29          0.593881   1.012129
     30          0.813291   0.236120
     31          1.134453  -0.000003
     32          1.567835  -0.000000
     33          1.756492  -0.000000
     34          1.890454  -0.000000
     35          1.949102  -0.000000
     36          2.011444  -0.000000
     37          2.272684  -0.000000
     38          2.379431  -0.000000
     39          2.592118  -0.000000
     40          2.676859  -0.000000
     41          2.947236   0.000000
     42          3.313177   0.000000
     43          3.480883   0.000000
     44          3.673313   0.000000
     45          3.828911   0.000000
     46          4.159222   0.000000
     47          4.569299   0.000000
     48          4.952866   0.000000
     49          5.530033   0.000000
     50          5.686898   0.000000
     51          5.914968   0.000000
     52          6.315186   0.000000
     53          6.633956   0.000000
     54          6.916381   0.000000
     55          7.129004   0.000000
     56          7.378079   0.000000
     57          7.526715   0.000000
     58          8.143360   0.000000
     59          8.190035   0.000000
     60          8.580033   0.000000
     61          8.794095   0.000000
     62          8.816873   0.000000
     63          9.243515   0.000000
     64          9.439146   0.000000
 
  0.5000000E+00  0.1666667E+00  0.1276756E-14  0.5555556E-01
      1        -56.221354   1.000000
      2        -56.221172   1.000000
      3        -55.816455   1.000000
      4        -55.767210   1.000000
      5        -32.634165   1.000000
      6        -32.630302   1.000000
      7        -32.438101   1.000000
      8        -32.437450   1.000000
      9        -32.436701   1.000000
     10        -32.434720   1.000000
     11        -32.224654   1.000000
     12        -32.174358   1.000000
     13        -32.102854   1.000000
     14        -32.076167   1.000000
     15        -31.893483   1.000000
     16        -31.866516   1.000000
     17         -6.177843   1.000000
     18         -5.039237   1.000000
     19         -3.696812   1.000000
     20         -3.427382   1.000000
     21         -2.401169   1.000000
     22         -2.106178   1.000000
     23         -1.331986   1.000000
     24         -1.204478   1.000000
     25         -0.779310   1.000000
     26         -0.650578   1.000000
     27         -0.153684   1.000000
     28          0.389878   1.000000
     29          0.555805   1.003366
     30          0.730095   0.870584
     31          1.589516  -0.000000
     32          1.592633  -0.000000
     33          1.773931  -0.000000
     34          1.934075  -0.000000
     35          2.102040  -0.000000
     36          2.349010  -0.000000
     37          2.354157  -0.000000
     38          2.360014  -0.000000
     39          2.666512  -0.000000
     40          2.686769  -0.000000
     41          2.771699  -0.000000
     42          2.938320   0.000000
     43          3.487117   0.000000
     44          3.531191   0.000000
     45          3.883166   0.000000
     46          4.308964   0.000000
     47          4.793979   0.000000
     48          4.909214   0.000000
     49          5.128251   0.000000
     50          5.264993   0.000000
     51          6.037422   0.000000
     52          6.703438   0.000000
     53          6.778219   0.000000
     54          7.065070   0.000000
     55          7.111185   0.000000
     56          7.255202   0.000000
     57          7.524153   0.000000
     58          7.662488   0.000000
     59          7.695779   0.000000
     60          8.096836   0.000000
     61          8.433177   0.000000
     62          8.605334   0.000000
     63          8.679504   0.000000
     64          9.440384   0.000000
 
  0.1276756E-14  0.3333333E+00  0.1276756E-14  0.5555556E-01
      1        -56.220548   1.000000
      2        -56.220493   1.000000
      3        -55.807226   1.000000
      4        -55.778699   1.000000
      5        -32.643288   1.000000
      6        -32.634045   1.000000
      7        -32.457716   1.000000
      8        -32.441569   1.000000
      9        -32.423344   1.000000
     10        -32.423183   1.000000
     11        -32.201528   1.000000
     12        -32.173873   1.000000
     13        -32.115608   1.000000
     14        -32.086533   1.000000
     15        -31.876598   1.000000
     16        -31.854419   1.000000
     17         -6.698434   1.000000
     18         -5.346331   1.000000
     19         -3.870247   1.000000
     20         -3.529616   1.000000
     21         -2.509310   1.000000
     22         -1.581000   1.000000
     23         -0.830512   1.000000
     24         -0.543456   1.000000
     25         -0.531205   1.000000
     26         -0.193732   1.000000
     27          0.048324   1.000000
     28          0.195544   1.000000
     29          0.279797   1.000000
     30          0.344007   1.000000
     31          0.762071   0.650533
     32          1.027610  -0.001298
     33          1.474802  -0.000000
     34          1.562203  -0.000000
     35          1.642486  -0.000000
     36          1.993521  -0.000000
     37          2.297412  -0.000000
     38          2.349594  -0.000000
     39          2.636251  -0.000000
     40          2.720462  -0.000000
     41          2.820347   0.000000
     42          2.935181   0.000000
     43          4.220597   0.000000
     44          4.468426   0.000000
     45          4.572033   0.000000
     46          4.758695   0.000000
     47          5.195424   0.000000
     48          5.359535   0.000000
     49          5.423736   0.000000
     50          5.504921   0.000000
     51          6.699799   0.000000
     52          6.749403   0.000000
     53          6.797199   0.000000
     54          6.840716   0.000000
     55          7.290919   0.000000
     56          7.319245   0.000000
     57          7.590074   0.000000
     58          7.950949   0.000000
     59          8.046486   0.000000
     60          8.435754   0.000000
     61          8.453599   0.000000
     62          8.506869   0.000000
     63          9.298946   0.000000
     64          9.392834   0.000000
 
  0.1666667E+00  0.3333333E+00  0.1276756E-14  0.1111111E+00
      1        -56.220445   1.000000
      2        -56.220388   1.000000
      3        -55.807104   1.000000
      4        -55.778586   1.000000
      5        -32.642991   1.000000
      6        -32.633775   1.000000
      7        -32.457325   1.000000
      8        -32.441211   1.000000
      9        -32.426152   1.000000
     10        -32.425977   1.000000
     11        -32.204909   1.000000
     12        -32.176847   1.000000
     13        -32.115219   1.000000
     14        -32.086162   1.000000
     15        -31.876392   1.000000
     16        -31.854237   1.000000
     17         -6.491809   1.000000
     18         -5.177969   1.000000
     19         -3.771820   1.000000
     20         -3.460534   1.000000
     21         -2.353820   1.000000
     22         -1.389601   1.000000
     23         -1.159509   1.000000
     24         -0.979607   1.000000
     25         -0.649533   1.000000
     26         -0.380670   1.000000
     27         -0.078695   1.000000
     28          0.279950   1.000000
     29          0.370966   1.000000
     30          0.475198   1.000070
     31          0.951357  -0.018039
     32          0.961141  -0.014066
     33          1.571681  -0.000000
     34          1.645206  -0.000000
     35          1.840859  -0.000000
     36          1.937813  -0.000000
     37          2.354694  -0.000000
     38          2.518667  -0.000000
     39          2.674735  -0.000000
     40          2.808815   0.000000
     41          2.816191   0.000000
     42          2.965578   0.000000
     43          3.735854   0.000000
     44          3.973922   0.000000
     45          4.311629   0.000000
     46          4.373587   0.000000
     47          4.510034   0.000000
     48          5.506382   0.000000
     49          5.544379   0.000000
     50          5.660050   0.000000
     51          5.706655   0.000000
     52          6.062673   0.000000
     53          6.861826   0.000000
     54          7.051345   0.000000
     55          7.069087   0.000000
     56          7.730848   0.000000
     57          7.949329   0.000000
     58          8.119507   0.000000
     59          8.286892   0.000000
     60          8.653988   0.000000
     61          8.865179   0.000000
     62          9.203240   0.000000
     63          9.363072   0.000000
     64          9.601151   0.000000
 
  0.3333333E+00  0.3333333E+00  0.1276756E-14  0.1111111E+00
      1        -56.220236   1.000000
      2        -56.220179   1.000000
      3        -55.806857   1.000000
      4        -55.778361   1.000000
      5        -32.642387   1.000000
      6        -32.633233   1.000000
      7        -32.456534   1.000000
      8        -32.440482   1.000000
      9        -32.431770   1.000000
     10        -32.431556   1.000000
     11        -32.211653   1.000000
     12        -32.182796   1.000000
     13        -32.114433   1.000000
     14        -32.085416   1.000000
     15        -31.875973   1.000000
     16        -31.853864   1.000000
     17         -5.969910   1.000000
     18         -4.789590   1.000000
     19         -3.549063   1.000000
     20         -3.378059   1.000000
     21         -2.268032   1.000000
     22         -1.844665   1.000000
     23         -1.416310   1.000000
     24         -0.969455   1.000000
     25         -0.800407   1.000000
     26         -0.514128   1.000000
     27         -0.137514   1.000000
     28          0.241933   1.000000
     29          0.611439   1.019098
     30          0.717473   0.931807
     31          0.849024   0.044243
     32          1.087645  -0.000061
     33          1.658723  -0.000000
     34          1.714640  -0.000000
     35          2.057658  -0.000000
     36          2.138572  -0.000000
     37          2.333730  -0.000000
     38          2.361954  -0.000000
     39          2.562982  -0.000000
     40          2.650733  -0.000000
     41          2.734161  -0.000000
     42          2.968789   0.000000
     43          3.171616   0.000000
     44          3.417631   0.000000
     45          3.899712   0.000000
     46          3.932017   0.000000
     47          4.298777   0.000000
     48          4.522787   0.000000
     49          5.249282   0.000000
     50          5.398521   0.000000
     51          6.135930   0.000000
     52          6.171002   0.000000
     53          6.456224   0.000000
     54          6.890399   0.000000
     55          7.057086   0.000000
     56          7.615458   0.000000
     57          7.695778   0.000000
     58          7.950561   0.000000
     59          8.451850   0.000000
     60          8.980963   0.000000
     61          9.108722   0.000000
     62          9.420687   0.000000
     63          9.488616   0.000000
     64          9.532183   0.000000
 
  0.5000000E+00  0.3333333E+00  0.1276756E-14  0.5555556E-01
      1        -56.220131   1.000000
      2        -56.220074   1.000000
      3        -55.806735   1.000000
      4        -55.778246   1.000000
      5        -32.642085   1.000000
      6        -32.632961   1.000000
      7        -32.456139   1.000000
      8        -32.440120   1.000000
      9        -32.434569   1.000000
     10        -32.434343   1.000000
     11        -32.215015   1.000000
     12        -32.185758   1.000000
     13        -32.114045   1.000000
     14        -32.085044   1.000000
     15        -31.875766   1.000000
     16        -31.853685   1.000000
     17         -5.601015   1.000000
     18         -4.559394   1.000000
     19         -3.408341   1.000000
     20         -3.347506   1.000000
     21         -2.879405   1.000000
     22         -1.644626   1.000000
     23         -1.433484   1.000000
     24         -1.129538   1.000000
     25         -0.549418   1.000000
     26         -0.532473   1.000000
     27          0.092877   1.000000
     28          0.310786   1.000000
     29          0.346761   1.000000
     30          0.626083   1.025792
     31          0.899049  -0.035247
     32          1.261541  -0.000000
     33          1.683909  -0.000000
     34          1.820284  -0.000000
     35          1.915249  -0.000000
     36          2.050917  -0.000000
     37          2.263981  -0.000000
     38          2.286781  -0.000000
     39          2.483273  -0.000000
     40          2.495528  -0.000000
     41          2.797681   0.000000
     42          2.815701   0.000000
     43          3.031839   0.000000
     44          3.045797   0.000000
     45          3.773306   0.000000
     46          3.823749   0.000000
     47          4.275217   0.000000
     48          4.497200   0.000000
     49          4.956078   0.000000
     50          5.221499   0.000000
     51          6.234668   0.000000
     52          6.317380   0.000000
     53          6.716401   0.000000
     54          6.819876   0.000000
     55          7.192149   0.000000
     56          7.561022   0.000000
     57          7.845599   0.000000
     58          7.973117   0.000000
     59          8.007790   0.000000
     60          8.552113   0.000000
     61          8.676618   0.000000
     62          9.424375   0.000000
     63          9.462991   0.000000
     64          9.477853   0.000000
 
  0.1276756E-14  0.5000000E+00  0.1276756E-14  0.2777778E-01
      1        -56.219945   1.000000
      2        -56.219918   1.000000
      3        -55.793293   1.000000
      4        -55.793277   1.000000
      5        -32.641671   1.000000
      6        -32.641665   1.000000
      7        -32.455457   1.000000
      8        -32.455424   1.000000
      9        -32.422235   1.000000
     10        -32.422202   1.000000
     11        -32.188229   1.000000
     12        -32.188211   1.000000
     13        -32.106027   1.000000
     14        -32.106020   1.000000
     15        -31.857948   1.000000