       N       E                     dE             d eps       ncg     rms          rms(c)
DAV:   1     0.200767993731E+03    0.20077E+03   -0.34616E+04  2048   0.847E+02
DAV:   2    -0.384151185411E+02   -0.23918E+03   -0.23894E+03  2624   0.136E+02
DAV:   3    -0.549713238652E+02   -0.16556E+02   -0.16553E+02  3008   0.414E+01
DAV:   4    -0.557779162428E+02   -0.80659E+00   -0.80652E+00  3136   0.740E+00
DAV:   5    -0.557871465427E+02   -0.92303E-02   -0.92303E-02  3072   0.785E-01    0.194E+01
DAV:   6    -0.568070124370E+02   -0.10199E+01   -0.21575E+02  3392   0.321E+01    0.305E+01
DAV:   7    -0.519927977228E+02    0.48142E+01   -0.30230E+02  3264   0.289E+01    0.180E+01
DAV:   8    -0.473795795388E+02    0.46132E+01   -0.43161E+01  3776   0.124E+01    0.731E+00
DAV:   9    -0.462740333750E+02    0.11055E+01   -0.46166E+00  3392   0.657E+00    0.250E+00
DAV:  10    -0.462411879978E+02    0.32845E-01   -0.21660E+00  3328   0.430E+00    0.248E+00
DAV:  11    -0.461822634166E+02    0.58925E-01   -0.80595E-01  3136   0.202E+00    0.885E-01
DAV:  12    -0.461750297913E+02    0.72336E-02   -0.93226E-02  3584   0.849E-01    0.179E-01
DAV:  13    -0.461761009077E+02   -0.10711E-02   -0.26751E-03  3072   0.146E-01    0.854E-02
DAV:  14    -0.461768054819E+02   -0.70457E-03   -0.29635E-03  3008   0.101E-01    0.743E-02
DAV:  15    -0.461771205999E+02   -0.31512E-03   -0.54638E-04  2368   0.519E-02    0.402E-02
DAV:  16    -0.461771079837E+02    0.12616E-04   -0.36705E-04  2304   0.474E-02    0.191E-02
DAV:  17    -0.461772355539E+02   -0.12757E-03   -0.75355E-05  2304   0.188E-02    0.718E-03
DAV:  18    -0.461773298240E+02   -0.94270E-04   -0.72406E-06  3136   0.620E-03    0.453E-03
DAV:  19    -0.461774510549E+02   -0.12123E-03   -0.19366E-05  3072   0.606E-03    0.322E-03
DAV:  20    -0.461775450029E+02   -0.93948E-04   -0.59598E-06  2432   0.373E-03    0.158E-03
DAV:  21    -0.461775891542E+02   -0.44151E-04   -0.42054E-06  2432   0.248E-03    0.118E-03
DAV:  22    -0.461775987218E+02   -0.95676E-05   -0.79672E-07  2432   0.112E-03
   1 F= -.46177599E+02 E0= -.46176829E+02  d E =-.230786E-02
