unknown system                          
           1
     4.070300    0.000000    0.000000
     0.000000    3.993500    0.000000
     0.000000    0.000000   20.990200
   Ti   Al
     4     4
Direct configuration=     1
   0.00000000  0.50000000  0.33349001
   0.00000000  0.00000000  0.42862001
   0.00000000  0.50000000  0.52373999
   0.00000000  0.00000000  0.61887002
   0.50000000  0.00000000  0.33349001
   0.50000000  0.50000000  0.42862001
   0.50000000  0.00000000  0.52373999
   0.50000000  0.50000000  0.61887002
