   16   16  300    1
  0.1622832E+02  0.5647637E-09  0.5647637E-09  0.8140666E-09  0.5000000E-15
  1.000000000000000E-004
  CAR 
 CaNi2                                   
    120     30     88
 
  0.1276756E-14  0.1276756E-14  0.1276756E-14  0.6944444E-02
      1        -48.314686   1.000000
      2        -48.314079   1.000000
      3        -48.257194   1.000000
      4        -48.257194   1.000000
      5        -48.256733   1.000000
      6        -48.256733   1.000000
      7        -48.201846   1.000000
      8        -48.201397   1.000000
      9        -24.740315   1.000000
     10        -24.740315   1.000000
     11        -24.737674   1.000000
     12        -24.737674   1.000000
     13        -24.726188   1.000000
     14        -24.708823   1.000000
     15        -24.673363   1.000000
     16        -24.673363   1.000000
     17        -24.671971   1.000000
     18        -24.671971   1.000000
     19        -24.664213   1.000000
     20        -24.664213   1.000000
     21        -24.651662   1.000000
     22        -24.651662   1.000000
     23        -24.609462   1.000000
     24        -24.598829   1.000000
     25        -24.269143   1.000000
     26        -24.269143   1.000000
     27        -24.268609   1.000000
     28        -24.268609   1.000000
     29        -24.227625   1.000000
     30        -24.227625   1.000000
     31        -24.227033   1.000000
     32        -24.227033   1.000000
     33         -0.708581   1.000000
     34          0.770619   1.000000
     35          3.060603   1.000000
     36          3.412786   1.000000
     37          3.412786   1.000000
     38          3.759595   1.000000
     39          3.759595   1.000000
     40          3.798076   1.000000
     41          3.798076   1.000000
     42          5.131986   1.000000
     43          5.398750   1.000000
     44          5.398750   1.000000
     45          5.812097   1.000000
     46          6.060104   1.000000
     47          6.060104   1.000000
     48          6.464477   1.000000
     49          6.633552   1.000000
     50          6.633552   1.000000
     51          7.126810   1.000000
     52          7.126810   1.000000
     53          7.170679   1.000000
     54          7.170679   1.000000
     55          7.483815   1.000000
     56          7.654306   1.000000
     57          7.854560   1.000000
     58          7.854560   1.000000
     59          7.914558   1.000000
     60          7.990443   0.999997
     61          8.073179   0.999654
     62          8.073179   0.999654
     63          8.115877   0.997358
     64          8.115877   0.997358
     65          8.969958   0.000000
     66          9.700732   0.000000
     67          9.700732   0.000000
     68         10.046948   0.000000
     69         10.046948   0.000000
     70         10.084052   0.000000
     71         10.099683   0.000000
     72         10.099683   0.000000
     73         10.111935   0.000000
     74         10.111935   0.000000
     75         10.444980   0.000000
     76         10.468076   0.000000
     77         10.468076   0.000000
     78         10.597245   0.000000
     79         10.597245   0.000000
     80         10.822343   0.000000
     81         10.822343   0.000000
     82         11.041111   0.000000
     83         11.600810   0.000000
     84         11.614386   0.000000
     85         12.128031   0.000000
     86         12.128031   0.000000
     87         12.493113   0.000000
     88         12.493113   0.000000
 
  0.1666667E+00  0.1276756E-14  0.1276756E-14  0.2777778E-01
      1        -48.310865   1.000000
      2        -48.310264   1.000000
      3        -48.261074   1.000000
      4        -48.260598   1.000000
      5        -48.253512   1.000000
      6        -48.253054   1.000000
      7        -48.205576   1.000000
      8        -48.205131   1.000000
      9        -24.735860   1.000000
     10        -24.733289   1.000000
     11        -24.722055   1.000000
     12        -24.709576   1.000000
     13        -24.707031   1.000000
     14        -24.705024   1.000000
     15        -24.677887   1.000000
     16        -24.676407   1.000000
     17        -24.668390   1.000000
     18        -24.660579   1.000000
     19        -24.655516   1.000000
     20        -24.648152   1.000000
     21        -24.644211   1.000000
     22        -24.642870   1.000000
     23        -24.613154   1.000000
     24        -24.602405   1.000000
     25        -24.301578   1.000000
     26        -24.300877   1.000000
     27        -24.266383   1.000000
     28        -24.265846   1.000000
     29        -24.258214   1.000000
     30        -24.257596   1.000000
     31        -24.230420   1.000000
     32        -24.229786   1.000000
     33         -0.571956   1.000000
     34          0.870931   1.000000
     35          2.495258   1.000000
     36          2.996451   1.000000
     37          3.212722   1.000000
     38          3.524650   1.000000
     39          3.836894   1.000000
     40          3.932457   1.000000
     41          5.024414   1.000000
     42          5.168397   1.000000
     43          5.447483   1.000000
     44          5.730232   1.000000
     45          5.887739   1.000000
     46          5.927153   1.000000
     47          6.025721   1.000000
     48          6.199233   1.000000
     49          6.575070   1.000000
     50          6.706945   1.000000
     51          6.709593   1.000000
     52          6.792349   1.000000
     53          7.054589   1.000000
     54          7.335492   1.000000
     55          7.533997   1.000000
     56          7.727678   1.000000
     57          7.858649   1.000000
     58          7.868023   1.000000
     59          7.928443   1.000000
     60          7.970172   0.999999
     61          7.980426   0.999999
     62          8.223048   0.898589
     63          8.228922   0.883070
     64          8.891560   0.000000
     65          9.022234   0.000000
     66          9.685702   0.000000
     67          9.747551   0.000000
     68          9.781595   0.000000
     69          9.832900   0.000000
     70         10.131815   0.000000
     71         10.142481   0.000000
     72         10.184838   0.000000
     73         10.233026   0.000000
     74         10.383954   0.000000
     75         10.455308   0.000000
     76         10.490788   0.000000
     77         10.531702   0.000000
     78         10.545220   0.000000
     79         10.562607   0.000000
     80         10.622319   0.000000
     81         10.797532   0.000000
     82         10.807213   0.000000
     83         11.367394   0.000000
     84         11.467816   0.000000
     85         11.490687   0.000000
     86         12.132061   0.000000
     87         12.241393   0.000000
     88         12.241480   0.000000
 
  0.3333333E+00  0.1276756E-14  0.1276756E-14  0.2777778E-01
      1        -48.300390   1.000000
      2        -48.299820   1.000000
      3        -48.271650   1.000000
      4        -48.271150   1.000000
      5        -48.243430   1.000000
      6        -48.242980   1.000000
      7        -48.215753   1.000000
      8        -48.215306   1.000000
      9        -24.723664   1.000000
     10        -24.721340   1.000000
     11        -24.710754   1.000000
     12        -24.694601   1.000000
     13        -24.690185   1.000000
     14        -24.688486   1.000000
     15        -24.679794   1.000000
     16        -24.666031   1.000000
     17        -24.650612   1.000000
     18        -24.638519   1.000000
     19        -24.625024   1.000000
     20        -24.623201   1.000000
     21        -24.622824   1.000000
     22        -24.612099   1.000000
     23        -24.564065   1.000000
     24        -24.562857   1.000000
     25        -24.389491   1.000000
     26        -24.388377   1.000000
     27        -24.341266   1.000000
     28        -24.340474   1.000000
     29        -24.258801   1.000000
     30        -24.258258   1.000000
     31        -24.238043   1.000000
     32        -24.237453   1.000000
     33         -0.167093   1.000000
     34          1.168271   1.000000
     35          1.388072   1.000000
     36          2.288210   1.000000
     37          3.654145   1.000000
     38          3.854523   1.000000
     39          4.057282   1.000000
     40          4.326558   1.000000
     41          4.740874   1.000000
     42          5.053578   1.000000
     43          5.220172   1.000000
     44          5.580106   1.000000
     45          5.792502   1.000000
     46          5.920356   1.000000
     47          6.101974   1.000000
     48          6.483398   1.000000
     49          6.765661   1.000000
     50          6.866384   1.000000
     51          6.915444   1.000000
     52          6.929086   1.000000
     53          6.955412   1.000000
     54          7.572004   1.000000
     55          7.617171   1.000000
     56          7.649068   1.000000
     57          7.700390   1.000000
     58          7.913804   1.000000
     59          7.941622   1.000000
     60          8.155432   0.987119
     61          8.181096   0.969038
     62          8.560591   0.000233
     63          8.635774   0.000003
     64          9.088781   0.000000
     65          9.173380   0.000000
     66          9.211695   0.000000
     67          9.402714   0.000000
     68          9.594373   0.000000
     69          9.757944   0.000000
     70          9.878735   0.000000
     71         10.023516   0.000000
     72         10.227258   0.000000
     73         10.308490   0.000000
     74         10.373699   0.000000
     75         10.426636   0.000000
     76         10.434866   0.000000
     77         10.469614   0.000000
     78         10.494897   0.000000
     79         10.553542   0.000000
     80         10.591276   0.000000
     81         10.730558   0.000000
     82         11.032165   0.000000
     83         11.134678   0.000000
     84         11.174007   0.000000
     85         11.411070   0.000000
     86         11.691623   0.000000
     87         11.760535   0.000000
     88         12.117481   0.000000
 
  0.5000000E+00  0.1276756E-14  0.1276756E-14  0.1388889E-01
      1        -48.286049   1.000000
      2        -48.286049   1.000000
      3        -48.285506   1.000000
      4        -48.285506   1.000000
      5        -48.229619   1.000000
      6        -48.229619   1.000000
      7        -48.229164   1.000000
      8        -48.229164   1.000000
      9        -24.706957   1.000000
     10        -24.706957   1.000000
     11        -24.704943   1.000000
     12        -24.704943   1.000000
     13        -24.695291   1.000000
     14        -24.695291   1.000000
     15        -24.680342   1.000000
     16        -24.680342   1.000000
     17        -24.636925   1.000000
     18        -24.636925   1.000000
     19        -24.625335   1.000000
     20        -24.625335   1.000000
     21        -24.508117   1.000000
     22        -24.508117   1.000000
     23        -24.506402   1.000000
     24        -24.506402   1.000000
     25        -24.453385   1.000000
     26        -24.453385   1.000000
     27        -24.452380   1.000000
     28        -24.452380   1.000000
     29        -24.248456   1.000000
     30        -24.248456   1.000000
     31        -24.247862   1.000000
     32        -24.247862   1.000000
     33          0.492583   1.000000
     34          0.492583   1.000000
     35          1.650401   1.000000
     36          1.650401   1.000000
     37          4.343711   1.000000
     38          4.343711   1.000000
     39          4.381611   1.000000
     40          4.381611   1.000000
     41          4.382842   1.000000
     42          4.382842   1.000000
     43          4.956972   1.000000
     44          4.956972   1.000000
     45          5.756659   1.000000
     46          5.756659   1.000000
     47          6.416455   1.000000
     48          6.416455   1.000000
     49          7.170815   1.000000
     50          7.170815   1.000000
     51          7.223912   1.000000
     52          7.223912   1.000000
     53          7.262640   1.000000
     54          7.262640   1.000000
     55          7.503655   1.000000
     56          7.503655   1.000000
     57          8.069759   0.999711
     58          8.069759   0.999711
     59          8.110221   0.997942
     60          8.110221   0.997942
     61          8.628592   0.000004
     62          8.628592   0.000004
     63          8.884379   0.000000
     64          8.884379   0.000000
     65          9.086829   0.000000
     66          9.086829   0.000000
     67          9.161991   0.000000
     68          9.161991   0.000000
     69          9.393117   0.000000
     70          9.393117   0.000000
     71         10.067738   0.000000
     72         10.067738   0.000000
     73         10.346386   0.000000
     74         10.346386   0.000000
     75         10.378734   0.000000
     76         10.378734   0.000000
     77         10.641000   0.000000
     78         10.641000   0.000000
     79         10.732488   0.000000
     80         10.732488   0.000000
     81         10.782132   0.000000
     82         10.782132   0.000000
     83         11.101135   0.000000
     84         11.101135   0.000000
     85         11.619481   0.000000
     86         11.619481   0.000000
     87         11.960663   0.000000
     88         11.960665   0.000000
 
  0.1666667E+00  0.1666667E+00  0.1276756E-14  0.2777778E-01
      1        -48.307051   1.000000
      2        -48.306452   1.000000
      3        -48.257382   1.000000
      4        -48.257382   1.000000
      5        -48.256913   1.000000
      6        -48.256913   1.000000
      7        -48.209322   1.000000
      8        -48.208870   1.000000
      9        -24.717952   1.000000
     10        -24.705243   1.000000
     11        -24.705243   1.000000
     12        -24.702774   1.000000
     13        -24.702774   1.000000
     14        -24.701239   1.000000
     15        -24.664718   1.000000
     16        -24.664718   1.000000
     17        -24.651988   1.000000
     18        -24.651988   1.000000
     19        -24.650375   1.000000
     20        -24.648864   1.000000
     21        -24.646882   1.000000
     22        -24.645540   1.000000
     23        -24.616864   1.000000
     24        -24.605976   1.000000
     25        -24.300543   1.000000
     26        -24.299743   1.000000
     27        -24.296840   1.000000
     28        -24.296215   1.000000
     29        -24.261130   1.000000
     30        -24.261130   1.000000
     31        -24.260475   1.000000
     32        -24.260475   1.000000
     33         -0.436170   1.000000
     34          0.971382   1.000000
     35          2.610516   1.000000
     36          2.610516   1.000000
     37          3.102737   1.000000
     38          3.102737   1.000000
     39          3.362639   1.000000
     40          4.736192   1.000000
     41          5.251104   1.000000
     42          5.261057   1.000000
     43          5.261057   1.000000
     44          5.943984   1.000000
     45          5.975998   1.000000
     46          5.975998   1.000000
     47          6.254543   1.000000
     48          6.264710   1.000000
     49          6.264710   1.000000
     50          6.677845   1.000000
     51          6.682579   1.000000
     52          6.780348   1.000000
     53          6.780348   1.000000
     54          7.589818   1.000000
     55          7.785462   1.000000
     56          7.806184   1.000000
     57          7.923465   1.000000
     58          7.923465   1.000000
     59          7.941936   1.000000
     60          7.952107   1.000000
     61          8.103951   0.998451
     62          8.103951   0.998451
     63          8.252723   0.803412
     64          9.072740   0.000000
     65          9.186735   0.000000
     66          9.705227   0.000000
     67          9.705227   0.000000
     68          9.722042   0.000000
     69          9.904265   0.000000
     70          9.904265   0.000000
     71         10.022161   0.000000
     72         10.270601   0.000000
     73         10.270601   0.000000
     74         10.286363   0.000000
     75         10.314709   0.000000
     76         10.418931   0.000000
     77         10.418931   0.000000
     78         10.498419   0.000000
     79         10.498419   0.000000
     80         10.609229   0.000000
     81         10.906608   0.000000
     82         10.966659   0.000000
     83         11.159176   0.000000
     84         11.320841   0.000000
     85         11.359195   0.000000
     86         11.481504   0.000000
     87         12.214151   0.000000
     88         12.263621   0.000000
 
  0.3333333E+00  0.1666667E+00  0.1276756E-14  0.5555556E-01
      1        -48.296603   1.000000
      2        -48.296033   1.000000
      3        -48.267931   1.000000
      4        -48.267435   1.000000
      5        -48.247275   1.000000
      6        -48.246811   1.000000
      7        -48.219527   1.000000
      8        -48.219071   1.000000
      9        -24.706743   1.000000
     10        -24.693351   1.000000
     11        -24.691108   1.000000
     12        -24.690879   1.000000
     13        -24.676026   1.000000
     14        -24.662445   1.000000
     15        -24.660743   1.000000
     16        -24.659095   1.000000
     17        -24.654651   1.000000
     18        -24.642308   1.000000
     19        -24.627020   1.000000
     20        -24.620996   1.000000
     21        -24.618861   1.000000
     22        -24.615739   1.000000
     23        -24.568081   1.000000
     24        -24.566810   1.000000
     25        -24.386393   1.000000
     26        -24.385260   1.000000
     27        -24.344489   1.000000
     28        -24.343660   1.000000
     29        -24.290676   1.000000
     30        -24.289976   1.000000
     31        -24.269066   1.000000
     32        -24.268412   1.000000
     33         -0.033790   1.000000
     34          1.269143   1.000000
     35          1.511349   1.000000
     36          2.391104   1.000000
     37          2.945970   1.000000
     38          3.415837   1.000000
     39          3.796777   1.000000
     40          4.114966   1.000000
     41          4.558600   1.000000
     42          5.323557   1.000000
     43          5.524501   1.000000
     44          6.091631   1.000000
     45          6.104396   1.000000
     46          6.338509   1.000000
     47          6.339509   1.000000
     48          6.344479   1.000000
     49          6.555108   1.000000
     50          6.961538   1.000000
     51          6.978727   1.000000
     52          6.991061   1.000000
     53          6.991535   1.000000
     54          7.560562   1.000000
     55          7.670277   1.000000
     56          7.692108   1.000000
     57          7.819085   1.000000
     58          8.007284   0.999992
     59          8.148350   0.990095
     60          8.239499   0.851037
     61          8.258091   0.781703
     62          8.423361   0.059462
     63          8.540331   0.000656
     64          9.060880   0.000000
     65          9.218746   0.000000
     66          9.463116   0.000000
     67          9.530896   0.000000
     68          9.611904   0.000000
     69          9.718891   0.000000
     70          9.798041   0.000000
     71          9.965084   0.000000
     72         10.071199   0.000000
     73         10.190421   0.000000
     74         10.210475   0.000000
     75         10.260022   0.000000
     76         10.326708   0.000000
     77         10.352099   0.000000
     78         10.358554   0.000000
     79         10.370266   0.000000
     80         10.375270   0.000000
     81         10.484844   0.000000
     82         10.962633   0.000000
     83         11.027171   0.000000
     84         11.081847   0.000000
     85         11.471853   0.000000
     86         11.683157   0.000000
     87         11.790706   0.000000
     88         12.039750   0.000000
 
  0.5000000E+00  0.1666667E+00  0.1276756E-14  0.2777778E-01
      1        -48.282292   1.000000
      2        -48.282292   1.000000
      3        -48.281759   1.000000
      4        -48.281759   1.000000
      5        -48.233424   1.000000
      6        -48.233424   1.000000
      7        -48.232961   1.000000
      8        -48.232961   1.000000
      9        -24.691396   1.000000
     10        -24.691396   1.000000
     11        -24.677070   1.000000
     12        -24.677070   1.000000
     13        -24.676691   1.000000
     14        -24.676691   1.000000
     15        -24.675123   1.000000
     16        -24.675123   1.000000
     17        -24.640841   1.000000
     18        -24.640841   1.000000
     19        -24.629037   1.000000
     20        -24.629037   1.000000
     21        -24.504513   1.000000
     22        -24.504513   1.000000
     23        -24.502862   1.000000
     24        -24.502862   1.000000
     25        -24.457017   1.000000
     26        -24.457017   1.000000
     27        -24.455948   1.000000
     28        -24.455948   1.000000
     29        -24.279893   1.000000
     30        -24.279893   1.000000
     31        -24.279229   1.000000
     32        -24.279229   1.000000
     33          0.621740   1.000000
     34          0.621740   1.000000
     35          1.751996   1.000000
     36          1.751996   1.000000
     37          3.469377   1.000000
     38          3.469377   1.000000
     39          3.915817   1.000000
     40          3.915817   1.000000
     41          4.471809   1.000000
     42          4.471809   1.000000
     43          5.913862   1.000000
     44          5.913862   1.000000
     45          6.255646   1.000000
     46          6.255646   1.000000
     47          6.262492   1.000000
     48          6.262492   1.000000
     49          7.223982   1.000000
     50          7.223982   1.000000
     51          7.262403   1.000000
     52          7.262403   1.000000
     53          7.309802   1.000000
     54          7.309802   1.000000
     55          7.626792   1.000000
     56          7.626792   1.000000
     57          8.079158   0.999531
     58          8.079158   0.999531
     59          8.220905   0.903857
     60          8.220905   0.903857
     61          8.466182   0.015198
     62          8.466182   0.015198
     63          8.965896   0.000000
     64          8.965896   0.000000
     65          9.054036   0.000000
     66          9.054036   0.000000
     67          9.388315   0.000000
     68          9.388315   0.000000
     69          9.429633   0.000000
     70          9.429633   0.000000
     71          9.980588   0.000000
     72          9.980588   0.000000
     73         10.216403   0.000000
     74         10.216403   0.000000
     75         10.226985   0.000000
     76         10.226985   0.000000
     77         10.268575   0.000000
     78         10.268575   0.000000
     79         10.568381   0.000000
     80         10.568381   0.000000
     81         10.640075   0.000000
     82         10.640075   0.000000
     83         10.769476   0.000000
     84         10.769476   0.000000
     85         12.018502   0.000000
     86         12.018514   0.000000
     87         12.071985   0.000000
     88         12.071985   0.000000
 
  0.3333333E+00  0.3333333E+00  0.1276756E-14  0.2777778E-01
      1        -48.286231   1.000000
      2        -48.285678   1.000000
      3        -48.257751   1.000000
      4        -48.257751   1.000000
      5        -48.257265   1.000000
      6        -48.257265   1.000000
      7        -48.229807   1.000000
      8        -48.229342   1.000000
      9        -24.695766   1.000000
     10        -24.680663   1.000000
     11        -24.665707   1.000000
     12        -24.665707   1.000000
     13        -24.652610   1.000000
     14        -24.652610   1.000000
     15        -24.637412   1.000000
     16        -24.625652   1.000000
     17        -24.609966   1.000000
     18        -24.609966   1.000000
     19        -24.608011   1.000000
     20        -24.608011   1.000000
     21        -24.584702   1.000000
     22        -24.582997   1.000000
     23        -24.574061   1.000000
     24        -24.572880   1.000000
     25        -24.382984   1.000000
     26        -24.381636   1.000000
     27        -24.371996   1.000000
     28        -24.371197   1.000000
     29        -24.353244   1.000000
     30        -24.353244   1.000000
     31        -24.352384   1.000000
     32        -24.352384   1.000000
     33          0.361054   1.000000
     34          1.568125   1.000000
     35          1.874504   1.000000
     36          1.874504   1.000000
     37          2.695243   1.000000
     38          2.695243   1.000000
     39          3.228758   1.000000
     40          3.830184   1.000000
     41          4.205696   1.000000
     42          5.580837   1.000000
     43          5.580837   1.000000
     44          6.029699   1.000000
     45          6.739891   1.000000
     46          6.739891   1.000000
     47          6.823164   1.000000
     48          6.889546   1.000000
     49          7.062234   1.000000
     50          7.062234   1.000000
     51          7.156301   1.000000
     52          7.156301   1.000000
     53          7.192549   1.000000
     54          7.500825   1.000000
     55          7.618754   1.000000
     56          7.862044   1.000000
     57          8.097495   0.998853
     58          8.097495   0.998853
     59          8.138162   0.993320
     60          8.256450   0.788482
     61          8.579256   0.000084
     62          8.579256   0.000084
     63          8.639725   0.000002
     64          8.777189   0.000000
     65          9.348885   0.000000
     66          9.642451   0.000000
     67          9.642451   0.000000
     68          9.658576   0.000000
     69          9.658576   0.000000
     70          9.760642   0.000000
     71          9.798378   0.000000
     72          9.809841   0.000000
     73          9.870873   0.000000
     74          9.885567   0.000000
     75          9.885567   0.000000
     76          9.970491   0.000000
     77         10.106261   0.000000
     78         10.168059   0.000000
     79         10.168059   0.000000
     80         10.267613   0.000000
     81         10.267613   0.000000
     82         10.349141   0.000000
     83         10.568040   0.000000
     84         10.666620   0.000000
     85         11.791594   0.000000
     86         11.843044   0.000000
     87         11.843044   0.000000
     88         12.116628   0.000000
 
  0.5000000E+00  0.3333333E+00  0.1276756E-14  0.2777778E-01
      1        -48.272016   1.000000
      2        -48.272016   1.000000
      3        -48.271497   1.000000
      4        -48.271497   1.000000
      5        -48.243803   1.000000
      6        -48.243803   1.000000
      7        -48.243323   1.000000
      8        -48.243323   1.000000
      9        -24.680754   1.000000
     10        -24.680754   1.000000
     11        -24.666661   1.000000
     12        -24.666661   1.000000
     13        -24.651569   1.000000
     14        -24.651569   1.000000
     15        -24.639148   1.000000
     16        -24.639148   1.000000
     17        -24.594939   1.000000
     18        -24.594939   1.000000
     19        -24.593206   1.000000
     20        -24.593206   1.000000
     21        -24.494777   1.000000
     22        -24.494777   1.000000
     23        -24.493237   1.000000
     24        -24.493237   1.000000
     25        -24.466823   1.000000
     26        -24.466823   1.000000
     27        -24.465665   1.000000
     28        -24.465665   1.000000
     29        -24.365138   1.000000
     30        -24.365138   1.000000
     31        -24.364194   1.000000
     32        -24.364194   1.000000
     33          1.003772   1.000000
     34          1.003772   1.000000
     35          2.052880   1.000000
     36          2.052880   1.000000
     37          2.458236   1.000000
     38          2.458236   1.000000
     39          3.185497   1.000000
     40          3.185497   1.000000
     41          4.827679   1.000000
     42          4.827679   1.000000
     43          5.856714   1.000000
     44          5.856714   1.000000
     45          6.936521   1.000000
     46          6.936521   1.000000
     47          7.055341   1.000000
     48          7.055341   1.000000
     49          7.347902   1.000000
     50          7.347902   1.000000
     51          7.355424   1.000000
     52          7.355424   1.000000
     53          7.403923   1.000000
     54          7.403923   1.000000
     55          7.924706   1.000000
     56          7.924706   1.000000
     57          8.029636   0.999969
     58          8.029636   0.999969
     59          8.237757   0.856683
     60          8.237757   0.856683
     61          8.539277   0.000690
     62          8.539277   0.000690
     63          9.034037   0.000000
     64          9.034037   0.000000
     65          9.146097   0.000000
     66          9.146097   0.000000
     67          9.528383   0.000000
     68          9.528383   0.000000
     69          9.634559   0.000000
     70          9.634559   0.000000
     71          9.736527   0.000000
     72          9.736527   0.000000
     73          9.754650   0.000000
     74          9.754650   0.000000
     75          9.955757   0.000000
     76          9.955757   0.000000
     77         10.026909   0.000000
     78         10.026909   0.000000
     79         10.205819   0.000000
     80         10.205819   0.000000
     81         10.234197   0.000000
     82         10.234197   0.000000
     83         10.302951   0.000000
     84         10.302951   0.000000
     85         11.823612   0.000000
     86         11.823612   0.000000