       N       E                     dE             d eps       ncg     rms          rms(c)
DAV:   1     0.101422348820E+04    0.10142E+04   -0.61790E+04  5280   0.149E+03
DAV:   2    -0.102367175074E+02   -0.10245E+04   -0.10177E+04  5280   0.403E+02
DAV:   3    -0.107792158154E+03   -0.97555E+02   -0.96929E+02 10560   0.103E+02
DAV:   4    -0.111756351244E+03   -0.39642E+01   -0.39611E+01  5324   0.205E+01
DAV:   5    -0.112001217060E+03   -0.24487E+00   -0.24484E+00  9240   0.403E+00    0.273E+01
DAV:   6    -0.100501477798E+03    0.11500E+02   -0.12851E+02  8140   0.386E+01    0.946E+00
DAV:   7    -0.992845907270E+02    0.12169E+01   -0.13316E+01  6028   0.121E+01    0.530E+00
DAV:   8    -0.991896612903E+02    0.94929E-01   -0.15076E+00  6600   0.485E+00    0.158E+00
DAV:   9    -0.991732884458E+02    0.16373E-01   -0.31261E-01  7392   0.243E+00    0.612E-01
DAV:  10    -0.991752186641E+02   -0.19302E-02   -0.11823E-02  6864   0.438E-01    0.181E-01
DAV:  11    -0.991750156444E+02    0.20302E-03   -0.49691E-03  7832   0.265E-01    0.135E-01
DAV:  12    -0.991750559919E+02   -0.40347E-04   -0.37288E-04  6556   0.710E-02    0.258E-02
DAV:  13    -0.991750547932E+02    0.11988E-05   -0.90640E-06  6116   0.115E-02
   1 F= -.99175055E+02 E0= -.99143213E+02  d E =-.991751E+02
       N       E                     dE             d eps       ncg     rms          rms(c)
DAV:   1    -0.991768457519E+02   -0.17898E-02   -0.49552E-02  6468   0.132E+00    0.302E-01
DAV:   2    -0.991755670592E+02    0.12787E-02   -0.12269E-02  6864   0.428E-01    0.119E-01
DAV:   3    -0.991753174154E+02    0.24964E-03   -0.14155E-03  7524   0.121E-01    0.583E-02
DAV:   4    -0.991752740215E+02    0.43394E-04   -0.25524E-04  8448   0.541E-02    0.221E-02
DAV:   5    -0.991752771881E+02   -0.31666E-05   -0.10607E-05  5852   0.110E-02
   2 F= -.99175277E+02 E0= -.99143520E+02  d E =-.222395E-03
       N       E                     dE             d eps       ncg     rms          rms(c)
DAV:   1    -0.991762381891E+02   -0.96417E-03   -0.38376E-02  6160   0.117E+00    0.215E-01
DAV:   2    -0.991755671582E+02    0.67103E-03   -0.39139E-03  6072   0.237E-01    0.103E-01
DAV:   3    -0.991753978792E+02    0.16928E-03   -0.56010E-04  6908   0.931E-02    0.460E-02
DAV:   4    -0.991753637860E+02    0.34093E-04   -0.10454E-04  8272   0.383E-02    0.936E-03
DAV:   5    -0.991753642262E+02   -0.44013E-06   -0.88563E-06  4840   0.122E-02
   3 F= -.99175364E+02 E0= -.99143668E+02  d E =-.870380E-04
