 vasp.6.5.0 16Dec24 (build Apr 17 2025 17:55:45) complex                        
  
 executed on             LinuxIFC date 2025.06.03  18:38:55
 running   44 mpi-ranks, on    1 nodes
 distrk:  each k-point on   44 cores,    1 groups
 distr:  one band on NCORE=   1 cores,   44 groups


--------------------------------------------------------------------------------------------------------


 INCAR:
   SYSTEM = CaNi2
   ISTART = 0
   ICHARG = 2
   PREC = N
   LREAL = .FALSE.
   ENCUT = 520
   ALGO = N
   NELM = 500
   EDIFF = 1E-05
   IBRION = 1
   ISIF = 3
   NSW = 300
   EDIFFG = -0.01
   ISMEAR = 0
   SIGMA = 0.1

 POTCAR:    PAW_PBE Ti_sv 26Sep2005               
 POTCAR:    PAW_PBE Al 04Jan2001                  
 -----------------------------------------------------------------------------
|                                                                             |
|           W    W    AA    RRRRR   N    N  II  N    N   GGGG   !!!           |
|           W    W   A  A   R    R  NN   N  II  NN   N  G    G  !!!           |
|           W    W  A    A  R    R  N N  N  II  N N  N  G       !!!           |
|           W WW W  AAAAAA  RRRRR   N  N N  II  N  N N  G  GGG   !            |
|           WW  WW  A    A  R   R   N   NN  II  N   NN  G    G                |
|           W    W  A    A  R    R  N    N  II  N    N   GGGG   !!!           |
|                                                                             |
|     For optimal performance we recommend to set                             |
|       NCORE = 2 up to number-of-cores-per-socket                            |
|     NCORE specifies how many cores store one orbital (NPAR=cpu/NCORE).      |
|     This setting can greatly improve the performance of VASP for DFT.       |
|     The default, NCORE=1 might be grossly inefficient on modern             |
|     multi-core architectures or massively parallel machines. Do your        |
|     own testing! More info at https://www.vasp.at/wiki/index.php/NCORE      |
|     Unfortunately you need to use the default for GW and RPA                |
|     calculations (for HF NCORE is supported but not extensively tested      |
|     yet).                                                                   |
|                                                                             |
 -----------------------------------------------------------------------------

 POTCAR:    PAW_PBE Ti_sv 26Sep2005               
   SHA256 =  4d747badb5a5ea28d858fbac70885b3f8929d6fd9e5b0dbe1ecb9878dc164da1 Ti_sv/POTCAR          
   COPYR  = (c) Copyright 26Sep2005 Georg Kresse                                                    
   COPYR  = This file is part of the software VASP. Any use, copying, and all other rights are regul
   COPYR  = If you do not have a valid VASP license, you may not use, copy or distribute this file. 
   VRHFIN =Ti: 3p4s3d                                                                               
   LEXCH  = PE                                                                                      
   EATOM  =  1588.0892 eV,  116.7213 Ry                                                             
                                                                                                    
   TITEL  = PAW_PBE Ti_sv 26Sep2005                                                                 
   LULTRA =        F    use ultrasoft PP ?                                                          
   IUNSCR =        1    unscreen: 0-lin 1-nonlin 2-no                                               
   RPACOR =    2.000    partial core radius                                                         
   POMASS =   47.880; ZVAL   =   12.000    mass and valenz                                          
   RCORE  =    2.300    outmost cutoff radius                                                       
   RWIGS  =    2.300; RWIGS  =    1.217    wigner-seitz radius (au A)                               
   ENMAX  =  274.610; ENMIN  =  205.957 eV                                                          
   ICORE  =        3    local potential                                                             
   LCOR   =        T    correct aug charges                                                         
   LPAW   =        T    paw PP                                                                      
   EAUG   =  482.848                                                                                
   RMAX   =    2.348    core radius for proj-oper                                                   
   RAUG   =    1.300    factor for augmentation sphere                                              
   RDEP   =    2.381    radius for radial grids                                                     
   RDEPT  =    1.930    core radius for aug-charge                                                  
                                                                                                    
   Atomic configuration                                                                             
    8 entries                                                                                       
     n  l   j            E        occ.                                                              
     1  0  0.50     -4865.3608   2.0000                                                             
     2  0  0.50      -533.1368   2.0000                                                             
     2  1  1.50      -440.5031   6.0000                                                             
     3  0  0.50       -59.3186   2.0000                                                             
     4  0  0.50        -3.7291   1.0000                                                             
     3  1  1.50       -35.7012   6.0000                                                             
     3  2  2.50        -1.9157   3.0000                                                             
     4  3  2.50        -1.3606   0.0000                                                             
   Description                                                                                      
     l       E           TYP  RCUT    TYP  RCUT                                                     
     0    -59.3185931     23  1.800                                                                 
     0     -3.7290822     23  2.300                                                                 
     1    -35.7012045     23  2.300                                                                 
     1     -1.3605826     23  2.300                                                                 
     2     -1.9156920     23  2.300                                                                 
     2     -0.0236318     23  2.300                                                                 
     3     -1.3605826     23  2.300                                                                 
  local pseudopotential read in
  partial core-charges read in
  partial kinetic energy density read in
  atomic valenz-charges read in
  non local Contribution for L=           0  read in
    real space projection operators read in
  non local Contribution for L=           0  read in
    real space projection operators read in
  non local Contribution for L=           1  read in
    real space projection operators read in
  non local Contribution for L=           1  read in
    real space projection operators read in
  non local Contribution for L=           2  read in
    real space projection operators read in
  non local Contribution for L=           2  read in
    real space projection operators read in
    PAW grid and wavefunctions read in
 
   number of l-projection  operators is LMAX  =           6
   number of lm-projection operators is LMMAX =          18
 
 POTCAR:    PAW_PBE Al 04Jan2001                  
   SHA256 =  17880443556af62b473fe41b62a467bd001ad55d2cabe504a3f22e34d4e9db96 Al/POTCAR             
   COPYR  = (c) Copyright 04Jan2001 Georg Kresse                                                    
   COPYR  = This file is part of the software VASP. Any use, copying, and all other rights are regul
   COPYR  = If you do not have a valid VASP license, you may not use, copy or distribute this file. 
   VRHFIN =Al: s2p1                                                                                 
   LEXCH  = PE                                                                                      
   EATOM  =    53.5387 eV,    3.9350 Ry                                                             
                                                                                                    
   TITEL  = PAW_PBE Al 04Jan2001                                                                    
   LULTRA =        F    use ultrasoft PP ?                                                          
   IUNSCR =        1    unscreen: 0-lin 1-nonlin 2-no                                               
   RPACOR =    1.500    partial core radius                                                         
   POMASS =   26.981; ZVAL   =    3.000    mass and valenz                                          
   RCORE  =    1.900    outmost cutoff radius                                                       
   RWIGS  =    2.650; RWIGS  =    1.402    wigner-seitz radius (au A)                               
   ENMAX  =  240.300; ENMIN  =  180.225 eV                                                          
   ICORE  =        2    local potential                                                             
   LCOR   =        T    correct aug charges                                                         
   LPAW   =        T    paw PP                                                                      
   EAUG   =  291.052                                                                                
   DEXC   =    0.000                                                                                
   RMAX   =    1.939    core radius for proj-oper                                                   
   RAUG   =    1.300    factor for augmentation sphere                                              
   RDEP   =    1.966    radius for radial grids                                                     
   RDEPT  =    1.856    core radius for aug-charge                                                  
                                                                                                    
   Atomic configuration                                                                             
    6 entries                                                                                       
     n  l   j            E        occ.                                                              
     1  0  0.50     -1511.1048   2.0000                                                             
     2  0  0.50      -108.1629   2.0000                                                             
     2  1  1.50       -69.6402   6.0000                                                             
     3  0  0.50        -7.7528   2.0000                                                             
     3  1  1.50        -2.7121   1.0000                                                             
     3  2  2.50        -2.7212   0.0000                                                             
   Description                                                                                      
     l       E           TYP  RCUT    TYP  RCUT                                                     
     0     -7.7528455     23  1.900                                                                 
     0     -3.3096929     23  1.900                                                                 
     1     -2.7120682     23  1.900                                                                 
     1     13.6058260     23  1.900                                                                 
     2     -2.7211652      7  1.900                                                                 
  local pseudopotential read in
  partial core-charges read in
  partial kinetic energy density read in
  atomic valenz-charges read in
  non local Contribution for L=           0  read in
    real space projection operators read in
  non local Contribution for L=           0  read in
    real space projection operators read in
  non local Contribution for L=           1  read in
    real space projection operators read in
  non local Contribution for L=           1  read in
    real space projection operators read in
    PAW grid and wavefunctions read in
 
   number of l-projection  operators is LMAX  =           4
   number of lm-projection operators is LMMAX =           8
 
  PAW_PBE Ti_sv 26Sep2005               :
 energy of atom  1       EATOM=-1588.0892
 kinetic energy error for atom=    0.0042 (will be added to EATOM!!)
  PAW_PBE Al 04Jan2001                  :
 energy of atom  2       EATOM=  -53.5387
 kinetic energy error for atom=    0.0002 (will be added to EATOM!!)
 
 
 POSCAR: Ti1 Al1
  positions in direct lattice
  No initial velocities read in


 exchange-correlation table for PE
   RHO(1)=    0.500       N(1)  =     2000
   RHO(2)=  100.500       N(2)  =     4000
 


--------------------------------------------------------------------------------------------------------


 ion  position               nearest neighbor table
   1  0.000  0.000  0.000-   3 2.82   5 2.82   3 2.82   5 2.82  11 2.85  12 2.85  13 2.85  14 2.85
                            15 2.85  16 2.85   9 2.85  10 2.85
   2  0.000  0.000  0.500-   4 2.82   6 2.82   4 2.82   6 2.82  11 2.85  12 2.85  13 2.85  14 2.85
                            15 2.85  16 2.85   9 2.85  10 2.85
   3  0.000  0.500  0.000-   1 2.82   7 2.82   1 2.82   7 2.82  11 2.85  12 2.85  13 2.85  14 2.85
                            15 2.85  16 2.85   9 2.85  10 2.85
   4  0.000  0.500  0.500-   2 2.82   8 2.82   2 2.82   8 2.82  11 2.85  12 2.85  13 2.85  14 2.85
                            15 2.85  16 2.85   9 2.85  10 2.85
   5  0.500  0.000  0.000-   1 2.82   7 2.82   7 2.82   1 2.82  11 2.85  12 2.85  13 2.85  14 2.85
                            15 2.85  16 2.85   9 2.85  10 2.85
   6  0.500  0.000  0.500-   2 2.82   8 2.82   8 2.82   2 2.82  11 2.85  12 2.85  13 2.85  14 2.85
                            15 2.85  16 2.85   9 2.85  10 2.85
   7  0.500  0.500  0.000-   3 2.82   5 2.82   5 2.82   3 2.82  11 2.85  12 2.85  13 2.85  14 2.85
                            15 2.85  16 2.85   9 2.85  10 2.85
   8  0.500  0.500  0.500-   4 2.82   6 2.82   6 2.82   4 2.82  11 2.85  12 2.85  13 2.85  14 2.85
                            15 2.85  16 2.85   9 2.85  10 2.85
   9  0.250  0.250  0.250-  11 2.82  13 2.82  11 2.82  13 2.82   5 2.85   6 2.85   7 2.85   8 2.85
                             1 2.85   2 2.85   3 2.85   4 2.85
  10  0.250  0.250  0.750-  12 2.82  14 2.82  12 2.82  14 2.82   5 2.85   6 2.85   7 2.85   8 2.85
                             1 2.85   2 2.85   3 2.85   4 2.85
  11  0.250  0.750  0.250-   9 2.82  15 2.82   9 2.82  15 2.82   5 2.85   6 2.85   7 2.85   8 2.85
                             1 2.85   2 2.85   3 2.85   4 2.85
  12  0.250  0.750  0.750-  10 2.82  16 2.82  10 2.82  16 2.82   5 2.85   6 2.85   7 2.85   8 2.85
                             1 2.85   2 2.85   3 2.85   4 2.85
  13  0.750  0.250  0.250-   9 2.82  15 2.82  15 2.82   9 2.82   5 2.85   6 2.85   7 2.85   8 2.85
                             1 2.85   2 2.85   3 2.85   4 2.85
  14  0.750  0.250  0.750-  10 2.82  16 2.82  16 2.82  10 2.82   5 2.85   6 2.85   7 2.85   8 2.85
                             1 2.85   2 2.85   3 2.85   4 2.85
  15  0.750  0.750  0.250-  11 2.82  13 2.82  13 2.82  11 2.82   5 2.85   6 2.85   7 2.85   8 2.85
                             1 2.85   2 2.85   3 2.85   4 2.85
  16  0.750  0.750  0.750-  12 2.82  14 2.82  14 2.82  12 2.82   5 2.85   6 2.85   7 2.85   8 2.85
                             1 2.85   2 2.85   3 2.85   4 2.85
 
  LATTYP: Found a simple tetragonal cell.
 ALAT       =     5.6476373672
 C/A-ratio  =     1.4414285973
  
  Lattice vectors:
  
 A1 = (   5.6476373672,   0.0000000000,   0.0000000000)
 A2 = (   0.0000000000,   5.6476373672,   0.0000000000)
 A3 = (   0.0000000000,   0.0000000000,   8.1406660080)


Analysis of symmetry for initial positions (statically):
=====================================================================
 Subroutine PRICEL returns following result:
 
  LATTYP: Found a simple tetragonal cell.
 ALAT       =     2.8238186836
 C/A-ratio  =     1.4414285973
  
  Lattice vectors:
  
 A1 = (   2.8238186836,   0.0000000000,   0.0000000000)
 A2 = (   0.0000000000,   2.8238186836,   0.0000000000)
 A3 = (   0.0000000000,   0.0000000000,   4.0703330040)
 
   8 primitive cells build up your supercell.
 

 Routine SETGRP: Setting up the symmetry group for a 
 simple tetragonal supercell.


 Subroutine GETGRP returns: Found 16 space group operations
 (whereof 16 operations were pure point group operations)
 out of a pool of 16 trial point group operations.


The static configuration has the point symmetry D_4h.


Analysis of symmetry for dynamics (positions and initial velocities):
=====================================================================
 Subroutine PRICEL returns following result:
 
  LATTYP: Found a simple tetragonal cell.
 ALAT       =     2.8238186836
 C/A-ratio  =     1.4414285973
  
  Lattice vectors:
  
 A1 = (   2.8238186836,   0.0000000000,   0.0000000000)
 A2 = (   0.0000000000,   2.8238186836,   0.0000000000)
 A3 = (   0.0000000000,   0.0000000000,   4.0703330040)
 
   8 primitive cells build up your supercell.
 

 Routine SETGRP: Setting up the symmetry group for a 
 simple tetragonal supercell.


 Subroutine GETGRP returns: Found 16 space group operations
 (whereof 16 operations were pure point group operations)
 out of a pool of 16 trial point group operations.


The dynamic configuration has the point symmetry D_4h.


 Subroutine INISYM returns: Found 16 space group operations
 (whereof 16 operations are pure point group operations),
 and found     8 'primitive' translations


----------------------------------------------------------------------------------------

                                     Primitive cell                                     

  volume of cell :      32.4566

  direct lattice vectors                    reciprocal lattice vectors
     2.823818684  0.000000000  0.000000000     0.354130386  0.000000000  0.000000000
     0.000000000  2.823818684  0.000000000     0.000000000  0.354130386  0.000000000
     0.000000000  0.000000000  4.070333004     0.000000000  0.000000000  0.245680144

  length of vectors
     2.823818684  2.823818684  4.070333004     0.354130386  0.354130386  0.245680144

  position of ions in fractional coordinates (direct lattice)
     0.000000000  0.000000000  0.000000000
     0.500000000  0.500000000  0.500000000

  ion indices of the primitive-cell ions
   primitive index   ion index
                 1           1
                 2           9

----------------------------------------------------------------------------------------

 
 
 KPOINTS: K-Spacing Value to Generate K-Mesh: 0.03

Automatic generation of k-mesh.
 Grid dimensions read from file:
 generate k-points for:    6    6    4

 Generating k-lattice:

  Cartesian coordinates                     Fractional coordinates (reciprocal lattice)
     0.029510865  0.000000000  0.000000000     0.166666667  0.000000000  0.000000000
     0.000000000  0.029510865  0.000000000     0.000000000  0.166666667  0.000000000
     0.000000000  0.000000000  0.030710018     0.000000000  0.000000000  0.250000000

  Length of vectors
     0.029510865  0.029510865  0.030710018

  Shift w.r.t. Gamma in fractional coordinates (k-lattice)
     0.000000000  0.000000000  0.000000000

 
 Subroutine IBZKPT returns following result:
 ===========================================
 
 Found     30 irreducible k-points:
 
 Following reciprocal coordinates:
            Coordinates               Weight
  0.000000  0.000000  0.000000      1.000000
  0.166667  0.000000  0.000000      4.000000
  0.333333  0.000000  0.000000      4.000000
  0.500000  0.000000  0.000000      2.000000
  0.166667  0.166667  0.000000      4.000000
  0.333333  0.166667  0.000000      8.000000
  0.500000  0.166667  0.000000      4.000000
  0.333333  0.333333  0.000000      4.000000
  0.500000  0.333333  0.000000      4.000000
  0.500000  0.500000  0.000000      1.000000
  0.000000  0.000000  0.250000      2.000000
  0.166667  0.000000  0.250000      8.000000
  0.333333  0.000000  0.250000      8.000000
  0.500000  0.000000  0.250000      4.000000
  0.166667  0.166667  0.250000      8.000000
  0.333333  0.166667  0.250000     16.000000
  0.500000  0.166667  0.250000      8.000000
  0.333333  0.333333  0.250000      8.000000
  0.500000  0.333333  0.250000      8.000000
  0.500000  0.500000  0.250000      2.000000
  0.000000  0.000000  0.500000      1.000000
  0.166667  0.000000  0.500000      4.000000
  0.333333  0.000000  0.500000      4.000000
  0.500000  0.000000  0.500000      2.000000
  0.166667  0.166667  0.500000      4.000000
  0.333333  0.166667  0.500000      8.000000
  0.500000  0.166667  0.500000      4.000000
  0.333333  0.333333  0.500000      4.000000
  0.500000  0.333333  0.500000      4.000000
  0.500000  0.500000  0.500000      1.000000
 
 Following cartesian coordinates:
            Coordinates               Weight
  0.000000  0.000000  0.000000      1.000000
  0.029511  0.000000  0.000000      4.000000
  0.059022  0.000000  0.000000      4.000000
  0.088533  0.000000  0.000000      2.000000
  0.029511  0.029511  0.000000      4.000000
  0.059022  0.029511  0.000000      8.000000
  0.088533  0.029511  0.000000      4.000000
  0.059022  0.059022  0.000000      4.000000
  0.088533  0.059022  0.000000      4.000000
  0.088533  0.088533  0.000000      1.000000
  0.000000  0.000000  0.030710      2.000000
  0.029511  0.000000  0.030710      8.000000
  0.059022  0.000000  0.030710      8.000000
  0.088533  0.000000  0.030710      4.000000
  0.029511  0.029511  0.030710      8.000000
  0.059022  0.029511  0.030710     16.000000
  0.088533  0.029511  0.030710      8.000000
  0.059022  0.059022  0.030710      8.000000
  0.088533  0.059022  0.030710      8.000000
  0.088533  0.088533  0.030710      2.000000
  0.000000  0.000000  0.061420      1.000000
  0.029511  0.000000  0.061420      4.000000
  0.059022  0.000000  0.061420      4.000000
  0.088533  0.000000  0.061420      2.000000
  0.029511  0.029511  0.061420      4.000000
  0.059022  0.029511  0.061420      8.000000
  0.088533  0.029511  0.061420      4.000000
  0.059022  0.059022  0.061420      4.000000
  0.088533  0.059022  0.061420      4.000000
  0.088533  0.088533  0.061420      1.000000
 


--------------------------------------------------------------------------------------------------------




 Dimension of arrays:
   k-points           NKPTS =     30   k-points in BZ     NKDIM =     30   number of bands    NBANDS=     88
   number of dos      NEDOS =    301   number of ions     NIONS =     16
   non local maximal  LDIM  =      6   non local SUM 2l+1 LMDIM =     18
   total plane-waves  NPLWV =  49152
   max r-space proj   IRMAX =      1   max aug-charges    IRDMAX=   7566
   dimension x,y,z NGX =    32 NGY =   32 NGZ =   48
   dimension x,y,z NGXF=    64 NGYF=   64 NGZF=   96
   support grid    NGXF=    64 NGYF=   64 NGZF=   96
   ions per type =               8   8
   NGX,Y,Z   is equivalent  to a cutoff of   9.42,  9.42,  9.80 a.u.
   NGXF,Y,Z  is equivalent  to a cutoff of  18.84, 18.84, 19.60 a.u.

 SYSTEM =  CaNi2                                   
 POSCAR =  Ti1 Al1                                 

 Startparameter for this run:
   NWRITE =      2    write-flag & timer
   PREC   = n         normal or accurate (medium, high low for compatibility)
   ISTART =      0    job   : 0-new  1-cont  2-samecut
   ICHARG =      2    charge: 1-file 2-atom 10-const
   ISPIN  =      1    spin polarized calculation?
   LNONCOLLINEAR =      F non collinear calculations
   LSORBIT =      F    spin-orbit coupling
   INIWAV =      1    electr: 0-lowe 1-rand  2-diag
   LASPH  =      F    aspherical Exc in radial PAW
 Electronic Relaxation 1
   ENCUT  =  520.0 eV  38.22 Ry    6.18 a.u.  10.50 10.50 15.14*2*pi/ulx,y,z
   ENINI  =  520.0     initial cutoff
   ENAUG  =  482.8 eV  augmentation charge cutoff
   NELM   =    500;   NELMIN=  2; NELMDL= -5     # of ELM steps 
   EDIFF  = 0.1E-04   stopping-criterion for ELM
   LREAL  =      F    real-space projection
   NLSPLINE    = F    spline interpolate recip. space projectors
   LCOMPAT=      F    compatible to vasp.4.4
   GGA_COMPAT  = T    GGA compatible to vasp.4.4-vasp.4.6
   LMAXPAW     = -100 max onsite density
   LMAXMIX     =    2 max onsite mixed and CHGCAR
   VOSKOWN=      0    Vosko Wilk Nusair interpolation
   ROPT   =    0.00000   0.00000
 Ionic relaxation
   EDIFFG = -.1E-01   stopping-criterion for IOM
   NSW    =    300    number of steps for IOM
   NBLOCK =      1;   KBLOCK =    300    inner block; outer block 
   IBRION =      1    ionic relax: 0-MD 1-quasi-New 2-CG
   NFREE  =      0    steps in history (QN), initial steepest desc. (CG)
   ISIF   =      3    stress and relaxation
   IWAVPR =     11    prediction:  0-non 1-charg 2-wave 3-comb
   ISYM   =      2    0-nonsym 1-usesym 2-fastsym
   LCORR  =      T    Harris-Foulkes like correction to forces

   POTIM  = 0.5000    time-step for ionic-motion
   TEIN   =    0.0    initial temperature
   TEBEG  =    0.0;   TEEND  =   0.0 temperature during run
   SMASS  =  -3.00    Nose mass-parameter (am)
   estimated Nose-frequenzy (Omega)   =  0.10E-29 period in steps = 0.13E+47 mass=  -0.729E-27a.u.
   SCALEE = 1.0000    scale energy and forces
   NPACO  =    256;   APACO  = 10.0  distance and # of slots for P.C.
   PSTRESS=    0.0 pullay stress

  Mass of Ions in am
   POMASS =  47.88 26.98
  Ionic Valenz
   ZVAL   =  12.00  3.00
  Atomic Wigner-Seitz radii
   RWIGS  =  -1.00 -1.00
  virtual crystal weights 
   VCA    =   1.00  1.00
   NELECT =     120.0000    total number of electrons
   NUPDOWN=      -1.0000    fix difference up-down

 DOS related values:
   EMIN   =  10.00;   EMAX   =-10.00  energy-range for DOS
   EFERMI =   0.00;   METHOD = LEGACY      
   ISMEAR =     0;   SIGMA  =   0.10  broadening in eV -4-tet -1-fermi 0-gaus
   EFERMI_NEDOS =   21; number of points for ismear=-14 and -15

 Electronic relaxation 2 (details)
   IALGO  =     38    algorithm
   LDIAG  =      T    sub-space diagonalisation (order eigenvalues)
   LSUBROT=      F    optimize rotation matrix (better conditioning)
   TURBO    =      0    0=normal 1=particle mesh
   IRESTART =      0    0=no restart 2=restart with 2 vectors
   NREBOOT  =      0    no. of reboots
   NMIN     =      0    reboot dimension
   EREF     =   0.00    reference energy to select bands
   IMIX   =      4    mixing-type and parameters
     AMIX     =   0.40;   BMIX     =  1.00
     AMIX_MAG =   1.60;   BMIX_MAG =  1.00
     AMIN     =   0.10
     WC   =   100.;   INIMIX=   1;  MIXPRE=   1;  MAXMIX= -45

 Intra band minimization:
   WEIMIN = 0.0010     energy-eigenvalue tresh-hold
   EBREAK =  0.28E-07  absolut break condition
   DEPER  =   0.30     relativ break condition  

   TIME   =   0.40     timestep for ELM

  volume/ion in A,a.u.               =      16.23       109.51
  Fermi-wavevector in a.u.,A,eV,Ry     =   1.265719  2.391863 21.797150  1.602045
  Thomas-Fermi vector in A             =   2.398958
 
 Write flags
   LWAVE        =      T    write WAVECAR
   LDOWNSAMPLE  =      F    k-point downsampling of WAVECAR
   LCHARG       =      T    write CHGCAR
   LVTOT        =      F    write LOCPOT, total local potential
   LVHAR        =      F    write LOCPOT, Hartree potential only
   WRT_POTENTIAL= false  ! write potential to hdf5 file
   LELF         =      F    write electronic localiz. function (ELF)
   LORBIT       =      0    0 simple, 1 ext, 2 COOP (PROOUT), +10 PAW based schemes


 Python interface
   PLUGINS active      =      F    recompile with -DPLUGINS to activate
 
 Dipole corrections
   LMONO      =      F    monopole corrections only (constant potential shift)
   LDIPOL     =      F    correct potential (dipole corrections)
   IDIPOL     =      0    1-x, 2-y, 3-z, 4-all directions 
   EPSILON    =  1.0000000 bulk dielectric constant
   LVACPOTAV  =      F  vacuum potentials using an averaging scheme for the charge density
   VACPOTFLAT =  0.1000000 required flatness to determine vacuum potential
 
Coulomb truncation method
  LTRUNCATE          =      F  Coulomb kernel truncation to be used
  IDIMENSIONALITY    =      3  Dimensionality of cutoff (0 molecules / 2 surfaces)
  ISURFACE           =     -1  Direction of surface normal
  LCOARSEN           =      F  Coarsen the charge grid before padding, preferred

 
 Exchange correlation treatment:
   GGA     = PE    functional components
   XC_C    = 1    coefficients multiplying the functional components
   LIBXC   =     F    Libxc                    
   VOSKOWN =     0    Vosko Wilk Nusair interpolation
   LHFCALC =     F    Hartree Fock is set to
   LHFONE  =     F    Hartree Fock one center treatment
   AEXX    =    0.0000 exact exchange contribution

 Parameters of functionals:
   PE:
     No parameter
 
 Van der Waals corrections
   IVDW    =     0    specifies the selected vdW correction

 Linear response parameters
   LEPSILON=     F    determine dielectric tensor
   LRPA    =     F    only Hartree local field effects (RPA)
   LNABLA  =     F    use nabla operator in PAW spheres
   LVEL    =     F    velocity operator in full k-point grid
   CSHIFT  =0.1000    complex shift for real part using Kramers Kronig
   OMEGAMAX=  -1.0    maximum frequency
   DEG_THRESHOLD= 0.2000000E-02 threshold for treating states as degnerate
   RTIME   =   -0.100 relaxation time in fs
  (WPLASMAI=    0.000 imaginary part of plasma frequency in eV, 0.658/RTIME)
   DFIELD  = 0.0000000 0.0000000 0.0000000 field for delta impulse in time
 
  Optional k-point grid parameters
   LKPOINTS_OPT  =     F    use optional k-point grid
   KPOINTS_OPT_MODE=     1    mode for optional k-point grid
 
 Orbital magnetization related:
   ORBITALMAG=     F  switch on orbital magnetization
   LCHIMAG   =     F  perturbation theory with respect to B field
   DQ        =  0.001000  dq finite difference perturbation B field
   LLRAUG    =     F  two centre corrections for induced B field
   LBONE     =     F  B-component reconstruction in AE one-centre
   LVGVCALC  =     T  calculate vGv susceptibility
   LVGVAPPL  =     F  apply vGv susceptibility instead of pGv for G=0

 Random number generation:
   RANDOM_GENERATOR = DEFAULT
   PCG_SEED         = not used


--------------------------------------------------------------------------------------------------------


 quasi-Newton-method for relaxation of ions
 charge density and potential will be updated during run
 non-spin polarized calculation
 Variant of blocked Davidson
 Davidson routine will perform the subspace rotation
 perform sub-space diagonalisation
    after iterative eigenvector-optimisation
 modified Broyden-mixing scheme, WC =      100.0
 initial mixing is a Kerker type mixing with AMIX =  0.4000 and BMIX =      1.0000
 Hartree-type preconditioning will be used
 using additional bands           28
 reciprocal scheme for non local part
 use partial core corrections
 calculate Harris-corrections to forces 
   (improved forces if not selfconsistent)
 use gradient corrections 
 use of overlap-Matrix (Vanderbilt PP)
 Gauss-broadening in eV      SIGMA  =   0.10


--------------------------------------------------------------------------------------------------------


  energy-cutoff  :      520.00
  volume of cell :      259.65
      direct lattice vectors                 reciprocal lattice vectors
     5.647637367  0.000000000  0.000000000     0.177065193  0.000000000  0.000000000
     0.000000000  5.647637367  0.000000000     0.000000000  0.177065193  0.000000000
     0.000000000  0.000000000  8.140666008     0.000000000  0.000000000  0.122840072

  length of vectors
     5.647637367  5.647637367  8.140666008     0.177065193  0.177065193  0.122840072


 
 k-points in units of 2pi/SCALE and weight: K-Spacing Value to Generate K-Mesh: 0.03
   0.00000000  0.00000000  0.00000000       0.007
   0.02951087  0.00000000  0.00000000       0.028
   0.05902173  0.00000000  0.00000000       0.028
   0.08853260  0.00000000  0.00000000       0.014
   0.02951087  0.02951087  0.00000000       0.028
   0.05902173  0.02951087  0.00000000       0.056
   0.08853260  0.02951087  0.00000000       0.028
   0.05902173  0.05902173  0.00000000       0.028
   0.08853260  0.05902173  0.00000000       0.028
   0.08853260  0.08853260  0.00000000       0.007
   0.00000000  0.00000000  0.03071002       0.014
   0.02951087  0.00000000  0.03071002       0.056
   0.05902173  0.00000000  0.03071002       0.056
   0.08853260  0.00000000  0.03071002       0.028
   0.02951087  0.02951087  0.03071002       0.056
   0.05902173  0.02951087  0.03071002       0.111
   0.08853260  0.02951087  0.03071002       0.056
   0.05902173  0.05902173  0.03071002       0.056
   0.08853260  0.05902173  0.03071002       0.056
   0.08853260  0.08853260  0.03071002       0.014
   0.00000000  0.00000000  0.06142004       0.007
   0.02951087  0.00000000  0.06142004       0.028
   0.05902173  0.00000000  0.06142004       0.028
   0.08853260  0.00000000  0.06142004       0.014
   0.02951087  0.02951087  0.06142004       0.028
   0.05902173  0.02951087  0.06142004       0.056
   0.08853260  0.02951087  0.06142004       0.028
   0.05902173  0.05902173  0.06142004       0.028
   0.08853260  0.05902173  0.06142004       0.028
   0.08853260  0.08853260  0.06142004       0.007
 
 k-points in reciprocal lattice and weights: K-Spacing Value to Generate K-Mesh: 0.03
   0.00000000  0.00000000  0.00000000       0.007
   0.16666667  0.00000000  0.00000000       0.028
   0.33333333  0.00000000  0.00000000       0.028
   0.50000000  0.00000000  0.00000000       0.014
   0.16666667  0.16666667  0.00000000       0.028
   0.33333333  0.16666667  0.00000000       0.056
   0.50000000  0.16666667  0.00000000       0.028
   0.33333333  0.33333333  0.00000000       0.028
   0.50000000  0.33333333  0.00000000       0.028
   0.50000000  0.50000000  0.00000000       0.007
   0.00000000  0.00000000  0.25000000       0.014
   0.16666667  0.00000000  0.25000000       0.056
   0.33333333  0.00000000  0.25000000       0.056
   0.50000000  0.00000000  0.25000000       0.028
   0.16666667  0.16666667  0.25000000       0.056
   0.33333333  0.16666667  0.25000000       0.111
   0.50000000  0.16666667  0.25000000       0.056
   0.33333333  0.33333333  0.25000000       0.056
   0.50000000  0.33333333  0.25000000       0.056
   0.50000000  0.50000000  0.25000000       0.014
   0.00000000  0.00000000  0.50000000       0.007
   0.16666667  0.00000000  0.50000000       0.028
   0.33333333  0.00000000  0.50000000       0.028
   0.50000000  0.00000000  0.50000000       0.014
   0.16666667  0.16666667  0.50000000       0.028
   0.33333333  0.16666667  0.50000000       0.056
   0.50000000  0.16666667  0.50000000       0.028
   0.33333333  0.33333333  0.50000000       0.028
   0.50000000  0.33333333  0.50000000       0.028
   0.50000000  0.50000000  0.50000000       0.007
 
 position of ions in fractional coordinates (direct lattice) 
   0.00000000  0.00000000  0.00000000
   0.00000000  0.00000000  0.50000000
   0.00000000  0.50000000  0.00000000
   0.00000000  0.50000000  0.50000000
   0.50000000  0.00000000  0.00000000
   0.50000000  0.00000000  0.50000000
   0.50000000  0.50000000  0.00000000
   0.50000000  0.50000000  0.50000000
   0.25000000  0.25000000  0.25000000
   0.25000000  0.25000000  0.75000000
   0.25000000  0.75000000  0.25000000
   0.25000000  0.75000000  0.75000000
   0.75000000  0.25000000  0.25000000
   0.75000000  0.25000000  0.75000000
   0.75000000  0.75000000  0.25000000
   0.75000000  0.75000000  0.75000000
 
 position of ions in cartesian coordinates  (Angst):
   0.00000000  0.00000000  0.00000000
   0.00000000  0.00000000  4.07033300
   0.00000000  2.82381868  0.00000000
   0.00000000  2.82381868  4.07033300
   2.82381868  0.00000000  0.00000000
   2.82381868  0.00000000  4.07033300
   2.82381868  2.82381868  0.00000000
   2.82381868  2.82381868  4.07033300
   1.41190934  1.41190934  2.03516650
   1.41190934  1.41190934  6.10549951
   1.41190934  4.23572803  2.03516650
   1.41190934  4.23572803  6.10549951
   4.23572803  1.41190934  2.03516650
   4.23572803  1.41190934  6.10549951
   4.23572803  4.23572803  2.03516650
   4.23572803  4.23572803  6.10549951
 


--------------------------------------------------------------------------------------------------------


 k-point     1 :   0.0000 0.0000 0.0000  plane waves:    6979
 k-point     2 :   0.1667 0.0000 0.0000  plane waves:    6995
 k-point     3 :   0.3333 0.0000 0.0000  plane waves:    6993
 k-point     4 :   0.5000 0.0000 0.0000  plane waves:    6982
 k-point     5 :   0.1667 0.1667 0.0000  plane waves:    7013
 k-point     6 :   0.3333 0.1667 0.0000  plane waves:    7002
 k-point     7 :   0.5000 0.1667 0.0000  plane waves:    6962
 k-point     8 :   0.3333 0.3333 0.0000  plane waves:    6989
 k-point     9 :   0.5000 0.3333 0.0000  plane waves:    6958
 k-point    10 :   0.5000 0.5000 0.0000  plane waves:    6948
 k-point    11 :   0.0000 0.0000 0.2500  plane waves:    6998
 k-point    12 :   0.1667 0.0000 0.2500  plane waves:    7005
 k-point    13 :   0.3333 0.0000 0.2500  plane waves:    6994
 k-point    14 :   0.5000 0.0000 0.2500  plane waves:    7006
 k-point    15 :   0.1667 0.1667 0.2500  plane waves:    6995
 k-point    16 :   0.3333 0.1667 0.2500  plane waves:    6991
 k-point    17 :   0.5000 0.1667 0.2500  plane waves:    6998
 k-point    18 :   0.3333 0.3333 0.2500  plane waves:    6994
 k-point    19 :   0.5000 0.3333 0.2500  plane waves:    6958
 k-point    20 :   0.5000 0.5000 0.2500  plane waves:    6956
 k-point    21 :   0.0000 0.0000 0.5000  plane waves:    7022
 k-point    22 :   0.1667 0.0000 0.5000  plane waves:    7006
 k-point    23 :   0.3333 0.0000 0.5000  plane waves:    6990
 k-point    24 :   0.5000 0.0000 0.5000  plane waves:    6992
 k-point    25 :   0.1667 0.1667 0.5000  plane waves:    6986
 k-point    26 :   0.3333 0.1667 0.5000  plane waves:    7000
 k-point    27 :   0.5000 0.1667 0.5000  plane waves:    6992
 k-point    28 :   0.3333 0.3333 0.5000  plane waves:    7014
 k-point    29 :   0.5000 0.3333 0.5000  plane waves:    7004
 k-point    30 :   0.5000 0.5000 0.5000  plane waves:    6944

 maximum and minimum number of plane-waves per node :      7022     6944

 maximum number of plane-waves:      7022
 maximum index in each direction: 
   IXMAX=   10   IYMAX=   10   IZMAX=   15
   IXMIN=  -11   IYMIN=  -10   IZMIN=  -15


 serial   3D FFT for wavefunctions
 parallel 3D FFT for charge:
    minimum data exchange during FFTs selected (reduces bandwidth)


 total amount of memory used by VASP MPI-rank0   103122. kBytes
=======================================================================

   base                                    :      30000. kBytes
   nonl-proj                               :      62627. kBytes
   fftplans                                :        598. kBytes
   grid                                    :       2680. kBytes
   one-center                              :        248. kBytes
   wavefun                                 :       6969. kBytes
 
     INWAV:  cpu time      0.0000: real time      0.0000
 Broyden mixing: mesh for mixing (old mesh)
   NGX = 21   NGY = 21   NGZ = 31
  (NGX  = 64   NGY  = 64   NGZ  = 96)
  gives a total of  13671 points

 initial charge density was supplied:
 charge density of overlapping atoms calculated
 number of electron     120.0000000 magnetization 
 keeping initial charge density in first step


--------------------------------------------------------------------------------------------------------


 Maximum index for augmentation-charges          455 (set IRDMAX)


--------------------------------------------------------------------------------------------------------


 First call to EWALD:  gamma=   0.278
 Maximum number of real-space cells   3x   3x   2
 Maximum number of reciprocal cells   2x   2x   3

    FEWALD:  cpu time      0.0011: real time      0.0011


--------------------------------------- Ionic step        1  -------------------------------------------




--------------------------------------- Iteration      1(   1)  ---------------------------------------


    POTLOK:  cpu time      0.0095: real time      0.0095
    SETDIJ:  cpu time      0.0017: real time      0.0017
     EDDAV:  cpu time      2.3075: real time      2.3077
       DOS:  cpu time      0.0008: real time      0.0008
    --------------------------------------------
      LOOP:  cpu time      2.3196: real time      2.3198

 eigenvalue-minimisations  :  5280
 total energy-change (2. order) : 0.1014223E+04  (-0.6178991E+04)
 number of electron     120.0000000 magnetization 
 augmentation part      120.0000000 magnetization 

 Free energy of the ion-electron system (eV)
  ---------------------------------------------------
  alpha Z        PSCENC =       302.18003763
  Ewald energy   TEWEN  =     -8679.62284710
  -Hartree energ DENC   =     -4150.53264423
  -exchange      EXHF   =         0.00000000
  -V(xc)+E(xc)   XCENC  =       287.24270372
  PAW double counting   =     10646.12278294   -10233.80738393
  entropy T*S    EENTRO =        -0.02663915
  eigenvalues    EBANDS =      -290.32007682
  atomic energy  EATOM  =     13132.98755513
  Solvation  Ediel_sol  =         0.00000000
  ---------------------------------------------------
  free energy    TOTEN  =      1014.22348820 eV

  energy without entropy =     1014.25012735  energy(sigma->0) =     1014.23680777


--------------------------------------------------------------------------------------------------------




--------------------------------------- Iteration      1(   2)  ---------------------------------------


     EDDAV:  cpu time      2.2909: real time      2.2912
       DOS:  cpu time      0.0008: real time      0.0008
    --------------------------------------------
      LOOP:  cpu time      2.2917: real time      2.2920

 eigenvalue-minimisations  :  5280
 total energy-change (2. order) :-0.1024460E+04  (-0.1017678E+04)
 number of electron     120.0000000 magnetization 
 augmentation part      120.0000000 magnetization 

 Free energy of the ion-electron system (eV)
  ---------------------------------------------------
  alpha Z        PSCENC =       302.18003763
  Ewald energy   TEWEN  =     -8679.62284710
  -Hartree energ DENC   =     -4150.53264423
  -exchange      EXHF   =         0.00000000
  -V(xc)+E(xc)   XCENC  =       287.24270372
  PAW double counting   =     10646.12278294   -10233.80738393
  entropy T*S    EENTRO =        -0.06008985
  eigenvalues    EBANDS =     -1314.74683183
  atomic energy  EATOM  =     13132.98755513
  Solvation  Ediel_sol  =         0.00000000
  ---------------------------------------------------
  free energy    TOTEN  =       -10.23671751 eV

  energy without entropy =      -10.17662766  energy(sigma->0) =      -10.20667258


--------------------------------------------------------------------------------------------------------




--------------------------------------- Iteration      1(   3)  ---------------------------------------


     EDDAV:  cpu time      5.5738: real time      5.5741
       DOS:  cpu time      0.0009: real time      0.0008
    --------------------------------------------
      LOOP:  cpu time      5.5747: real time      5.5749

 eigenvalue-minimisations  : 10560
 total energy-change (2. order) :-0.9755544E+02  (-0.9692875E+02)
 number of electron     120.0000000 magnetization 
 augmentation part      120.0000000 magnetization 

 Free energy of the ion-electron system (eV)
  ---------------------------------------------------
  alpha Z        PSCENC =       302.18003763
  Ewald energy   TEWEN  =     -8679.62284710
  -Hartree energ DENC   =     -4150.53264423
  -exchange      EXHF   =         0.00000000
  -V(xc)+E(xc)   XCENC  =       287.24270372
  PAW double counting   =     10646.12278294   -10233.80738393
  entropy T*S    EENTRO =        -0.08644529
  eigenvalues    EBANDS =     -1412.27591704
  atomic energy  EATOM  =     13132.98755513
  Solvation  Ediel_sol  =         0.00000000
  ---------------------------------------------------
  free energy    TOTEN  =      -107.79215815 eV

  energy without entropy =     -107.70571287  energy(sigma->0) =     -107.74893551


--------------------------------------------------------------------------------------------------------




--------------------------------------- Iteration      1(   4)  ---------------------------------------


     EDDAV:  cpu time      2.2963: real time      2.2963
       DOS:  cpu time      0.0008: real time      0.0008
    --------------------------------------------
      LOOP:  cpu time      2.2971: real time      2.2971

 eigenvalue-minimisations  :  5324
 total energy-change (2. order) :-0.3964193E+01  (-0.3961098E+01)
 number of electron     120.0000000 magnetization 
 augmentation part      120.0000000 magnetization 

 Free energy of the ion-electron system (eV)
  ---------------------------------------------------
  alpha Z        PSCENC =       302.18003763
  Ewald energy   TEWEN  =     -8679.62284710
  -Hartree energ DENC   =     -4150.53264423
  -exchange      EXHF   =         0.00000000
  -V(xc)+E(xc)   XCENC  =       287.24270372
  PAW double counting   =     10646.12278294   -10233.80738393
  entropy T*S    EENTRO =        -0.08144376
  eigenvalues    EBANDS =     -1416.24511166
  atomic energy  EATOM  =     13132.98755513
  Solvation  Ediel_sol  =         0.00000000
  ---------------------------------------------------
  free energy    TOTEN  =      -111.75635124 eV

  energy without entropy =     -111.67490749  energy(sigma->0) =     -111.71562937


--------------------------------------------------------------------------------------------------------




--------------------------------------- Iteration      1(   5)  ---------------------------------------


     EDDAV:  cpu time      4.5717: real time      4.5719
       DOS:  cpu time      0.0008: real time      0.0008
    CHARGE:  cpu time      0.0396: real time      0.0396
    MIXING:  cpu time      0.0003: real time      0.0003
    --------------------------------------------
      LOOP:  cpu time      4.6123: real time      4.6125

 eigenvalue-minimisations  :  9240
 total energy-change (2. order) :-0.2448658E+00  (-0.2448433E+00)
 number of electron     119.9999822 magnetization 
 augmentation part       26.9219995 magnetization 

 Broyden mixing:
  rms(total) = 0.27266E+01    rms(broyden)= 0.27265E+01
  rms(prec ) = 0.37422E+01
  weight for this iteration     100.00

 Free energy of the ion-electron system (eV)
  ---------------------------------------------------
  alpha Z        PSCENC =       302.18003763
  Ewald energy   TEWEN  =     -8679.62284710
  -Hartree energ DENC   =     -4150.53264423
  -exchange      EXHF   =         0.00000000
  -V(xc)+E(xc)   XCENC  =       287.24270372
  PAW double counting   =     10646.12278294   -10233.80738393
  entropy T*S    EENTRO =        -0.08118994
  eigenvalues    EBANDS =     -1416.49023129
  atomic energy  EATOM  =     13132.98755513
  Solvation  Ediel_sol  =         0.00000000
  ---------------------------------------------------
  free energy    TOTEN  =      -112.00121706 eV

  energy without entropy =     -111.92002712  energy(sigma->0) =     -111.96062209


--------------------------------------------------------------------------------------------------------




--------------------------------------- Iteration      1(   6)  ---------------------------------------


    POTLOK:  cpu time      0.0107: real time      0.0107
    SETDIJ:  cpu time      0.0014: real time      0.0014
     EDDAV:  cpu time      3.9032: real time      3.9033
       DOS:  cpu time      0.0008: real time      0.0008
    CHARGE:  cpu time      0.0389: real time      0.0389
    MIXING:  cpu time      0.0004: real time      0.0004
    --------------------------------------------
      LOOP:  cpu time      3.9554: real time      3.9555

 eigenvalue-minimisations  :  8140
 total energy-change (2. order) : 0.1149974E+02  (-0.1285075E+02)
 number of electron     119.9999772 magnetization 
 augmentation part       31.0309063 magnetization 

 Broyden mixing:
  rms(total) = 0.94559E+00    rms(broyden)= 0.94553E+00
  rms(prec ) = 0.14157E+01
  weight for this iteration     100.00

 eigenvalues of (default mixing * dielectric matrix)
  average eigenvalue GAMMA=   0.8559
  0.8559

 Free energy of the ion-electron system (eV)
  ---------------------------------------------------
  alpha Z        PSCENC =       302.18003763
  Ewald energy   TEWEN  =     -8679.62284710
  -Hartree energ DENC   =     -3858.55727532
  -exchange      EXHF   =         0.00000000
  -V(xc)+E(xc)   XCENC  =       275.94754723
  PAW double counting   =     11552.02577875   -11141.53507638
  entropy T*S    EENTRO =        -0.08808202
  eigenvalues    EBANDS =     -1683.83911573
  atomic energy  EATOM  =     13132.98755513
  Solvation  Ediel_sol  =         0.00000000
  ---------------------------------------------------
  free energy    TOTEN  =      -100.50147780 eV

  energy without entropy =     -100.41339578  energy(sigma->0) =     -100.45743679


--------------------------------------------------------------------------------------------------------




--------------------------------------- Iteration      1(   7)  ---------------------------------------


    POTLOK:  cpu time      0.0107: real time      0.0107
    SETDIJ:  cpu time      0.0014: real time      0.0014
     EDDAV:  cpu time      2.6331: real time      2.6332
       DOS:  cpu time      0.0008: real time      0.0008
    CHARGE:  cpu time      0.0387: real time      0.0387
    MIXING:  cpu time      0.0004: real time      0.0004
    --------------------------------------------
      LOOP:  cpu time      2.6851: real time      2.6852

 eigenvalue-minimisations  :  6028
 total energy-change (2. order) : 0.1216887E+01  (-0.1331576E+01)
 number of electron     119.9999791 magnetization 
 augmentation part       29.4353428 magnetization 

 Broyden mixing:
  rms(total) = 0.52961E+00    rms(broyden)= 0.52960E+00
  rms(prec ) = 0.62453E+00
  weight for this iteration     100.00

 eigenvalues of (default mixing * dielectric matrix)
  average eigenvalue GAMMA=   1.5207
  0.7409  2.3006

 Free energy of the ion-electron system (eV)
  ---------------------------------------------------
  alpha Z        PSCENC =       302.18003763
  Ewald energy   TEWEN  =     -8679.62284710
  -Hartree energ DENC   =     -3933.30608038
  -exchange      EXHF   =         0.00000000
  -V(xc)+E(xc)   XCENC  =       278.76501682
  PAW double counting   =     12148.64464359   -11731.38993544
  entropy T*S    EENTRO =        -0.06087425
  eigenvalues    EBANDS =     -1617.48210674
  atomic energy  EATOM  =     13132.98755513
  Solvation  Ediel_sol  =         0.00000000
  ---------------------------------------------------
  free energy    TOTEN  =       -99.28459073 eV

  energy without entropy =      -99.22371648  energy(sigma->0) =      -99.25415360


--------------------------------------------------------------------------------------------------------




--------------------------------------- Iteration      1(   8)  ---------------------------------------


    POTLOK:  cpu time      0.0107: real time      0.0107
    SETDIJ:  cpu time      0.0015: real time      0.0015
     EDDAV:  cpu time      3.0174: real time      3.0176
       DOS:  cpu time      0.0008: real time      0.0008
    CHARGE:  cpu time      0.0390: real time      0.0390
    MIXING:  cpu time      0.0004: real time      0.0004
    --------------------------------------------
      LOOP:  cpu time      3.0697: real time      3.0699

 eigenvalue-minimisations  :  6600
 total energy-change (2. order) : 0.9492944E-01  (-0.1507627E+00)
 number of electron     119.9999792 magnetization 
 augmentation part       29.7491769 magnetization 

 Broyden mixing:
  rms(total) = 0.15757E+00    rms(broyden)= 0.15756E+00
  rms(prec ) = 0.20209E+00
  weight for this iteration     100.00

 eigenvalues of (default mixing * dielectric matrix)
  average eigenvalue GAMMA=   1.4019
  0.6999  1.4920  2.0137

 Free energy of the ion-electron system (eV)
  ---------------------------------------------------
  alpha Z        PSCENC =       302.18003763
  Ewald energy   TEWEN  =     -8679.62284710
  -Hartree energ DENC   =     -3915.94460455
  -exchange      EXHF   =         0.00000000
  -V(xc)+E(xc)   XCENC  =       278.29106247
  PAW double counting   =     13301.02964744   -12869.92831599
  entropy T*S    EENTRO =        -0.06567203
  eigenvalues    EBANDS =     -1648.11652429
  atomic energy  EATOM  =     13132.98755513
  Solvation  Ediel_sol  =         0.00000000
  ---------------------------------------------------
  free energy    TOTEN  =       -99.18966129 eV

  energy without entropy =      -99.12398926  energy(sigma->0) =      -99.15682528


--------------------------------------------------------------------------------------------------------




--------------------------------------- Iteration      1(   9)  ---------------------------------------


    POTLOK:  cpu time      0.0106: real time      0.0106
    SETDIJ:  cpu time      0.0014: real time      0.0014
     EDDAV:  cpu time      3.4176: real time      3.4180
       DOS:  cpu time      0.0008: real time      0.0008
    CHARGE:  cpu time      0.0385: real time      0.0385
    MIXING:  cpu time      0.0004: real time      0.0004
    --------------------------------------------
      LOOP:  cpu time      3.4695: real time      3.4698

 eigenvalue-minimisations  :  7392
 total energy-change (2. order) : 0.1637284E-01  (-0.3126087E-01)
 number of electron     119.9999793 magnetization 
 augmentation part       29.4209439 magnetization 

 Broyden mixing:
  rms(total) = 0.61229E-01    rms(broyden)= 0.61220E-01
  rms(prec ) = 0.74995E-01
  weight for this iteration     100.00

 eigenvalues of (default mixing * dielectric matrix)
  average eigenvalue GAMMA=   1.5060
  2.4887  1.9882  0.6869  0.8604

 Free energy of the ion-electron system (eV)
  ---------------------------------------------------
  alpha Z        PSCENC =       302.18003763
  Ewald energy   TEWEN  =     -8679.62284710
  -Hartree energ DENC   =     -3930.36958911
  -exchange      EXHF   =         0.00000000
  -V(xc)+E(xc)   XCENC  =       278.99694546
  PAW double counting   =     13221.09539900   -12788.24305897
  entropy T*S    EENTRO =        -0.06388265
  eigenvalues    EBANDS =     -1636.13384784
  atomic energy  EATOM  =     13132.98755513
  Solvation  Ediel_sol  =         0.00000000
  ---------------------------------------------------
  free energy    TOTEN  =       -99.17328845 eV

  energy without entropy =      -99.10940580  energy(sigma->0) =      -99.14134712


--------------------------------------------------------------------------------------------------------




--------------------------------------- Iteration      1(  10)  ---------------------------------------


    POTLOK:  cpu time      0.0105: real time      0.0105
    SETDIJ:  cpu time      0.0014: real time      0.0014
     EDDAV:  cpu time      3.1564: real time      3.1572
       DOS:  cpu time      0.0009: real time      0.0008
    CHARGE:  cpu time      0.0389: real time      0.0389
    MIXING:  cpu time      0.0004: real time      0.0004
    --------------------------------------------
      LOOP:  cpu time      3.2085: real time      3.2093

 eigenvalue-minimisations  :  6864
 total energy-change (2. order) :-0.1930218E-02  (-0.1182279E-02)
 number of electron     119.9999793 magnetization 
 augmentation part       29.4189005 magnetization 

 Broyden mixing:
  rms(total) = 0.18150E-01    rms(broyden)= 0.18143E-01
  rms(prec ) = 0.21501E-01
  weight for this iteration     100.00

 eigenvalues of (default mixing * dielectric matrix)
  average eigenvalue GAMMA=   1.5340
  2.5006  2.0813  0.6955  1.3967  0.9961

 Free energy of the ion-electron system (eV)
  ---------------------------------------------------
  alpha Z        PSCENC =       302.18003763
  Ewald energy   TEWEN  =     -8679.62284710
  -Hartree energ DENC   =     -3932.08453052
  -exchange      EXHF   =         0.00000000
  -V(xc)+E(xc)   XCENC  =       279.18203474
  PAW double counting   =     13283.61941045   -12847.06282238
  entropy T*S    EENTRO =        -0.06344855
  eigenvalues    EBANDS =     -1638.31060808
  atomic energy  EATOM  =     13132.98755513
  Solvation  Ediel_sol  =         0.00000000
  ---------------------------------------------------
  free energy    TOTEN  =       -99.17521866 eV

  energy without entropy =      -99.11177011  energy(sigma->0) =      -99.14349439


--------------------------------------------------------------------------------------------------------




--------------------------------------- Iteration      1(  11)  ---------------------------------------


    POTLOK:  cpu time      0.0104: real time      0.0104
    SETDIJ:  cpu time      0.0014: real time      0.0014
     EDDAV:  cpu time      3.6641: real time      3.6650
       DOS:  cpu time      0.0008: real time      0.0008
    CHARGE:  cpu time      0.0388: real time      0.0388
    MIXING:  cpu time      0.0004: real time      0.0004
    --------------------------------------------
      LOOP:  cpu time      3.7159: real time      3.7168

 eigenvalue-minimisations  :  7832
 total energy-change (2. order) : 0.2030197E-03  (-0.4969094E-03)
 number of electron     119.9999793 magnetization 
 augmentation part       29.4250844 magnetization 

 Broyden mixing:
  rms(total) = 0.13452E-01    rms(broyden)= 0.13452E-01
  rms(prec ) = 0.15905E-01
  weight for this iteration     100.00

 eigenvalues of (default mixing * dielectric matrix)
  average eigenvalue GAMMA=   1.5990
  3.0543  2.4434  1.6419  1.0279  0.7256  0.7010

 Free energy of the ion-electron system (eV)
  ---------------------------------------------------
  alpha Z        PSCENC =       302.18003763
  Ewald energy   TEWEN  =     -8679.62284710
  -Hartree energ DENC   =     -3931.53685052
  -exchange      EXHF   =         0.00000000
  -V(xc)+E(xc)   XCENC  =       279.16217102
  PAW double counting   =     13275.78897201   -12838.31628672
  entropy T*S    EENTRO =        -0.06362926
  eigenvalues    EBANDS =     -1639.75413784
  atomic energy  EATOM  =     13132.98755513
  Solvation  Ediel_sol  =         0.00000000
  ---------------------------------------------------
  free energy    TOTEN  =       -99.17501564 eV

  energy without entropy =      -99.11138638  energy(sigma->0) =      -99.14320101


--------------------------------------------------------------------------------------------------------




--------------------------------------- Iteration      1(  12)  ---------------------------------------


    POTLOK:  cpu time      0.0103: real time      0.0103
    SETDIJ:  cpu time      0.0014: real time      0.0014
     EDDAV:  cpu time      3.0807: real time      3.0808
       DOS:  cpu time      0.0008: real time      0.0008
    CHARGE:  cpu time      0.0385: real time      0.0385
    MIXING:  cpu time      0.0004: real time      0.0004
    --------------------------------------------
      LOOP:  cpu time      3.1323: real time      3.1324

 eigenvalue-minimisations  :  6556
 total energy-change (2. order) :-0.4034748E-04  (-0.3728763E-04)
 number of electron     119.9999793 magnetization 
 augmentation part       29.4169510 magnetization 

 Broyden mixing:
  rms(total) = 0.25759E-02    rms(broyden)= 0.25744E-02
  rms(prec ) = 0.29809E-02
  weight for this iteration     100.00

 eigenvalues of (default mixing * dielectric matrix)
  average eigenvalue GAMMA=   1.5336
  2.8662  2.3636  1.7096  0.6972  1.1989  1.0545  0.8451

 Free energy of the ion-electron system (eV)
  ---------------------------------------------------
  alpha Z        PSCENC =       302.18003763
  Ewald energy   TEWEN  =     -8679.62284710
  -Hartree energ DENC   =     -3932.84563141
  -exchange      EXHF   =         0.00000000
  -V(xc)+E(xc)   XCENC  =       279.22593989
  PAW double counting   =     13264.08054669   -12825.47819064
  entropy T*S    EENTRO =        -0.06367947
  eigenvalues    EBANDS =     -1639.63878671
  atomic energy  EATOM  =     13132.98755513
  Solvation  Ediel_sol  =         0.00000000
  ---------------------------------------------------
  free energy    TOTEN  =       -99.17505599 eV

  energy without entropy =      -99.11137652  energy(sigma->0) =      -99.14321626


--------------------------------------------------------------------------------------------------------




--------------------------------------- Iteration      1(  13)  ---------------------------------------


    POTLOK:  cpu time      0.0108: real time      0.0108
    SETDIJ:  cpu time      0.0014: real time      0.0014
     EDDAV:  cpu time      3.0035: real time      3.0036
       DOS:  cpu time      0.0008: real time      0.0008
    --------------------------------------------
      LOOP:  cpu time      3.0165: real time      3.0166

 eigenvalue-minimisations  :  6116
 total energy-change (2. order) : 0.1198763E-05  (-0.9064046E-06)
 number of electron     119.9999793 magnetization 
 augmentation part       29.4169510 magnetization 

 Free energy of the ion-electron system (eV)
  ---------------------------------------------------
  alpha Z        PSCENC =       302.18003763
  Ewald energy   TEWEN  =     -8679.62284710
  -Hartree energ DENC   =     -3932.84511285
  -exchange      EXHF   =         0.00000000
  -V(xc)+E(xc)   XCENC  =       279.22470682
  PAW double counting   =     13265.92712347   -12827.29236031
  entropy T*S    EENTRO =        -0.06368437
  eigenvalues    EBANDS =     -1639.67047322
  atomic energy  EATOM  =     13132.98755513
  Solvation  Ediel_sol  =         0.00000000
  ---------------------------------------------------
  free energy    TOTEN  =       -99.17505479 eV

  energy without entropy =      -99.11137042  energy(sigma->0) =      -99.14321261


--------------------------------------------------------------------------------------------------------




 average (electrostatic) potential at core
  the test charge radii are     1.0397  1.0406
  (the norm of the test charge is              1.0000)
       1 -72.3168       2 -72.3168       3 -72.3168       4 -72.3168       5 -72.3168
       6 -72.3168       7 -72.3168       8 -72.3168       9 -71.3275      10 -71.3275
      11 -71.3275      12 -71.3275      13 -71.3275      14 -71.3275      15 -71.3275
      16 -71.3275
 
 
 
 E-fermi :   8.3031     XC(G=0): -11.0351     alpha+bet :-16.2177

 val. band max:        8.2903179411   @ k =   0.5000   0.5000   0.5000
 cond. band min:       8.3312481026   @ k =   0.5000   0.3333   0.2500
 fundamental gap:      0.0409301615
 Fermi energy:         8.3031389572

 k-point     1 :       0.0000    0.0000    0.0000
  band No.  band energies     occupation 
      1     -48.3261      2.00000
      2     -48.3255      2.00000
      3     -48.2683      2.00000
      4     -48.2683      2.00000
      5     -48.2679      2.00000
      6     -48.2679      2.00000
      7     -48.2126      2.00000
      8     -48.2122      2.00000
      9     -24.7522      2.00000
     10     -24.7522      2.00000
     11     -24.7496      2.00000
     12     -24.7496      2.00000
     13     -24.7373      2.00000
     14     -24.7202      2.00000
     15     -24.6849      2.00000
     16     -24.6849      2.00000
     17     -24.6836      2.00000
     18     -24.6836      2.00000
     19     -24.6751      2.00000
     20     -24.6751      2.00000
     21     -24.6628      2.00000
     22     -24.6628      2.00000
     23     -24.6201      2.00000
     24     -24.6097      2.00000
     25     -24.2790      2.00000
     26     -24.2790      2.00000
     27     -24.2784      2.00000
     28     -24.2784      2.00000
     29     -24.2373      2.00000
     30     -24.2373      2.00000
     31     -24.2367      2.00000
     32     -24.2367      2.00000
     33      -0.7158      2.00000
     34       0.7535      2.00000
     35       3.0500      2.00000
     36       3.4077      2.00000
     37       3.4077      2.00000
     38       3.7582      2.00000
     39       3.7582      2.00000
     40       3.7943      2.00000
     41       3.7943      2.00000
     42       5.1326      2.00000
     43       5.3859      2.00000
     44       5.3859      2.00000
     45       5.8065      2.00000
     46       6.0599      2.00000
     47       6.0599      2.00000
     48       6.4500      2.00000
     49       6.6166      2.00000
     50       6.6166      2.00000
     51       7.1179      2.00000
     52       7.1179      2.00000
     53       7.1657      2.00000
     54       7.1657      2.00000
     55       7.4751      2.00000
     56       7.6427      2.00000
     57       7.8545      2.00000
     58       7.8545      2.00000
     59       7.9138      2.00000
     60       7.9543      2.00000
     61       8.0622      1.99934
     62       8.0622      1.99934
     63       8.1042      1.99510
     64       8.1042      1.99510
     65       8.9441      0.00000
     66       9.6790      0.00000
     67       9.6790      0.00000
     68      10.0424      0.00000
     69      10.0424      0.00000
     70      10.0803      0.00000
     71      10.0939      0.00000
     72      10.0939      0.00000
     73      10.1105      0.00000
     74      10.1105      0.00000
     75      10.4295      0.00000
     76      10.4613      0.00000
     77      10.4613      0.00000
     78      10.5944      0.00000
     79      10.5944      0.00000
     80      10.8156      0.00000
     81      10.8156      0.00000
     82      11.0316      0.00000
     83      11.5958      0.00000
     84      11.6090      0.00000
     85      12.0982      0.00000
     86      12.0982      0.00000
     87      12.4896      0.00000
     88      12.4896      0.00000

 k-point     2 :       0.1667    0.0000    0.0000
  band No.  band energies     occupation 
      1     -48.3223      2.00000
      2     -48.3217      2.00000
      3     -48.2722      2.00000
      4     -48.2717      2.00000
      5     -48.2646      2.00000
      6     -48.2642      2.00000
      7     -48.2164      2.00000
      8     -48.2160      2.00000
      9     -24.7477      2.00000
     10     -24.7452      2.00000
     11     -24.7331      2.00000
     12     -24.7213      2.00000
     13     -24.7188      2.00000
     14     -24.7164      2.00000
     15     -24.6895      2.00000
     16     -24.6880      2.00000
     17     -24.6793      2.00000
     18     -24.6714      2.00000
     19     -24.6667      2.00000
     20     -24.6593      2.00000
     21     -24.6556      2.00000
     22     -24.6543      2.00000
     23     -24.6238      2.00000
     24     -24.6133      2.00000
     25     -24.3115      2.00000
     26     -24.3109      2.00000
     27     -24.2762      2.00000
     28     -24.2757      2.00000
     29     -24.2680      2.00000
     30     -24.2674      2.00000
     31     -24.2401      2.00000
     32     -24.2395      2.00000
     33      -0.5790      2.00000
     34       0.8542      2.00000
     35       2.4911      2.00000
     36       2.9882      2.00000
     37       3.2022      2.00000
     38       3.5197      2.00000
     39       3.8357      2.00000
     40       3.9287      2.00000
     41       5.0253      2.00000
     42       5.1677      2.00000
     43       5.4353      2.00000
     44       5.7292      2.00000
     45       5.8822      2.00000
     46       5.9175      2.00000
     47       6.0246      2.00000
     48       6.1915      2.00000
     49       6.5611      2.00000
     50       6.6895      2.00000
     51       6.6928      2.00000
     52       6.7906      2.00000
     53       7.0497      2.00000
     54       7.3269      2.00000
     55       7.5258      2.00000
     56       7.7163      2.00000
     57       7.8350      2.00000
     58       7.8515      2.00000
     59       7.9265      2.00000
     60       7.9592      2.00000
     61       7.9681      2.00000
     62       8.2128      1.79857
     63       8.2173      1.77540
     64       8.8924      0.00000
     65       8.9968      0.00000
     66       9.6646      0.00000
     67       9.7262      0.00000
     68       9.7758      0.00000
     69       9.8312      0.00000
     70      10.1273      0.00000
     71      10.1410      0.00000
     72      10.1792      0.00000
     73      10.2269      0.00000
     74      10.3677      0.00000
     75      10.4465      0.00000
     76      10.4841      0.00000
     77      10.5277      0.00000
     78      10.5414      0.00000
     79      10.5599      0.00000
     80      10.6120      0.00000
     81      10.7908      0.00000
     82      10.7955      0.00000
     83      11.3632      0.00000
     84      11.4630      0.00000
     85      11.4853      0.00000
     86      12.1031      0.00000
     87      12.2275      0.00000
     88      12.2367      0.00000

 k-point     3 :       0.3333    0.0000    0.0000
  band No.  band energies     occupation 
      1     -48.3118      2.00000
      2     -48.3112      2.00000
      3     -48.2828      2.00000
      4     -48.2824      2.00000
      5     -48.2545      2.00000
      6     -48.2540      2.00000
      7     -48.2266      2.00000
      8     -48.2262      2.00000
      9     -24.7354      2.00000
     10     -24.7332      2.00000
     11     -24.7218      2.00000
     12     -24.7060      2.00000
     13     -24.7018      2.00000
     14     -24.7002      2.00000
     15     -24.6907      2.00000
     16     -24.6772      2.00000
     17     -24.6614      2.00000
     18     -24.6496      2.00000
     19     -24.6364      2.00000
     20     -24.6342      2.00000
     21     -24.6339      2.00000
     22     -24.6231      2.00000
     23     -24.5752      2.00000
     24     -24.5740      2.00000
     25     -24.3998      2.00000
     26     -24.3987      2.00000
     27     -24.3514      2.00000
     28     -24.3506      2.00000
     29     -24.2686      2.00000
     30     -24.2681      2.00000
     31     -24.2477      2.00000
     32     -24.2472      2.00000
     33      -0.1738      2.00000
     34       1.1525      2.00000
     35       1.3827      2.00000
     36       2.2765      2.00000
     37       3.6441      2.00000
     38       3.8501      2.00000
     39       4.0568      2.00000
     40       4.3230      2.00000
     41       4.7419      2.00000
     42       5.0511      2.00000
     43       5.2115      2.00000
     44       5.5700      2.00000
     45       5.7898      2.00000
     46       5.9167      2.00000
     47       6.0968      2.00000
     48       6.4842      2.00000
     49       6.7609      2.00000
     50       6.8540      2.00000
     51       6.8963      2.00000
     52       6.9130      2.00000
     53       6.9494      2.00000
     54       7.5449      2.00000
     55       7.6110      2.00000
     56       7.6354      2.00000
     57       7.6892      2.00000
     58       7.9030      2.00000
     59       7.9336      2.00000
     60       8.1466      1.97313
     61       8.1759      1.92797
     62       8.5491      0.00051
     63       8.6278      0.00000
     64       9.0864      0.00000
     65       9.1493      0.00000
     66       9.2045      0.00000
     67       9.4027      0.00000
     68       9.5738      0.00000
     69       9.7474      0.00000
     70       9.8586      0.00000
     71      10.0126      0.00000
     72      10.2256      0.00000
     73      10.2967      0.00000
     74      10.3693      0.00000
     75      10.4211      0.00000
     76      10.4284      0.00000
     77      10.4672      0.00000
     78      10.4828      0.00000
     79      10.5468      0.00000
     80      10.5844      0.00000
     81      10.7238      0.00000
     82      11.0148      0.00000
     83      11.1301      0.00000
     84      11.1686      0.00000
     85      11.4020      0.00000
     86      11.6852      0.00000
     87      11.7448      0.00000
     88      12.1139      0.00000

 k-point     4 :       0.5000    0.0000    0.0000
  band No.  band energies     occupation 
      1     -48.2973      2.00000
      2     -48.2973      2.00000
      3     -48.2968      2.00000
      4     -48.2968      2.00000
      5     -48.2406      2.00000
      6     -48.2406      2.00000
      7     -48.2401      2.00000
      8     -48.2401      2.00000
      9     -24.7187      2.00000
     10     -24.7187      2.00000
     11     -24.7167      2.00000
     12     -24.7167      2.00000
     13     -24.7062      2.00000
     14     -24.7062      2.00000
     15     -24.6916      2.00000
     16     -24.6916      2.00000
     17     -24.6477      2.00000
     18     -24.6477      2.00000
     19     -24.6364      2.00000
     20     -24.6364      2.00000
     21     -24.5190      2.00000
     22     -24.5190      2.00000
     23     -24.5173      2.00000
     24     -24.5173      2.00000
     25     -24.4640      2.00000
     26     -24.4640      2.00000
     27     -24.4630      2.00000
     28     -24.4630      2.00000
     29     -24.2582      2.00000
     30     -24.2582      2.00000
     31     -24.2576      2.00000
     32     -24.2576      2.00000
     33       0.4864      2.00000
     34       0.4864      2.00000
     35       1.6362      2.00000
     36       1.6362      2.00000
     37       4.3342      2.00000
     38       4.3342      2.00000
     39       4.3780      2.00000
     40       4.3780      2.00000
     41       4.3833      2.00000
     42       4.3833      2.00000
     43       4.9537      2.00000
     44       4.9537      2.00000
     45       5.7496      2.00000
     46       5.7496      2.00000
     47       6.4116      2.00000
     48       6.4116      2.00000
     49       7.1640      2.00000
     50       7.1640      2.00000
     51       7.2017      2.00000
     52       7.2017      2.00000
     53       7.2476      2.00000
     54       7.2476      2.00000
     55       7.4975      2.00000
     56       7.4975      2.00000
     57       8.0661      1.99920
     58       8.0661      1.99920
     59       8.1001      1.99591
     60       8.1001      1.99591
     61       8.6215      0.00001
     62       8.6215      0.00001
     63       8.8770      0.00000
     64       8.8770      0.00000
     65       9.0756      0.00000
     66       9.0756      0.00000
     67       9.1577      0.00000
     68       9.1577      0.00000
     69       9.3712      0.00000
     70       9.3712      0.00000
     71      10.0496      0.00000
     72      10.0496      0.00000
     73      10.3444      0.00000
     74      10.3444      0.00000
     75      10.3690      0.00000
     76      10.3690      0.00000
     77      10.6343      0.00000
     78      10.6343      0.00000
     79      10.7281      0.00000
     80      10.7281      0.00000
     81      10.7767      0.00000
     82      10.7767      0.00000
     83      11.0940      0.00000
     84      11.0940      0.00000
     85      11.5957      0.00000
     86      11.5957      0.00000
     87      11.9474      0.00000
     88      11.9474      0.00000

 k-point     5 :       0.1667    0.1667    0.0000
  band No.  band energies     occupation 
      1     -48.3185      2.00000
      2     -48.3179      2.00000
      3     -48.2685      2.00000
      4     -48.2685      2.00000
      5     -48.2680      2.00000
      6     -48.2680      2.00000
      7     -48.2202      2.00000
      8     -48.2197      2.00000
      9     -24.7290      2.00000
     10     -24.7169      2.00000
     11     -24.7169      2.00000
     12     -24.7145      2.00000
     13     -24.7145      2.00000
     14     -24.7126      2.00000
     15     -24.6756      2.00000
     16     -24.6756      2.00000
     17     -24.6631      2.00000
     18     -24.6631      2.00000
     19     -24.6618      2.00000
     20     -24.6604      2.00000
     21     -24.6583      2.00000
     22     -24.6570      2.00000
     23     -24.6275      2.00000
     24     -24.6169      2.00000
     25     -24.3105      2.00000
     26     -24.3097      2.00000
     27     -24.3068      2.00000
     28     -24.3062      2.00000
     29     -24.2709      2.00000
     30     -24.2709      2.00000
     31     -24.2703      2.00000
     32     -24.2703      2.00000
     33      -0.4431      2.00000
     34       0.9549      2.00000
     35       2.6065      2.00000
     36       2.6065      2.00000
     37       3.0947      2.00000
     38       3.0947      2.00000
     39       3.3523      2.00000
     40       4.7366      2.00000
     41       5.2479      2.00000
     42       5.2604      2.00000
     43       5.2604      2.00000
     44       5.9386      2.00000
     45       5.9671      2.00000
     46       5.9671      2.00000
     47       6.2545      2.00000
     48       6.2574      2.00000
     49       6.2574      2.00000
     50       6.6692      2.00000
     51       6.6748      2.00000
     52       6.7631      2.00000
     53       6.7631      2.00000
     54       7.5821      2.00000
     55       7.7544      2.00000
     56       7.7951      2.00000
     57       7.9164      2.00000
     58       7.9164      2.00000
     59       7.9289      2.00000
     60       7.9527      2.00000
     61       8.0937      1.99694
     62       8.0937      1.99694
     63       8.2413      1.61813
     64       9.0477      0.00000
     65       9.1859      0.00000
     66       9.6843      0.00000
     67       9.6843      0.00000
     68       9.7217      0.00000
     69       9.8986      0.00000
     70       9.8986      0.00000
     71      10.0189      0.00000
     72      10.2646      0.00000
     73      10.2646      0.00000
     74      10.2792      0.00000
     75      10.2975      0.00000
     76      10.4100      0.00000
     77      10.4100      0.00000
     78      10.4946      0.00000
     79      10.4946      0.00000
     80      10.5976      0.00000
     81      10.9011      0.00000
     82      10.9544      0.00000
     83      11.1545      0.00000
     84      11.3162      0.00000
     85      11.3539      0.00000
     86      11.4771      0.00000
     87      12.2062      0.00000
     88      12.2507      0.00000

 k-point     6 :       0.3333    0.1667    0.0000
  band No.  band energies     occupation 
      1     -48.3079      2.00000
      2     -48.3074      2.00000
      3     -48.2791      2.00000
      4     -48.2786      2.00000
      5     -48.2583      2.00000
      6     -48.2579      2.00000
      7     -48.2304      2.00000
      8     -48.2300      2.00000
      9     -24.7177      2.00000
     10     -24.7050      2.00000
     11     -24.7028      2.00000
     12     -24.7022      2.00000
     13     -24.6869      2.00000
     14     -24.6736      2.00000
     15     -24.6722      2.00000
     16     -24.6706      2.00000
     17     -24.6655      2.00000
     18     -24.6534      2.00000
     19     -24.6377      2.00000
     20     -24.6323      2.00000
     21     -24.6302      2.00000
     22     -24.6267      2.00000
     23     -24.5792      2.00000
     24     -24.5780      2.00000
     25     -24.3967      2.00000
[...]
     69       9.3034      0.00000
     70       9.3034      0.00000
     71       9.5878      0.00000
     72       9.5878      0.00000
     73      10.0839      0.00000
     74      10.0839      0.00000
     75      10.1243      0.00000
     76      10.1243      0.00000
     77      10.1243      0.00000
     78      10.1243      0.00000
     79      10.5764      0.00000
     80      10.5764      0.00000
     81      11.0427      0.00000
     82      11.0427      0.00000
     83      11.5322      0.00000
     84      11.5322      0.00000
     85      11.5322      0.00000
     86      11.5322      0.00000
     87      12.3858      0.00000
     88      12.3858      0.00000

 k-point    29 :       0.5000    0.3333    0.5000
  band No.  band energies     occupation 
      1     -48.2718      2.00000
      2     -48.2718      2.00000
      3     -48.2718      2.00000
      4     -48.2718      2.00000
      5     -48.2436      2.00000
      6     -48.2436      2.00000
      7     -48.2436      2.00000
      8     -48.2436      2.00000
      9     -24.6737      2.00000
     10     -24.6737      2.00000
     11     -24.6737      2.00000
     12     -24.6737      2.00000
     13     -24.6454      2.00000
     14     -24.6454      2.00000
     15     -24.6454      2.00000
     16     -24.6454      2.00000
     17     -24.5941      2.00000
     18     -24.5941      2.00000
     19     -24.5941      2.00000
     20     -24.5941      2.00000
     21     -24.4940      2.00000
     22     -24.4940      2.00000
     23     -24.4940      2.00000
     24     -24.4940      2.00000
     25     -24.4662      2.00000
     26     -24.4662      2.00000
     27     -24.4662      2.00000
     28     -24.4662      2.00000
     29     -24.3647      2.00000
     30     -24.3647      2.00000
     31     -24.3647      2.00000
     32     -24.3647      2.00000
     33       1.4319      2.00000
     34       1.4319      2.00000
     35       1.4319      2.00000
     36       1.4319      2.00000
     37       2.7762      2.00000
     38       2.7762      2.00000
     39       2.7762      2.00000
     40       2.7762      2.00000
     41       5.9359      2.00000
     42       5.9359      2.00000
     43       5.9359      2.00000
     44       5.9359      2.00000
     45       6.4972      2.00000
     46       6.4972      2.00000
     47       6.4972      2.00000
     48       6.4972      2.00000
     49       7.1373      2.00000
     50       7.1373      2.00000
     51       7.1373      2.00000
     52       7.1373      2.00000
     53       7.7942      2.00000
     54       7.7942      2.00000
     55       7.7942      2.00000
     56       7.7942      2.00000
     57       8.4288      0.10171
     58       8.4288      0.10171
     59       8.4288      0.10171
     60       8.4288      0.10171
     61       8.5336      0.00182
     62       8.5336      0.00182
     63       8.5336      0.00182
     64       8.5336      0.00182
     65       9.1497      0.00000
     66       9.1497      0.00000
     67       9.1497      0.00000
     68       9.1497      0.00000
     69       9.2020      0.00000
     70       9.2020      0.00000
     71       9.2020      0.00000
     72       9.2020      0.00000
     73      10.0143      0.00000
     74      10.0143      0.00000
     75      10.0143      0.00000
     76      10.0143      0.00000
     77      10.2468      0.00000
     78      10.2468      0.00000
     79      10.2468      0.00000
     80      10.2468      0.00000
     81      11.3074      0.00000
     82      11.3074      0.00000
     83      11.3074      0.00000
     84      11.3074      0.00000
     85      12.0116      0.00000
     86      12.0116      0.00000
     87      12.0116      0.00000
     88      12.0116      0.00000

 k-point    30 :       0.5000    0.5000    0.5000
  band No.  band energies     occupation 
      1     -48.2577      2.00000
      2     -48.2577      2.00000
      3     -48.2577      2.00000
      4     -48.2577      2.00000
      5     -48.2577      2.00000
      6     -48.2577      2.00000
      7     -48.2577      2.00000
      8     -48.2577      2.00000
      9     -24.6596      2.00000
     10     -24.6596      2.00000
     11     -24.6596      2.00000
     12     -24.6596      2.00000
     13     -24.6596      2.00000
     14     -24.6596      2.00000
     15     -24.6596      2.00000
     16     -24.6596      2.00000
     17     -24.4872      2.00000
     18     -24.4872      2.00000
     19     -24.4872      2.00000
     20     -24.4872      2.00000
     21     -24.4872      2.00000
     22     -24.4872      2.00000
     23     -24.4872      2.00000
     24     -24.4872      2.00000
     25     -24.4731      2.00000
     26     -24.4731      2.00000
     27     -24.4731      2.00000
     28     -24.4731      2.00000
     29     -24.4731      2.00000
     30     -24.4731      2.00000
     31     -24.4731      2.00000
     32     -24.4731      2.00000
     33       2.0075      2.00000
     34       2.0075      2.00000
     35       2.0075      2.00000
     36       2.0075      2.00000
     37       2.0075      2.00000
     38       2.0075      2.00000
     39       2.0075      2.00000
     40       2.0075      2.00000
     41       6.2446      2.00000
     42       6.2446      2.00000
     43       6.2446      2.00000
     44       6.2446      2.00000
     45       6.2446      2.00000
     46       6.2446      2.00000
     47       6.2446      2.00000
     48       6.2446      2.00000
     49       7.9180      2.00000
     50       7.9180      2.00000
     51       7.9180      2.00000
     52       7.9180      2.00000
     53       7.9180      2.00000
     54       7.9180      2.00000
     55       7.9180      2.00000
     56       7.9180      2.00000
     57       8.3004      1.14278
     58       8.3004      1.14278
     59       8.3004      1.14278
     60       8.3004      1.14278
     61       8.3004      1.14278
     62       8.3004      1.14278
     63       8.3004      1.14278
     64       8.3004      1.14278
     65       9.0515      0.00000
     66       9.0515      0.00000
     67       9.0515      0.00000
     68       9.0515      0.00000
     69       9.0515      0.00000
     70       9.0515      0.00000
     71       9.0515      0.00000
     72       9.0515      0.00000
     73       9.9848      0.00000
     74       9.9848      0.00000
     75       9.9848      0.00000
     76       9.9848      0.00000
     77       9.9848      0.00000
     78       9.9848      0.00000
     79       9.9848      0.00000
     80       9.9848      0.00000
     81      11.6928      0.00000
     82      11.6928      0.00000
     83      11.6928      0.00000
     84      11.6928      0.00000
     85      11.6928      0.00000
     86      11.6928      0.00000
     87      11.6928      0.00000
     88      11.6928      0.00000


--------------------------------------------------------------------------------------------------------


 soft charge-density along one line, spin component           1
         0         1         2         3         4         5         6         7         8         9
 total charge-density along one line
 
 pseudopotential strength for first ion, spin component:           1
 -3.782 -19.458   0.000   0.000  -0.000  -0.000  -0.000   0.000
-19.458   7.505   0.000   0.000  -0.000   0.000   0.000  -0.000
  0.000   0.000 -22.377   0.000  -0.000   7.040  -0.000   0.000
  0.000   0.000   0.000 -22.485  -0.000  -0.000   7.114   0.000
 -0.000  -0.000  -0.000  -0.000 -22.377   0.000   0.000   7.040
 -0.000   0.000   7.040  -0.000   0.000   6.629   0.000  -0.000
 -0.000   0.000  -0.000   7.114   0.000   0.000   6.600  -0.000
  0.000  -0.000   0.000   0.000   7.040  -0.000  -0.000   6.629
 -0.000  -0.000  -0.000  -0.000   0.000   0.000   0.000  -0.000
  0.000   0.000   0.000   0.000  -0.000  -0.000  -0.000   0.000
 -0.044  -0.013  -0.000   0.000   0.000   0.000  -0.000  -0.000
 -0.000  -0.000  -0.000  -0.000   0.000   0.000   0.000  -0.000
  0.000   0.000  -0.000  -0.000  -0.000   0.000   0.000   0.000
 -0.000  -0.000  -0.000  -0.000   0.000   0.000   0.000  -0.000
  0.000   0.000   0.000   0.000  -0.000  -0.000  -0.000   0.000
 -0.055  -0.015  -0.000   0.000   0.000   0.000  -0.000  -0.000
 -0.000  -0.000  -0.000  -0.000   0.000   0.000   0.000  -0.000
  0.000   0.000  -0.000  -0.000  -0.000   0.000   0.000   0.000
 total augmentation occupancy for first ion, spin component:           1
  1.995  -0.058  -0.000  -0.000  -0.000   0.000   0.000  -0.000  -0.000   0.000  -0.019  -0.000   0.000   0.000   0.000   0.019
 -0.058   1.356   0.000  -0.000   0.000  -0.000   0.000   0.000  -0.000  -0.000  -0.173  -0.000  -0.000  -0.000   0.000   0.027
 -0.000   0.000   1.983   0.000  -0.000  -0.035  -0.000  -0.000   0.000   0.000   0.000   0.000  -0.000   0.000   0.000   0.000
 -0.000  -0.000   0.000   1.984   0.000  -0.000  -0.036   0.000   0.000   0.000  -0.000   0.000  -0.000   0.000   0.000   0.000
 -0.000   0.000  -0.000   0.000   1.983   0.000   0.000  -0.035  -0.000   0.000   0.000  -0.000  -0.000   0.000   0.000  -0.000
  0.000  -0.000  -0.035  -0.000   0.000   0.109  -0.000   0.000   0.000  -0.000  -0.000  -0.000   0.000   0.000  -0.000   0.000
  0.000   0.000  -0.000  -0.036   0.000  -0.000   0.100   0.000  -0.000  -0.000  -0.000   0.000  -0.000   0.000  -0.000  -0.000
 -0.000   0.000  -0.000   0.000  -0.035   0.000   0.000   0.109   0.000  -0.000  -0.000  -0.000  -0.000   0.000  -0.000   0.000
 -0.000  -0.000   0.000   0.000  -0.000   0.000  -0.000   0.000   1.967   0.000  -0.000   0.000   0.000  -1.021   0.000   0.000
  0.000  -0.000   0.000   0.000   0.000  -0.000  -0.000  -0.000   0.000   2.510  -0.000   0.000   0.000   0.000  -1.227  -0.000
 -0.019  -0.173   0.000  -0.000   0.000  -0.000  -0.000  -0.000  -0.000  -0.000   1.716  -0.000  -0.000   0.000  -0.000  -0.760
 -0.000  -0.000   0.000   0.000  -0.000  -0.000   0.000  -0.000   0.000   0.000  -0.000   2.510  -0.000  -0.000   0.000   0.000
  0.000  -0.000  -0.000  -0.000  -0.000   0.000  -0.000  -0.000   0.000   0.000  -0.000  -0.000   2.560   0.000   0.000  -0.000
  0.000  -0.000   0.000   0.000   0.000   0.000   0.000   0.000  -1.021   0.000   0.000  -0.000   0.000   0.538   0.000  -0.000
  0.000   0.000   0.000   0.000   0.000  -0.000  -0.000  -0.000   0.000  -1.227  -0.000   0.000   0.000   0.000   0.626  -0.000
  0.019   0.027   0.000   0.000  -0.000   0.000  -0.000   0.000   0.000  -0.000  -0.760   0.000  -0.000  -0.000  -0.000   0.363
  0.000   0.000   0.000   0.000   0.000   0.000   0.000   0.000  -0.000   0.000   0.000  -1.227  -0.000   0.000   0.000  -0.000
  0.000  -0.000   0.000   0.000  -0.000   0.000   0.000   0.000  -0.000   0.000  -0.000  -0.000  -0.963   0.000   0.000  -0.000


------------------------ aborting loop because EDIFF is reached ----------------------------------------


    CHARGE:  cpu time      0.0391: real time      0.0391
    FORLOC:  cpu time      0.0004: real time      0.0004
    FORNL :  cpu time      0.5841: real time      0.5841
    STRESS:  cpu time      1.6060: real time      1.6061
    FORCOR:  cpu time      0.0097: real time      0.0097
    FORHAR:  cpu time      0.0018: real time      0.0018
    MIXING:  cpu time      0.0002: real time      0.0002
    OFIELD:  cpu time      0.0000: real time      0.0000

  FORCE on cell =-STRESS in cart. coord.  units (eV):
  Direction    XX          YY          ZZ          XY          YZ          ZX
  --------------------------------------------------------------------------------------
  Alpha Z   302.45033   302.45033   302.45033
  Ewald   -2316.54182 -2316.54182 -4052.05886    -0.00000    -0.00000    -0.00000
  Hartree  1816.02413  1816.02413   296.98841    -0.00000    -0.00000    -0.00000
  E(xc)    -576.54336  -576.54336  -578.22991     0.00000     0.00000    -0.00000
  Local   -1139.90613 -1139.90613  2152.64335    -0.00000    -0.00000     0.00000
  n-local  -113.18820  -148.31125   -76.21078    -3.34624     0.80638     1.87965
  augment   493.94381   493.94381   471.44833     0.00000     0.00000     0.00000
  Kinetic  1533.12654  1569.78809  1483.07772     1.60376    -2.28881    -2.42194
  Fock        0.00000     0.00000     0.00000     0.00000     0.00000     0.00000
  -------------------------------------------------------------------------------------
  Total       0.13455     0.13455     0.10859     0.00000     0.00000    -0.00000
  in kB       0.83097     0.83097     0.67062     0.00000     0.00000    -0.00000
  external pressure =        0.78 kB  Pullay stress =        0.00 kB


 VOLUME and BASIS-vectors are now :
 -----------------------------------------------------------------------------
  energy-cutoff  :      520.00
  volume of cell :      259.42
      direct lattice vectors                 reciprocal lattice vectors
     5.650681772  0.000000000  0.000000000     0.176969796  0.000000000  0.000000000
     0.000000000  5.650681772  0.000000000     0.000000000  0.176969796 -0.000000000
     0.000000000  0.000000000  8.124629189     0.000000000 -0.000000000  0.123082540

  length of vectors
     5.650681772  5.650681772  8.124629189     0.176969796  0.176969796  0.123082540


 FORCES acting on ions
    electron-ion (+dipol)            ewald-force                    non-local-force                 convergence-correction
 -----------------------------------------------------------------------------------------------
   0.560E-14 -.108E-14 -.482E-13   0.101E-13 -.178E-14 -.178E-13   -.258E-24 -.931E-24 -.496E-23   0.275E-13 0.448E-14 -.194E-12
   0.560E-14 -.108E-14 0.106E-11   0.102E-13 -.178E-14 0.178E-13   0.124E-23 0.000E+00 0.827E-24   0.350E-13 -.162E-14 0.220E-12
   0.560E-14 0.393E-12 -.522E-13   0.101E-13 -.613E-14 -.178E-13   -.207E-24 0.165E-23 0.000E+00   0.282E-13 0.606E-14 -.192E-12
   0.560E-14 0.393E-12 0.105E-11   0.102E-13 -.613E-14 0.178E-13   -.827E-24 0.000E+00 0.827E-24   0.219E-13 0.109E-14 0.225E-12
   0.400E-12 0.269E-14 -.680E-11   -.377E-13 0.613E-14 -.178E-13   0.243E-23 0.000E+00 0.827E-24   -.588E-14 -.170E-13 -.199E-12
   0.400E-12 0.269E-14 0.431E-11   -.378E-13 0.613E-14 0.178E-13   0.414E-24 0.124E-23 0.827E-24   -.452E-14 -.250E-13 0.196E-12
   0.400E-12 0.397E-12 -.199E-11   -.377E-13 0.178E-14 -.178E-13   -.827E-24 0.414E-24 0.114E-23   0.359E-14 -.480E-14 -.201E-12
   0.400E-12 0.397E-12 0.252E-11   -.378E-13 0.178E-14 0.178E-13   -.827E-24 0.248E-23 -.124E-23   0.405E-14 -.663E-14 0.191E-12
   0.137E-14 -.176E-13 -.273E-12   0.207E-13 0.899E-16 -.131E-14   -.827E-24 0.165E-23 0.827E-24   -.891E-15 0.890E-15 -.176E-13
   0.896E-15 -.167E-13 -.311E-12   0.208E-13 0.849E-16 0.139E-14   0.827E-24 0.000E+00 0.827E-24   -.202E-14 0.815E-15 0.157E-13
   0.200E-14 -.418E-14 -.243E-12   0.207E-13 -.389E-15 -.132E-14   -.372E-23 0.000E+00 -.207E-23   -.692E-15 -.904E-15 -.174E-13
   0.191E-14 -.221E-14 -.281E-12   0.208E-13 -.394E-15 0.138E-14   0.827E-24 -.248E-23 -.269E-23   -.170E-14 -.848E-15 0.157E-13
   -.160E-13 0.622E-12 0.483E-12   0.700E-14 0.504E-15 -.138E-14   0.000E+00 0.000E+00 0.103E-23   0.128E-14 0.907E-15 -.177E-13
   -.152E-13 -.313E-13 0.759E-12   0.687E-14 0.499E-15 0.132E-14   0.159E-23 0.496E-23 -.248E-23   0.241E-14 0.953E-15 0.156E-13
   -.159E-13 0.457E-12 0.955E-13   0.699E-14 0.251E-16 -.139E-14   0.000E+00 -.496E-23 0.165E-23   0.107E-14 -.887E-15 -.176E-13
   -.164E-13 0.468E-12 0.424E-12   0.686E-14 0.201E-16 0.131E-14   0.165E-23 0.827E-24 0.827E-24   0.207E-14 -.947E-15 0.156E-13
 -----------------------------------------------------------------------------------------------
   0.156E-11 0.306E-11 0.707E-12   0.114E-15 0.440E-15 0.393E-23   0.149E-23 0.486E-23 -.383E-23   0.111E-12 -.434E-13 0.375E-13
 
 
 POSITION                                       TOTAL-FORCE (eV/Angst)
 -----------------------------------------------------------------------------------
      0.00000      0.00000     -0.00000        -0.000000      0.000000     -0.000000
      0.00000      0.00000      4.06231        -0.000000     -0.000000      0.000000
      0.00000      2.82534      0.00000        -0.000000     -0.000000     -0.000000
      0.00000      2.82534      4.06231         0.000000     -0.000000     -0.000000
      2.82534     -0.00000      0.00000        -0.000000     -0.000000     -0.000000
      2.82534      0.00000      4.06231         0.000000      0.000000      0.000000
      2.82534      2.82534      0.00000        -0.000000     -0.000000     -0.000000
      2.82534      2.82534      4.06231         0.000000     -0.000000      0.000000
      1.41267      1.41267      2.03116        -0.000000      0.000000      0.000000
      1.41267      1.41267      6.09347        -0.000000     -0.000000      0.000000
      1.41267      4.23801      2.03116        -0.000000      0.000000      0.000000
      1.41267      4.23801      6.09347        -0.000000      0.000000      0.000000
      4.23801      1.41267      2.03116         0.000000      0.000000      0.000000
      4.23801      1.41267      6.09347         0.000000      0.000000      0.000000
      4.23801      4.23801      2.03116        -0.000000     -0.000000      0.000000
      4.23801      4.23801      6.09347         0.000000      0.000000      0.000000
 -----------------------------------------------------------------------------------
    total drift:                                0.000000      0.000000      0.000000


--------------------------------------------------------------------------------------------------------



  FREE ENERGIE OF THE ION-ELECTRON SYSTEM (eV)
  ---------------------------------------------------
  free  energy   TOTEN  =       -99.17536423 eV

  energy  without entropy=      -99.11197115  energy(sigma->0) =      -99.14366769
 d Force = 0.0000000E+00[ 0.000E+00, 0.000E+00]  d Energy = 0.8703802E-04-0.870E-04
 d Force = 0.0000000E+00[ 0.000E+00, 0.000E+00]  d Ewald  = 0.2095095E+01-0.210E+01
 


--------------------------------------------------------------------------------------------------------


    POTLOK:  cpu time      0.0095: real time      0.0095


--------------------------------------------------------------------------------------------------------


 Quasi-Newton relaxation of ions (Broydens 2nd method)
  g(Force)  = 0.588E-58   g(Stress)= 0.145E-03

 retain information from N=  2 steps
 eigenvalues of (default step * inverse Hessian matrix)
  average eigenvalue of G=   3.0398
 eigenvalue spectrum of G is  4.7768  1.3027


--------------------------------------------------------------------------------------------------------


  
 reached required accuracy - stopping structural energy minimisation
 writing wavefunctions
     LOOP+:  cpu time     18.4092: real time     18.4102
    4ORBIT:  cpu time      0.0000: real time      0.0000

 total amount of memory used by VASP MPI-rank0   103122. kBytes
=======================================================================

   base                                    :      30000. kBytes
   nonl-proj                               :      62627. kBytes
   fftplans                                :        598. kBytes
   grid                                    :       2680. kBytes
   one-center                              :        248. kBytes
   wavefun                                 :       6969. kBytes
 
  
  
 General timing and accounting informations for this job:
 ========================================================
  
                  Total CPU time used (sec):       85.654
                            User time (sec):       79.744
                          System time (sec):        5.910
                         Elapsed time (sec):       85.912
  
                   Maximum memory used (kb):      241664.
                   Average memory used (kb):          N/A
  
                          Minor page faults:        40939
                          Major page faults:           12
                 Voluntary context switches:           99
