<?xml version="1.0" encoding="ISO-8859-1"?>
<modeling>
 <generator>
  <i name="program" type="string">vasp </i>
  <i name="version" type="string">6.5.0  </i>
  <i name="subversion" type="string">16Dec24 (build Apr 17 2025 17:55:45) complex                          parallel </i>
  <i name="platform" type="string">LinuxIFC </i>
  <i name="date" type="string">2025 06 03 </i>
  <i name="time" type="string">18:38:55 </i>
 </generator>
 <incar>
  <i type="string" name="SYSTEM">CaNi2</i>
  <i type="int" name="ISTART">     0</i>
  <i type="string" name="PREC">N</i>
  <i type="string" name="ALGO">N</i>
  <i type="int" name="ICHARG">     2</i>
  <i type="int" name="NELM">   500</i>
  <i type="int" name="IBRION">     1</i>
  <i name="EDIFF">      0.00001000</i>
  <i name="EDIFFG">     -0.01000000</i>
  <i type="int" name="NSW">   300</i>
  <i type="int" name="ISIF">     3</i>
  <i name="ENCUT">    520.00000000</i>
  <i type="logical" name="LREAL"> F  </i>
  <i type="int" name="ISMEAR">     0</i>
  <i name="SIGMA">      0.10000000</i>
 </incar>
 <primitive_cell>
  <structure name="primitive_cell" >
   <crystal>
    <varray name="basis" >
     <v>       2.82381868       0.00000000       0.00000000 </v>
     <v>       0.00000000       2.82381868       0.00000000 </v>
     <v>       0.00000000       0.00000000       4.07033300 </v>
    </varray>
    <i name="volume">     32.45663983 </i>
    <varray name="rec_basis" >
     <v>       0.35413039       0.00000000       0.00000000 </v>
     <v>       0.00000000       0.35413039       0.00000000 </v>
     <v>       0.00000000       0.00000000       0.24568014 </v>
    </varray>
   </crystal>
   <varray name="positions" >
    <v>       0.00000000       0.00000000       0.00000000 </v>
    <v>       0.50000000       0.50000000       0.50000000 </v>
   </varray>
  </structure>
  <varray name="primitive_index" >
   <v type="int" >        1 </v>
   <v type="int" >        9 </v>
  </varray>
 </primitive_cell>
 <kpoints>
  <generation param="Gamma">
   <v type="int" name="divisions">       6        6        4 </v>
   <v name="usershift">      0.00000000       0.00000000       0.00000000 </v>
   <v name="genvec1">      0.16666667       0.00000000       0.00000000 </v>
   <v name="genvec2">      0.00000000       0.16666667       0.00000000 </v>
   <v name="genvec3">      0.00000000       0.00000000       0.25000000 </v>
   <v name="shift">      0.00000000       0.00000000       0.00000000 </v>
  </generation>
  <varray name="kpointlist" >
   <v>       0.00000000       0.00000000       0.00000000 </v>
   <v>       0.16666667       0.00000000       0.00000000 </v>
   <v>       0.33333333       0.00000000       0.00000000 </v>
   <v>       0.50000000       0.00000000       0.00000000 </v>
   <v>       0.16666667       0.16666667       0.00000000 </v>
   <v>       0.33333333       0.16666667       0.00000000 </v>
   <v>       0.50000000       0.16666667       0.00000000 </v>
   <v>       0.33333333       0.33333333       0.00000000 </v>
   <v>       0.50000000       0.33333333       0.00000000 </v>
   <v>       0.50000000       0.50000000       0.00000000 </v>
   <v>       0.00000000       0.00000000       0.25000000 </v>
   <v>       0.16666667       0.00000000       0.25000000 </v>
   <v>       0.33333333       0.00000000       0.25000000 </v>
   <v>       0.50000000       0.00000000       0.25000000 </v>
   <v>       0.16666667       0.16666667       0.25000000 </v>
   <v>       0.33333333       0.16666667       0.25000000 </v>
   <v>       0.50000000       0.16666667       0.25000000 </v>
   <v>       0.33333333       0.33333333       0.25000000 </v>
   <v>       0.50000000       0.33333333       0.25000000 </v>
   <v>       0.50000000       0.50000000       0.25000000 </v>
   <v>       0.00000000       0.00000000       0.50000000 </v>
   <v>       0.16666667       0.00000000       0.50000000 </v>
   <v>       0.33333333       0.00000000       0.50000000 </v>
   <v>       0.50000000       0.00000000       0.50000000 </v>
   <v>       0.16666667       0.16666667       0.50000000 </v>
   <v>       0.33333333       0.16666667       0.50000000 </v>
   <v>       0.50000000       0.16666667       0.50000000 </v>
   <v>       0.33333333       0.33333333       0.50000000 </v>
   <v>       0.50000000       0.33333333       0.50000000 </v>
   <v>       0.50000000       0.50000000       0.50000000 </v>
  </varray>
  <varray name="weights" >
   <v>       0.00694444 </v>
   <v>       0.02777778 </v>
   <v>       0.02777778 </v>
   <v>       0.01388889 </v>
   <v>       0.02777778 </v>
   <v>       0.05555556 </v>
   <v>       0.02777778 </v>
   <v>       0.02777778 </v>
   <v>       0.02777778 </v>
   <v>       0.00694444 </v>
   <v>       0.01388889 </v>
   <v>       0.05555556 </v>
   <v>       0.05555556 </v>
   <v>       0.02777778 </v>
   <v>       0.05555556 </v>
   <v>       0.11111111 </v>
   <v>       0.05555556 </v>
   <v>       0.05555556 </v>
   <v>       0.05555556 </v>
   <v>       0.01388889 </v>
   <v>       0.00694444 </v>
   <v>       0.02777778 </v>
   <v>       0.02777778 </v>
   <v>       0.01388889 </v>
   <v>       0.02777778 </v>
   <v>       0.05555556 </v>
   <v>       0.02777778 </v>
   <v>       0.02777778 </v>
   <v>       0.02777778 </v>
   <v>       0.00694444 </v>
  </varray>
 </kpoints>
 <parameters>
  <separator name="general" >
   <i type="string" name="SYSTEM">CaNi2</i>
   <i type="logical" name="LCOMPAT"> F  </i>
  </separator>
  <separator name="electronic" >
   <i type="string" name="PREC">n</i>
   <i name="ENMAX">    520.00000000</i>
   <i name="ENAUG">    482.84800000</i>
   <i name="EDIFF">      0.00001000</i>
   <i type="int" name="IALGO">    38</i>
   <i type="int" name="IWAVPR">    11</i>
   <i type="int" name="NBANDS">    88</i>
   <i type="int" name="NBANDSLOW">    -1</i>
   <i type="int" name="NBANDSHIGH">    -1</i>
   <i name="NELECT">    120.00000000</i>
   <i type="int" name="TURBO">     0</i>
   <i type="int" name="IRESTART">     0</i>
   <i type="int" name="NREBOOT">     0</i>
   <i type="int" name="NMIN">     0</i>
   <i name="EREF">      0.00000000</i>
   <separator name="electronic smearing" >
    <i type="int" name="ISMEAR">     0</i>
    <i name="SIGMA">      0.10000000</i>
    <i name="KSPACING">      0.50000000</i>
    <i type="logical" name="KGAMMA"> T  </i>
    <i type="logical" name="KBLOWUP"> T  </i>
   </separator>
   <separator name="electronic projectors" >
    <i type="logical" name="LREAL"> F  </i>
    <v name="ROPT">      0.00000000      0.00000000</v>
    <i type="int" name="LMAXPAW">  -100</i>
    <i type="int" name="LMAXMIX">     2</i>
    <i type="logical" name="NLSPLINE"> F  </i>
   </separator>
   <separator name="electronic startup" >
    <i type="int" name="ISTART">     0</i>
    <i type="int" name="ICHARG">     2</i>
    <i type="int" name="INIWAV">     1</i>
   </separator>
   <separator name="electronic spin" >
    <i type="int" name="ISPIN">     1</i>
    <i type="logical" name="LNONCOLLINEAR"> F  </i>
    <v name="MAGMOM">      1.00000000      1.00000000      1.00000000      1.00000000      1.00000000      1.00000000      1.00000000      1.00000000      1.00000000      1.00000000      1.00000000      1.00000000      1.00000000      1.00000000      1.00000000      1.00000000</v>
    <i name="NUPDOWN">     -1.00000000</i>
    <i type="logical" name="LSORBIT"> F  </i>
    <v name="SAXIS">      0.00000000      0.00000000      1.00000000</v>
    <i type="logical" name="LSPIRAL"> F  </i>
    <v name="QSPIRAL">      0.00000000      0.00000000      0.00000000</v>
    <i type="logical" name="LZEROZ"> F  </i>
   </separator>
   <separator name="electronic exchange-correlation" >
    <i type="logical" name="LASPH"> F  </i>
   </separator>
   <separator name="electronic convergence" >
    <i type="int" name="NELM">   500</i>
    <i type="int" name="NELMDL">    -5</i>
    <i type="int" name="NELMIN">     2</i>
    <i name="ENINI">    520.00000000</i>
    <separator name="electronic convergence detail" >
     <i type="logical" name="LDIAG"> T  </i>
     <i type="logical" name="LSUBROT"> F  </i>
     <i name="WEIMIN">      0.00100000</i>
     <i name="EBREAK">      0.00000003</i>
     <i name="DEPER">      0.30000000</i>
     <i type="int" name="NRMM">     4</i>
     <i name="TIME">      0.40000000</i>
    </separator>
   </separator>
   <separator name="electronic mixer" >
    <i name="AMIX">      0.40000000</i>
    <i name="BMIX">      1.00000000</i>
    <i name="AMIN">      0.10000000</i>
    <i name="AMIX_MAG">      1.60000000</i>
    <i name="BMIX_MAG">      1.00000000</i>
    <separator name="electronic mixer details" >
     <i type="int" name="IMIX">     4</i>
     <i type="logical" name="MIXFIRST"> F  </i>
     <i type="int" name="MAXMIX">   -45</i>
     <i name="WC">    100.00000000</i>
     <i type="int" name="INIMIX">     1</i>
     <i type="int" name="MIXPRE">     1</i>
     <i type="int" name="MREMOVE">     5</i>
    </separator>
   </separator>
   <separator name="electronic dipolcorrection" >
    <i type="logical" name="LDIPOL"> F  </i>
    <i type="logical" name="LMONO"> F  </i>
    <i type="int" name="IDIPOL">     0</i>
    <i name="EPSILON">      1.00000000</i>
    <v name="DIPOL">   -100.00000000   -100.00000000   -100.00000000</v>
    <i name="EFIELD">      0.00000000</i>
    <i type="logical" name="LVACPOTAV"> F  </i>
   </separator>
  </separator>
  <separator name="grids" >
   <i type="int" name="NGX">    32</i>
   <i type="int" name="NGY">    32</i>
   <i type="int" name="NGZ">    48</i>
   <i type="int" name="NGXF">    64</i>
   <i type="int" name="NGYF">    64</i>
   <i type="int" name="NGZF">    96</i>
   <i type="logical" name="ADDGRID"> F  </i>
  </separator>
  <separator name="ionic" >
   <i type="int" name="NSW">   300</i>
   <i type="int" name="IBRION">     1</i>
   <i type="int" name="MDALGO">     0</i>
   <i type="int" name="ISIF">     3</i>
   <i name="PSTRESS">      0.00000000</i>
   <i name="EDIFFG">     -0.01000000</i>
   <i type="int" name="NFREE">     0</i>
   <i name="POTIM">      0.50000000</i>
   <i name="SMASS">     -3.00000000</i>
   <i name="SCALEE">      1.00000000</i>
  </separator>
  <separator name="ionic md" >
   <i name="TEBEG">      0.00010000</i>
   <i name="TEEND">      0.00010000</i>
   <i type="int" name="NBLOCK">     1</i>
   <i type="int" name="KBLOCK">   300</i>
   <i type="int" name="NPACO">   256</i>
   <i name="APACO">     10.00000000</i>
  </separator>
  <separator name="symmetry" >
   <i type="int" name="ISYM">     2</i>
   <i name="SYMPREC">      0.00001000</i>
  </separator>
  <separator name="dos" >
   <i type="int" name="LORBIT">     0</i>
   <v name="RWIGS">     -1.00000000     -1.00000000</v>
   <i type="int" name="NEDOS">   301</i>
   <i name="EMIN">     10.00000000</i>
   <i name="EMAX">    -10.00000000</i>
   <i name="EFERMI">      0.00000000</i>
  </separator>
  <separator name="writing" >
   <i type="int" name="NWRITE">     2</i>
   <i type="logical" name="LWAVE"> T  </i>
   <i type="logical" name="LDOWNSAMPLE"> F  </i>
   <i type="logical" name="LCHARG"> T  </i>
   <i type="logical" name="LPARD"> F  </i>
   <i type="logical" name="LVTOT"> F  </i>
   <i type="logical" name="LVHAR"> F  </i>
   <i type="logical" name="LELF"> F  </i>
   <i type="logical" name="LOPTICS"> F  </i>
   <v name="STM">      0.00000000      0.00000000      0.00000000      0.00000000      0.00000000      0.00000000      0.00000000</v>
  </separator>
  <separator name="performance" >
   <i type="int" name="NPAR">    44</i>
   <i type="int" name="NSIM">     4</i>
   <i type="int" name="NBLK">    -1</i>
   <i type="logical" name="LPLANE"> T  </i>
   <i type="logical" name="LSCALAPACK"> T  </i>
   <i type="logical" name="LSCAAWARE"> F  </i>
   <i type="logical" name="LSCALU"> F  </i>
   <i type="logical" name="LASYNC"> F  </i>
   <i type="logical" name="LORBITALREAL"> F  </i>
  </separator>
  <separator name="miscellaneous" >
   <i type="int" name="IDIOT">     3</i>
   <i type="int" name="PHON_NSTRUCT">    -1</i>
   <i type="logical" name="LMUSIC"> F  </i>
   <v name="POMASS">     47.88000000     26.98100000</v>
   <v name="DARWINR">      0.00000000      0.00000000</v>
   <v name="DARWINV">      1.00000000      1.00000000</v>
   <i type="logical" name="LCORR"> T  </i>
  </separator>
  <i type="logical" name="GGA_COMPAT"> T  </i>
  <i type="logical" name="LBERRY"> F  </i>
  <i type="int" name="ICORELEVEL">     0</i>
  <i type="logical" name="LDAU"> F  </i>
  <i type="int" name="I_CONSTRAINED_M">     0</i>
  <separator name="electronic exchange-correlation" >
   <i type="string" name="GGA    ">PE</i>
   <i type="string" name="XC_C">1</i>
   <i type="int" name="VOSKOWN">     0</i>
   <i type="logical" name="LHFCALC"> F  </i>
   <i type="string" name="PRECFOCK"></i>
   <i type="logical" name="LSYMGRAD"> F  </i>
   <i type="logical" name="LHFONE"> F  </i>
   <i type="logical" name="LRHFCALC"> F  </i>
   <i type="logical" name="LTHOMAS"> F  </i>
   <i type="logical" name="LMODELHF"> F  </i>
   <i type="logical" name="LFOCKACE"> F  </i>
   <i name="ENCUT4O">     -1.00000000</i>
   <i type="int" name="EXXOEP">     0</i>
   <i type="int" name="FOURORBIT">     0</i>
   <i name="AEXX">      0.00000000</i>
   <i name="HFALPHA">      0.00000000</i>
   <i name="MCALPHA">      0.00000000</i>
   <i name="ALDAX">      1.00000000</i>
   <i name="AGGAX">      1.00000000</i>
   <i name="AMGGAX">      1.00000000</i>
   <i name="ALDAC">      1.00000000</i>
   <i name="AGGAC">      1.00000000</i>
   <i name="AMGGAC">      1.00000000</i>
   <i type="int" name="NKREDX">     1</i>
   <i type="int" name="NKREDY">     1</i>
   <i type="int" name="NKREDZ">     1</i>
   <i type="logical" name="SHIFTRED"> F  </i>
   <i type="logical" name="ODDONLY"> F  </i>
   <i type="logical" name="EVENONLY"> F  </i>
   <i type="int" name="LMAXFOCK">     0</i>
   <i type="int" name="NMAXFOCKAE">     0</i>
   <i type="logical" name="LFOCKAEDFT"> F  </i>
   <i name="HFSCREEN">      0.00000000</i>
   <i name="HFSCREENC">      0.00000000</i>
   <i type="int" name="NBANDSGWLOW">     0</i>
  </separator>
  <separator name="vdW DFT" >
   <i type="logical" name="LUSE_VDW"> F  </i>
   <i type="int" name="IVDW_NL">    -1</i>
   <i type="logical" name="LSPIN_VDW"> F  </i>
   <i name="ZAB_VDW">     -0.84910000</i>
   <i name="GAMMA_VDW">      1.39626340</i>
   <i name="ALPHA_VDW">      0.00000000</i>
   <i name="PARAM1">      0.12340000</i>
   <i name="PARAM2">      1.00000000</i>
   <i name="BPARAM">      6.30000000</i>
   <i name="CPARAM">      0.00930000</i>
  </separator>
  <separator name="model GW" >
   <i type="int" name="MODEL_GW">     0</i>
   <i name="MODEL_EPS0">      9.73699195</i>
   <i name="MODEL_ALPHA">      1.00000000</i>
  </separator>
  <separator name="linear response parameters" >
   <i type="logical" name="LEPSILON"> F  </i>
   <i type="logical" name="LRPA"> F  </i>
   <i type="logical" name="LNABLA"> F  </i>
   <i type="logical" name="LVEL"> F  </i>
   <i name="CSHIFT">      0.10000000</i>
   <i name="OMEGAMAX">     -1.00000000</i>
   <i name="DEG_THRESHOLD">      0.00200000</i>
   <i name="RTIME">     -0.10000000</i>
   <i name="WPLASMAI">      0.00000000</i>
   <v name="DFIELD">      0.00000000      0.00000000      0.00000000</v>
   <v name="WPLASMA">      0.00000000      0.00000000      0.00000000      0.00000000      0.00000000      0.00000000      0.00000000      0.00000000      0.00000000</v>
  </separator>
  <separator name="orbital magnetization" >
   <i type="logical" name="NUCIND"> F  </i>
   <v name="MAGPOS">      0.00000000      0.00000000      0.00000000</v>
   <i type="logical" name="LNICSALL"> T  </i>
   <i type="logical" name="ORBITALMAG"> F  </i>
   <i type="logical" name="LMAGBLOCH"> F  </i>
   <i type="logical" name="LCHIMAG"> F  </i>
   <i type="logical" name="LGAUGE"> T  </i>
   <i type="int" name="MAGATOM">     0</i>
   <v name="MAGDIPOL">      0.00000000      0.00000000      0.00000000</v>
   <v name="AVECCONST">      0.00000000      0.00000000      0.00000000</v>
  </separator>
  <separator name="response functions" >
   <i type="logical" name="LALL_IN_ONE"> F  </i>
   <i type="int" name="IALL_IN_ONE">    -1</i>
   <i type="int" name="NBANDS_WAVE">    -1</i>
   <i type="logical" name="LFINITE_TEMPERATURE"> F  </i>
   <i type="logical" name="LADDER"> F  </i>
   <i type="logical" name="LRPAFORCE"> F  </i>
   <i type="logical" name="LFXC"> F  </i>
   <i type="logical" name="LHARTREE"> T  </i>
   <i type="int" name="IBSE">     2</i>
   <v type="int" name="KPOINT">    -1     0     0     0</v>
   <i type="logical" name="LTCTC"> F  </i>
   <i type="logical" name="LTCTE"> F  </i>
   <i type="logical" name="LTETE"> F  </i>
   <i type="logical" name="LTRIPLET"> F  </i>
   <i type="logical" name="LFXCEPS"> F  </i>
   <i type="logical" name="LFXHEG"> F  </i>
   <i type="int" name="NATURALO">     2</i>
   <i type="logical" name="LHOLEGF"> F  </i>
   <i type="logical" name="L2ORDER"> F  </i>
   <i type="logical" name="LDMP1"> F  </i>
   <i type="logical" name="LMP2LT"> F  </i>
   <i type="logical" name="LSMP2LT"> F  </i>
   <i type="logical" name="LGWLF"> F  </i>
   <i name="ENCUTGW">     -1.60000002</i>
   <i name="ENCUTGWSOFT">     -1.60000002</i>
   <i name="ENCUTLF">     -1.00000000</i>
   <i type="logical" name="ESF_SPLINES"> F  </i>
   <i name="ESF_CONV">      0.01000000</i>
   <i type="int" name="ESF_NINTER">    15</i>
   <i type="int" name="LMAXMP2">    -1</i>
   <i name="SCISSOR">      0.00000000</i>
   <i type="int" name="NOMEGA">     0</i>
   <i type="int" name="NOMEGAR">     0</i>
   <i type="int" name="NBANDSGW">    -1</i>
   <i type="int" name="NBANDSO">    -1</i>
   <i type="int" name="NBANDSV">    -1</i>
   <i type="int" name="NELMGW">     1</i>
   <i type="int" name="NELMHF">     1</i>
   <i type="int" name="DIM">     3</i>
   <i type="int" name="IESPILON">     4</i>
   <i type="int" name="ANTIRES">     0</i>
   <i name="OMEGAMAX">    -30.00000000</i>
   <i name="OMEGAMIN">    -30.00000000</i>
   <i name="OMEGATL">   -200.00000000</i>
   <i type="int" name="OMEGAGRID">     0</i>
   <i name="CSHIFT">     -0.10000000</i>
   <i type="logical" name="LSELFENERGY"> F  </i>
   <i type="logical" name="LSPECTRAL"> F  </i>
   <i type="logical" name="LSPECTRALGW"> F  </i>
   <i type="logical" name="LSINGLES"> F  </i>
   <i type="logical" name="LFERMIGW"> F  </i>
   <i type="logical" name="ODDONLYGW"> F  </i>
   <i type="logical" name="EVENONLYGW"> F  </i>
   <i type="int" name="NKREDLFX">     1</i>
   <i type="int" name="NKREDLFY">     1</i>
   <i type="int" name="NKREDLFZ">     1</i>
   <i type="int" name="MAXMEM">  2800</i>
   <i type="int" name="TELESCOPE">     0</i>
   <i type="int" name="NTAUPAR">    -1</i>
   <i type="int" name="NOMEGAPAR">    -1</i>
   <i name="DAMP_NEWTON">      0.80000001</i>
   <i name="LAMBDA">      1.00000000</i>
  </separator>
  <separator name="External order field" >
   <i name="OFIELD_KAPPA">      0.00000000</i>
   <v name="OFIELD_K">      0.00000000      0.00000000      0.00000000</v>
   <i name="OFIELD_Q6_NEAR">      0.00000000</i>
   <i name="OFIELD_Q6_FAR">      0.00000000</i>
   <i name="OFIELD_A">      0.00000000</i>
  </separator>
  <separator name="optional k-points parameters" >
   <i type="int" name="KPOINTS_OPT_MODE">     1</i>
   <i type="logical" name="LKPOINTS_OPT"> F  </i>
  </separator>
 </parameters>
 <atominfo>
  <atoms>      16 </atoms>
  <types>       2 </types>
  <array name="atoms" >
   <dimension dim="1">ion</dimension>
   <field type="string">element</field>
   <field type="int">atomtype</field>
   <set>
    <rc><c>Ti</c><c>   1</c></rc>
    <rc><c>Ti</c><c>   1</c></rc>
    <rc><c>Ti</c><c>   1</c></rc>
    <rc><c>Ti</c><c>   1</c></rc>
    <rc><c>Ti</c><c>   1</c></rc>
    <rc><c>Ti</c><c>   1</c></rc>
    <rc><c>Ti</c><c>   1</c></rc>
    <rc><c>Ti</c><c>   1</c></rc>
    <rc><c>Al</c><c>   2</c></rc>
    <rc><c>Al</c><c>   2</c></rc>
    <rc><c>Al</c><c>   2</c></rc>
    <rc><c>Al</c><c>   2</c></rc>
    <rc><c>Al</c><c>   2</c></rc>
    <rc><c>Al</c><c>   2</c></rc>
    <rc><c>Al</c><c>   2</c></rc>
    <rc><c>Al</c><c>   2</c></rc>
   </set>
  </array>
  <array name="atomtypes" >
   <dimension dim="1">type</dimension>
   <field type="int">atomspertype</field>
   <field type="string">element</field>
   <field>mass</field>
   <field>valence</field>
   <field type="string">pseudopotential</field>
   <set>
    <rc><c>   8</c><c>Ti</c><c>     47.88000000</c><c>     12.00000000</c><c>  PAW_PBE Ti_sv 26Sep2005               </c></rc>
    <rc><c>   8</c><c>Al</c><c>     26.98100000</c><c>      3.00000000</c><c>  PAW_PBE Al 04Jan2001                  </c></rc>
   </set>
  </array>
 </atominfo>
 <structure name="initialpos" >
  <crystal>
   <varray name="basis" >
    <v>       5.64763737       0.00000000       0.00000000 </v>
    <v>       0.00000000       5.64763737       0.00000000 </v>
    <v>       0.00000000       0.00000000       8.14066601 </v>
   </varray>
   <i name="volume">    259.65311861 </i>
   <varray name="rec_basis" >
    <v>       0.17706519       0.00000000       0.00000000 </v>
    <v>       0.00000000       0.17706519       0.00000000 </v>
    <v>       0.00000000       0.00000000       0.12284007 </v>
   </varray>
  </crystal>
  <varray name="positions" >
   <v>       0.00000000       0.00000000       0.00000000 </v>
   <v>       0.00000000       0.00000000       0.50000000 </v>
   <v>       0.00000000       0.50000000       0.00000000 </v>
   <v>       0.00000000       0.50000000       0.50000000 </v>
   <v>       0.50000000       0.00000000       0.00000000 </v>
   <v>       0.50000000       0.00000000       0.50000000 </v>
   <v>       0.50000000       0.50000000       0.00000000 </v>
   <v>       0.50000000       0.50000000       0.50000000 </v>
   <v>       0.25000000       0.25000000       0.25000000 </v>
   <v>       0.25000000       0.25000000       0.75000000 </v>
   <v>       0.25000000       0.75000000       0.25000000 </v>
   <v>       0.25000000       0.75000000       0.75000000 </v>
   <v>       0.75000000       0.25000000       0.25000000 </v>
   <v>       0.75000000       0.25000000       0.75000000 </v>
   <v>       0.75000000       0.75000000       0.25000000 </v>
   <v>       0.75000000       0.75000000       0.75000000 </v>
  </varray>
 </structure>
 <calculation>
  <scstep>
   <time name="dav">    2.31    2.31</time>
   <time name="total">    2.32    2.32</time>
   <energy>
    <i name="alphaZ">    302.18003763 </i>
    <i name="ewald">  -8679.62284710 </i>
    <i name="hartreedc">  -4150.53264423 </i>
    <i name="XCdc">    287.24270372 </i>
    <i name="pawpsdc">  10646.12278294 </i>
    <i name="pawaedc"> -10233.80738393 </i>
    <i name="eentropy">     -0.02663915 </i>
    <i name="bandstr">   -290.32007682 </i>
    <i name="atom">  13132.98755513 </i>
    <i name="e_fr_energy">   1014.22348820 </i>
    <i name="e_wo_entrp">   1014.25012735 </i>
    <i name="e_0_energy">   1014.23680777 </i>
   </energy>
  </scstep>
  <scstep>
   <time name="dav">    2.29    2.29</time>
   <time name="total">    2.29    2.29</time>
   <energy>
    <i name="e_fr_energy">    -10.23671751 </i>
    <i name="e_wo_entrp">    -10.17662766 </i>
    <i name="e_0_energy">    -10.20667258 </i>
   </energy>
  </scstep>
  <scstep>
   <time name="dav">    5.57    5.57</time>
   <time name="total">    5.57    5.57</time>
   <energy>
    <i name="e_fr_energy">   -107.79215815 </i>
    <i name="e_wo_entrp">   -107.70571287 </i>
    <i name="e_0_energy">   -107.74893551 </i>
   </energy>
  </scstep>
  <scstep>
   <time name="dav">    2.30    2.30</time>
   <time name="total">    2.30    2.30</time>
   <energy>
    <i name="e_fr_energy">   -111.75635124 </i>
    <i name="e_wo_entrp">   -111.67490749 </i>
    <i name="e_0_energy">   -111.71562937 </i>
   </energy>
  </scstep>
  <scstep>
   <time name="dav">    4.57    4.57</time>
   <time name="total">    4.61    4.61</time>
   <energy>
    <i name="e_fr_energy">   -112.00121706 </i>
    <i name="e_wo_entrp">   -111.92002712 </i>
    <i name="e_0_energy">   -111.96062209 </i>
   </energy>
  </scstep>
  <scstep>
   <time name="dav">    3.90    3.90</time>
   <time name="total">    3.96    3.96</time>
   <energy>
    <i name="e_fr_energy">   -100.50147780 </i>
    <i name="e_wo_entrp">   -100.41339578 </i>
    <i name="e_0_energy">   -100.45743679 </i>
   </energy>
  </scstep>
  <scstep>
   <time name="dav">    2.63    2.63</time>
   <time name="total">    2.69    2.69</time>
   <energy>
    <i name="e_fr_energy">    -99.28459073 </i>
    <i name="e_wo_entrp">    -99.22371648 </i>
    <i name="e_0_energy">    -99.25415360 </i>
   </energy>
  </scstep>
  <scstep>
   <time name="dav">    3.02    3.02</time>
   <time name="total">    3.07    3.07</time>
   <energy>
    <i name="e_fr_energy">    -99.18966129 </i>
    <i name="e_wo_entrp">    -99.12398926 </i>
    <i name="e_0_energy">    -99.15682528 </i>
   </energy>
  </scstep>
  <scstep>
   <time name="dav">    3.42    3.42</time>
   <time name="total">    3.47    3.47</time>
   <energy>
    <i name="e_fr_energy">    -99.17328845 </i>
    <i name="e_wo_entrp">    -99.10940580 </i>
    <i name="e_0_energy">    -99.14134712 </i>
   </energy>
  </scstep>
  <scstep>
   <time name="dav">    3.16    3.16</time>
   <time name="total">    3.21    3.21</time>
   <energy>
    <i name="e_fr_energy">    -99.17521866 </i>
    <i name="e_wo_entrp">    -99.11177011 </i>
    <i name="e_0_energy">    -99.14349439 </i>
   </energy>
  </scstep>
  <scstep>
   <time name="dav">    3.66    3.66</time>
   <time name="total">    3.72    3.72</time>
   <energy>
    <i name="e_fr_energy">    -99.17501564 </i>
    <i name="e_wo_entrp">    -99.11138638 </i>
    <i name="e_0_energy">    -99.14320101 </i>
   </energy>
  </scstep>
  <scstep>
   <time name="dav">    3.08    3.08</time>
   <time name="total">    3.13    3.13</time>
   <energy>
    <i name="e_fr_energy">    -99.17505599 </i>
    <i name="e_wo_entrp">    -99.11137652 </i>
    <i name="e_0_energy">    -99.14321626 </i>
   </energy>
  </scstep>
  <scstep>
   <time name="dav">    3.00    3.00</time>
   <time name="total">    3.02    3.02</time>
   <energy>
    <i name="alphaZ">    302.18003763 </i>
    <i name="ewald">  -8679.62284710 </i>
    <i name="hartreedc">  -3932.84511285 </i>
    <i name="XCdc">    279.22470682 </i>
    <i name="pawpsdc">  13265.92712347 </i>
    <i name="pawaedc"> -12827.29236031 </i>
    <i name="eentropy">     -0.06368437 </i>
    <i name="bandstr">  -1639.67047322 </i>
    <i name="atom">  13132.98755513 </i>
    <i name="e_fr_energy">    -99.17505479 </i>
    <i name="e_wo_entrp">    -99.11137042 </i>
    <i name="e_0_energy">    -99.14321261 </i>
   </energy>
  </scstep>
  <structure>
   <crystal>
    <varray name="basis" >
     <v>       5.64763737       0.00000000       0.00000000 </v>
     <v>       0.00000000       5.64763737       0.00000000 </v>
     <v>       0.00000000       0.00000000       8.14066601 </v>
    </varray>
    <i name="volume">    259.65311861 </i>
    <varray name="rec_basis" >
     <v>       0.17706519       0.00000000       0.00000000 </v>
     <v>       0.00000000       0.17706519       0.00000000 </v>
     <v>       0.00000000       0.00000000       0.12284007 </v>
    </varray>
   </crystal>
   <varray name="positions" >
    <v>       0.00000000       0.00000000       0.00000000 </v>
    <v>       0.00000000       0.00000000       0.50000000 </v>
    <v>       0.00000000       0.50000000       0.00000000 </v>
    <v>       0.00000000       0.50000000       0.50000000 </v>
    <v>       0.50000000       0.00000000       0.00000000 </v>
    <v>       0.50000000       0.00000000       0.50000000 </v>
    <v>       0.50000000       0.50000000       0.00000000 </v>
    <v>       0.50000000       0.50000000       0.50000000 </v>
    <v>       0.25000000       0.25000000       0.25000000 </v>
    <v>       0.25000000       0.25000000       0.75000000 </v>
    <v>       0.25000000       0.75000000       0.25000000 </v>
    <v>       0.25000000       0.75000000       0.75000000 </v>
    <v>       0.75000000       0.25000000       0.25000000 </v>
    <v>       0.75000000       0.25000000       0.75000000 </v>
    <v>       0.75000000       0.75000000       0.25000000 </v>
    <v>       0.75000000       0.75000000       0.75000000 </v>
   </varray>
  </structure>
  <varray name="forces" >
   <v>       0.00000000       0.00000000      -0.00000000 </v>
   <v>       0.00000000       0.00000000       0.00000000 </v>
   <v>      -0.00000000      -0.00000000       0.00000000 </v>
   <v>       0.00000000      -0.00000000       0.00000000 </v>
   <v>       0.00000000      -0.00000000      -0.00000000 </v>
   <v>       0.00000000      -0.00000000       0.00000000 </v>
   <v>      -0.00000000      -0.00000000      -0.00000000 </v>
   <v>       0.00000000       0.00000000      -0.00000000 </v>
   <v>       0.00000000      -0.00000000       0.00000000 </v>
   <v>      -0.00000000       0.00000000      -0.00000000 </v>
   <v>      -0.00000000       0.00000000      -0.00000000 </v>
   <v>      -0.00000000      -0.00000000      -0.00000000 </v>
   <v>       0.00000000       0.00000000      -0.00000000 </v>
   <v>      -0.00000000      -0.00000000      -0.00000000 </v>
   <v>       0.00000000       0.00000000       0.00000000 </v>
   <v>       0.00000000       0.00000000       0.00000000 </v>
  </varray>
  <varray name="stress" >
   <v>       0.35795297       0.00000000       0.00000000 </v>
   <v>       0.00000000       0.35795297      -0.00000000 </v>
   <v>       0.00000000       0.00000000      -2.12610234 </v>
  </varray>
  <energy>
   <i name="e_fr_energy">    -99.17505479 </i>
   <i name="e_wo_entrp">    -99.11137042 </i>
   <i name="e_0_energy">    -99.14321261 </i>
  </energy>
  <time name="totalsc">   46.10   46.11</time>
 </calculation>
 <calculation>
  <scstep>
   <time name="dav">    2.96    2.96</time>
   <time name="total">    3.01    3.01</time>
   <energy>
    <i name="alphaZ">    302.38851014 </i>
    <i name="ewald">  -8683.03259156 </i>
    <i name="hartreedc">  -3932.75257095 </i>
    <i name="XCdc">    279.35161528 </i>
    <i name="pawpsdc">  13265.81435283 </i>
    <i name="pawaedc"> -12826.98474932 </i>
    <i name="eentropy">     -0.06430390 </i>
    <i name="bandstr">  -1636.88466340 </i>
    <i name="atom">  13132.98755513 </i>
    <i name="e_fr_energy">    -99.17684575 </i>
    <i name="e_wo_entrp">    -99.11254185 </i>
    <i name="e_0_energy">    -99.14469380 </i>
   </energy>
  </scstep>
  <scstep>
   <time name="dav">    3.18    3.18</time>
   <time name="total">    3.23    3.23</time>
   <energy>
    <i name="e_fr_energy">    -99.17556706 </i>
    <i name="e_wo_entrp">    -99.11182607 </i>
    <i name="e_0_energy">    -99.14369657 </i>
   </energy>
  </scstep>
  <scstep>
   <time name="dav">    3.56    3.56</time>
   <time name="total">    3.61    3.61</time>
   <energy>
    <i name="e_fr_energy">    -99.17531742 </i>
    <i name="e_wo_entrp">    -99.11165587 </i>
    <i name="e_0_energy">    -99.14348664 </i>
   </energy>
  </scstep>
  <scstep>
   <time name="dav">    4.12    4.12</time>
   <time name="total">    4.17    4.17</time>
   <energy>
    <i name="e_fr_energy">    -99.17527402 </i>
    <i name="e_wo_entrp">    -99.11176688 </i>
    <i name="e_0_energy">    -99.14352045 </i>
   </energy>
  </scstep>
  <scstep>
   <time name="dav">    2.67    2.67</time>
   <time name="total">    2.69    2.69</time>
   <energy>
    <i name="alphaZ">    302.38851014 </i>
    <i name="ewald">  -8683.03259156 </i>
    <i name="hartreedc">  -3930.55431347 </i>
    <i name="XCdc">    279.25487378 </i>
    <i name="pawpsdc">  13270.46902066 </i>
    <i name="pawaedc"> -12831.87279797 </i>
    <i name="eentropy">     -0.06351343 </i>
    <i name="bandstr">  -1638.75202047 </i>
    <i name="atom">  13132.98755513 </i>
    <i name="e_fr_energy">    -99.17527719 </i>
    <i name="e_wo_entrp">    -99.11176376 </i>
    <i name="e_0_energy">    -99.14352047 </i>
   </energy>
  </scstep>
  <structure>
   <crystal>
    <varray name="basis" >
     <v>       5.64862521       0.00000000       0.00000000 </v>
     <v>       0.00000000       5.64862521      -0.00000000 </v>
     <v>       0.00000000       0.00000000       8.13220858 </v>
    </varray>
    <i name="volume">    259.47410871 </i>
    <varray name="rec_basis" >
     <v>       0.17703423       0.00000000       0.00000000 </v>
     <v>       0.00000000       0.17703423      -0.00000000 </v>
     <v>       0.00000000       0.00000000       0.12296782 </v>
    </varray>
   </crystal>
   <varray name="positions" >
    <v>       0.00000000       0.00000000      -0.00000000 </v>
    <v>       0.00000000       0.00000000       0.50000000 </v>
    <v>      -0.00000000       0.50000000       0.00000000 </v>
    <v>       0.00000000       0.50000000       0.50000000 </v>
    <v>       0.50000000      -0.00000000      -0.00000000 </v>
    <v>       0.50000000      -0.00000000       0.50000000 </v>
    <v>       0.50000000       0.50000000      -0.00000000 </v>
    <v>       0.50000000       0.50000000       0.50000000 </v>
    <v>       0.25000000       0.25000000       0.25000000 </v>
    <v>       0.25000000       0.25000000       0.75000000 </v>
    <v>       0.25000000       0.75000000       0.25000000 </v>
    <v>       0.25000000       0.75000000       0.75000000 </v>
    <v>       0.75000000       0.25000000       0.25000000 </v>
    <v>       0.75000000       0.25000000       0.75000000 </v>
    <v>       0.75000000       0.75000000       0.25000000 </v>
    <v>       0.75000000       0.75000000       0.75000000 </v>
   </varray>
  </structure>
  <varray name="forces" >
   <v>       0.00000000      -0.00000000      -0.00000000 </v>
   <v>       0.00000000      -0.00000000       0.00000000 </v>
   <v>       0.00000000      -0.00000000      -0.00000000 </v>
   <v>       0.00000000       0.00000000      -0.00000000 </v>
   <v>       0.00000000      -0.00000000       0.00000000 </v>
   <v>      -0.00000000       0.00000000       0.00000000 </v>
   <v>      -0.00000000       0.00000000      -0.00000000 </v>
   <v>       0.00000000       0.00000000      -0.00000000 </v>
   <v>      -0.00000000      -0.00000000       0.00000000 </v>
   <v>      -0.00000000       0.00000000       0.00000000 </v>
   <v>      -0.00000000       0.00000000       0.00000000 </v>
   <v>      -0.00000000       0.00000000       0.00000000 </v>
   <v>      -0.00000000       0.00000000       0.00000000 </v>
   <v>      -0.00000000      -0.00000000       0.00000000 </v>
   <v>      -0.00000000      -0.00000000       0.00000000 </v>
   <v>      -0.00000000       0.00000000       0.00000000 </v>
  </varray>
  <varray name="stress" >
   <v>       0.39451758       0.00000000       0.00000000 </v>
   <v>       0.00000000       0.39451758       0.00000000 </v>
   <v>       0.00000000      -0.00000000      -1.00993339 </v>
  </varray>
  <energy>
   <i name="e_fr_energy">    -99.17527719 </i>
   <i name="e_wo_entrp">    -99.11176376 </i>
   <i name="e_0_energy">    -99.14352047 </i>
  </energy>
  <time name="totalsc">   19.21   19.21</time>
 </calculation>
 <calculation>
  <scstep>
   <time name="dav">    2.80    2.80</time>
   <time name="total">    2.85    2.85</time>
   <energy>
    <i name="alphaZ">    302.45033193 </i>
    <i name="ewald">  -8685.12768637 </i>
    <i name="hartreedc">  -3929.72614559 </i>
    <i name="XCdc">    279.29825446 </i>
    <i name="pawpsdc">  13271.58922010 </i>
    <i name="pawaedc"> -12832.76691174 </i>
    <i name="eentropy">     -0.06423504 </i>
    <i name="bandstr">  -1637.81662108 </i>
    <i name="atom">  13132.98755513 </i>
    <i name="e_fr_energy">    -99.17623819 </i>
    <i name="e_wo_entrp">    -99.11200315 </i>
    <i name="e_0_energy">    -99.14412067 </i>
   </energy>
  </scstep>
  <scstep>
   <time name="dav">    2.76    2.76</time>
   <time name="total">    2.81    2.81</time>
   <energy>
    <i name="e_fr_energy">    -99.17556716 </i>
    <i name="e_wo_entrp">    -99.11186561 </i>
    <i name="e_0_energy">    -99.14371638 </i>
   </energy>
  </scstep>
  <scstep>
   <time name="dav">    3.24    3.24</time>
   <time name="total">    3.29    3.29</time>
   <energy>
    <i name="e_fr_energy">    -99.17539788 </i>
    <i name="e_wo_entrp">    -99.11187420 </i>
    <i name="e_0_energy">    -99.14363604 </i>
   </energy>
  </scstep>
  <scstep>
   <time name="dav">    4.08    4.08</time>
   <time name="total">    4.13    4.13</time>
   <energy>
    <i name="e_fr_energy">    -99.17536379 </i>
    <i name="e_wo_entrp">    -99.11199368 </i>
    <i name="e_0_energy">    -99.14367873 </i>
   </energy>
  </scstep>
  <scstep>
   <time name="dav">    2.28    2.28</time>
   <time name="total">    2.30    2.30</time>
   <energy>
    <i name="alphaZ">    302.45033193 </i>
    <i name="ewald">  -8685.12768637 </i>
    <i name="hartreedc">  -3928.95354321 </i>
    <i name="XCdc">    279.26993190 </i>
    <i name="pawpsdc">  13272.95515966 </i>
    <i name="pawaedc"> -12834.16041498 </i>
    <i name="eentropy">     -0.06339308 </i>
    <i name="bandstr">  -1638.53330521 </i>
    <i name="atom">  13132.98755513 </i>
    <i name="e_fr_energy">    -99.17536423 </i>
    <i name="e_wo_entrp">    -99.11197115 </i>
    <i name="e_0_energy">    -99.14366769 </i>
   </energy>
  </scstep>
  <structure>
   <crystal>
    <varray name="basis" >
     <v>       5.65068177       0.00000000       0.00000000 </v>
     <v>       0.00000000       5.65068177       0.00000000 </v>
     <v>       0.00000000       0.00000000       8.12462919 </v>
    </varray>
    <i name="volume">    259.42107139 </i>
    <varray name="rec_basis" >
     <v>       0.17696980       0.00000000       0.00000000 </v>
     <v>       0.00000000       0.17696980      -0.00000000 </v>
     <v>       0.00000000      -0.00000000       0.12308254 </v>
    </varray>
   </crystal>
   <varray name="positions" >
    <v>       0.00000000       0.00000000      -0.00000000 </v>
    <v>       0.00000000       0.00000000       0.50000000 </v>
    <v>       0.00000000       0.50000000      -0.00000000 </v>
    <v>       0.00000000       0.50000000       0.50000000 </v>
    <v>       0.50000000      -0.00000000       0.00000000 </v>
    <v>       0.50000000       0.00000000       0.50000000 </v>
    <v>       0.50000000       0.50000000      -0.00000000 </v>
    <v>       0.50000000       0.50000000       0.50000000 </v>
    <v>       0.25000000       0.25000000       0.25000000 </v>
    <v>       0.25000000       0.25000000       0.75000000 </v>
    <v>       0.25000000       0.75000000       0.25000000 </v>
    <v>       0.25000000       0.75000000       0.75000000 </v>
    <v>       0.75000000       0.25000000       0.25000000 </v>
    <v>       0.75000000       0.25000000       0.75000000 </v>
    <v>       0.75000000       0.75000000       0.25000000 </v>
    <v>       0.75000000       0.75000000       0.75000000 </v>
   </varray>
  </structure>
  <varray name="forces" >
   <v>      -0.00000000       0.00000000      -0.00000000 </v>
   <v>      -0.00000000      -0.00000000       0.00000000 </v>
   <v>      -0.00000000      -0.00000000      -0.00000000 </v>
   <v>       0.00000000      -0.00000000      -0.00000000 </v>
   <v>      -0.00000000      -0.00000000      -0.00000000 </v>
   <v>       0.00000000       0.00000000       0.00000000 </v>
   <v>      -0.00000000      -0.00000000      -0.00000000 </v>
   <v>       0.00000000      -0.00000000       0.00000000 </v>
   <v>      -0.00000000       0.00000000       0.00000000 </v>
   <v>      -0.00000000      -0.00000000       0.00000000 </v>
   <v>      -0.00000000       0.00000000       0.00000000 </v>
   <v>      -0.00000000       0.00000000       0.00000000 </v>
   <v>       0.00000000       0.00000000       0.00000000 </v>
   <v>       0.00000000       0.00000000       0.00000000 </v>
   <v>      -0.00000000      -0.00000000       0.00000000 </v>
   <v>       0.00000000       0.00000000       0.00000000 </v>
  </varray>
  <varray name="stress" >
   <v>       0.83096609       0.00000000      -0.00000000 </v>
   <v>       0.00000000       0.83096609      -0.00000000 </v>
   <v>       0.00000000       0.00000000       0.67061995 </v>
  </varray>
  <energy>
   <i name="e_fr_energy">    -99.17536423 </i>
   <i name="e_wo_entrp">    -99.11197115 </i>
   <i name="e_0_energy">    -99.14366769 </i>
  </energy>
  <time name="totalsc">   18.41   18.41</time>
  <eigenvalues>
   <array>
    <dimension dim="1">band</dimension>
    <dimension dim="2">kpoint</dimension>
    <dimension dim="3">spin</dimension>
    <field>eigene</field>
    <field>occ</field>
    <set>
     <set comment="spin 1">
      <set comment="kpoint 1">
       <r>  -48.3147    1.0000 </r>
       <r>  -48.3141    1.0000 </r>
       <r>  -48.2572    1.0000 </r>
       <r>  -48.2572    1.0000 </r>
       <r>  -48.2567    1.0000 </r>
       <r>  -48.2567    1.0000 </r>
       <r>  -48.2018    1.0000 </r>
       <r>  -48.2014    1.0000 </r>
       <r>  -24.7403    1.0000 </r>
       <r>  -24.7403    1.0000 </r>
       <r>  -24.7377    1.0000 </r>
       <r>  -24.7377    1.0000 </r>
       <r>  -24.7262    1.0000 </r>
       <r>  -24.7088    1.0000 </r>
       <r>  -24.6734    1.0000 </r>
       <r>  -24.6734    1.0000 </r>
       <r>  -24.6720    1.0000 </r>
       <r>  -24.6720    1.0000 </r>
       <r>  -24.6642    1.0000 </r>
       <r>  -24.6642    1.0000 </r>
       <r>  -24.6517    1.0000 </r>
       <r>  -24.6517    1.0000 </r>
       <r>  -24.6095    1.0000 </r>
       <r>  -24.5988    1.0000 </r>
       <r>  -24.2691    1.0000 </r>
       <r>  -24.2691    1.0000 </r>
       <r>  -24.2686    1.0000 </r>
       <r>  -24.2686    1.0000 </r>
       <r>  -24.2276    1.0000 </r>
       <r>  -24.2276    1.0000 </r>
       <r>  -24.2270    1.0000 </r>
       <r>  -24.2270    1.0000 </r>
       <r>   -0.7086    1.0000 </r>
       <r>    0.7706    1.0000 </r>
       <r>    3.0606    1.0000 </r>
       <r>    3.4128    1.0000 </r>
       <r>    3.4128    1.0000 </r>
       <r>    3.7596    1.0000 </r>
       <r>    3.7596    1.0000 </r>
       <r>    3.7981    1.0000 </r>
       <r>    3.7981    1.0000 </r>
       <r>    5.1320    1.0000 </r>
       <r>    5.3987    1.0000 </r>
       <r>    5.3987    1.0000 </r>
       <r>    5.8121    1.0000 </r>
       <r>    6.0601    1.0000 </r>
       <r>    6.0601    1.0000 </r>
       <r>    6.4645    1.0000 </r>
       <r>    6.6336    1.0000 </r>
       <r>    6.6336    1.0000 </r>
       <r>    7.1268    1.0000 </r>
       <r>    7.1268    1.0000 </r>
       <r>    7.1707    1.0000 </r>
       <r>    7.1707    1.0000 </r>
       <r>    7.4838    1.0000 </r>
       <r>    7.6543    1.0000 </r>
       <r>    7.8546    1.0000 </r>
       <r>    7.8546    1.0000 </r>
       <r>    7.9146    1.0000 </r>
       <r>    7.9904    1.0000 </r>
       <r>    8.0732    0.9997 </r>
       <r>    8.0732    0.9997 </r>
       <r>    8.1159    0.9974 </r>
       <r>    8.1159    0.9974 </r>
       <r>    8.9700    0.0000 </r>
       <r>    9.7007    0.0000 </r>
       <r>    9.7007    0.0000 </r>
       <r>   10.0469    0.0000 </r>
       <r>   10.0469    0.0000 </r>
       <r>   10.0841    0.0000 </r>
       <r>   10.0997    0.0000 </r>
       <r>   10.0997    0.0000 </r>
       <r>   10.1119    0.0000 </r>
       <r>   10.1119    0.0000 </r>
       <r>   10.4450    0.0000 </r>
       <r>   10.4681    0.0000 </r>
       <r>   10.4681    0.0000 </r>
       <r>   10.5972    0.0000 </r>
       <r>   10.5972    0.0000 </r>
       <r>   10.8223    0.0000 </r>
       <r>   10.8223    0.0000 </r>
       <r>   11.0411    0.0000 </r>
       <r>   11.6008    0.0000 </r>
       <r>   11.6144    0.0000 </r>
       <r>   12.1280    0.0000 </r>
       <r>   12.1280    0.0000 </r>
       <r>   12.4931    0.0000 </r>
       <r>   12.4931    0.0000 </r>
      </set>
      <set comment="kpoint 2">
       <r>  -48.3109    1.0000 </r>
       <r>  -48.3103    1.0000 </r>
       <r>  -48.2611    1.0000 </r>
       <r>  -48.2606    1.0000 </r>
       <r>  -48.2535    1.0000 </r>
       <r>  -48.2531    1.0000 </r>
       <r>  -48.2056    1.0000 </r>
       <r>  -48.2051    1.0000 </r>
       <r>  -24.7359    1.0000 </r>
       <r>  -24.7333    1.0000 </r>
       <r>  -24.7221    1.0000 </r>
       <r>  -24.7096    1.0000 </r>
       <r>  -24.7070    1.0000 </r>
       <r>  -24.7050    1.0000 </r>
       <r>  -24.6779    1.0000 </r>
       <r>  -24.6764    1.0000 </r>
       <r>  -24.6684    1.0000 </r>
       <r>  -24.6606    1.0000 </r>
       <r>  -24.6555    1.0000 </r>
       <r>  -24.6482    1.0000 </r>
       <r>  -24.6442    1.0000 </r>
       <r>  -24.6429    1.0000 </r>
       <r>  -24.6132    1.0000 </r>
       <r>  -24.6024    1.0000 </r>
       <r>  -24.3016    1.0000 </r>
       <r>  -24.3009    1.0000 </r>
       <r>  -24.2664    1.0000 </r>
       <r>  -24.2658    1.0000 </r>
       <r>  -24.2582    1.0000 </r>
       <r>  -24.2576    1.0000 </r>
       <r>  -24.2304    1.0000 </r>
       <r>  -24.2298    1.0000 </r>
       <r>   -0.5720    1.0000 </r>
       <r>    0.8709    1.0000 </r>
       <r>    2.4953    1.0000 </r>
       <r>    2.9965    1.0000 </r>
       <r>    3.2127    1.0000 </r>
       <r>    3.5246    1.0000 </r>
       <r>    3.8369    1.0000 </r>
       <r>    3.9325    1.0000 </r>
       <r>    5.0244    1.0000 </r>
       <r>    5.1684    1.0000 </r>
       <r>    5.4475    1.0000 </r>
       <r>    5.7302    1.0000 </r>
       <r>    5.8877    1.0000 </r>
       <r>    5.9272    1.0000 </r>
       <r>    6.0257    1.0000 </r>
       <r>    6.1992    1.0000 </r>
       <r>    6.5751    1.0000 </r>
       <r>    6.7069    1.0000 </r>
       <r>    6.7096    1.0000 </r>
       <r>    6.7923    1.0000 </r>
       <r>    7.0546    1.0000 </r>
       <r>    7.3355    1.0000 </r>
       <r>    7.5340    1.0000 </r>
       <r>    7.7277    1.0000 </r>
       <r>    7.8586    1.0000 </r>
       <r>    7.8680    1.0000 </r>
       <r>    7.9284    1.0000 </r>
       <r>    7.9702    1.0000 </r>
       <r>    7.9804    1.0000 </r>
       <r>    8.2230    0.8986 </r>
       <r>    8.2289    0.8831 </r>
       <r>    8.8916    0.0000 </r>
       <r>    9.0222    0.0000 </r>
       <r>    9.6857    0.0000 </r>
       <r>    9.7476    0.0000 </r>
       <r>    9.7816    0.0000 </r>
       <r>    9.8329    0.0000 </r>
       <r>   10.1318    0.0000 </r>
       <r>   10.1425    0.0000 </r>
       <r>   10.1848    0.0000 </r>
       <r>   10.2330    0.0000 </r>
       <r>   10.3840    0.0000 </r>
       <r>   10.4553    0.0000 </r>
       <r>   10.4908    0.0000 </r>
       <r>   10.5317    0.0000 </r>
       <r>   10.5452    0.0000 </r>
       <r>   10.5626    0.0000 </r>
       <r>   10.6223    0.0000 </r>
       <r>   10.7975    0.0000 </r>
       <r>   10.8072    0.0000 </r>
       <r>   11.3674    0.0000 </r>
       <r>   11.4678    0.0000 </r>
       <r>   11.4907    0.0000 </r>
       <r>   12.1321    0.0000 </r>
       <r>   12.2414    0.0000 </r>
       <r>   12.2415    0.0000 </r>
      </set>
      <set comment="kpoint 3">
       <r>  -48.3004    1.0000 </r>
       <r>  -48.2998    1.0000 </r>
       <r>  -48.2716    1.0000 </r>
       <r>  -48.2712    1.0000 </r>
       <r>  -48.2434    1.0000 </r>
       <r>  -48.2430    1.0000 </r>
       <r>  -48.2158    1.0000 </r>
       <r>  -48.2153    1.0000 </r>
       <r>  -24.7237    1.0000 </r>
       <r>  -24.7213    1.0000 </r>
       <r>  -24.7108    1.0000 </r>
       <r>  -24.6946    1.0000 </r>
       <r>  -24.6902    1.0000 </r>
       <r>  -24.6885    1.0000 </r>
       <r>  -24.6798    1.0000 </r>
       <r>  -24.6660    1.0000 </r>
       <r>  -24.6506    1.0000 </r>
       <r>  -24.6385    1.0000 </r>
       <r>  -24.6250    1.0000 </r>
       <r>  -24.6232    1.0000 </r>
       <r>  -24.6228    1.0000 </r>
       <r>  -24.6121    1.0000 </r>
       <r>  -24.5641    1.0000 </r>
       <r>  -24.5629    1.0000 </r>
       <r>  -24.3895    1.0000 </r>
       <r>  -24.3884    1.0000 </r>
       <r>  -24.3413    1.0000 </r>
       <r>  -24.3405    1.0000 </r>
       <r>  -24.2588    1.0000 </r>
       <r>  -24.2583    1.0000 </r>
       <r>  -24.2380    1.0000 </r>
       <r>  -24.2375    1.0000 </r>
       <r>   -0.1671    1.0000 </r>
       <r>    1.1683    1.0000 </r>
       <r>    1.3881    1.0000 </r>
       <r>    2.2882    1.0000 </r>
       <r>    3.6541    1.0000 </r>
       <r>    3.8545    1.0000 </r>
       <r>    4.0573    1.0000 </r>
       <r>    4.3266    1.0000 </r>
       <r>    4.7409    1.0000 </r>
       <r>    5.0536    1.0000 </r>
       <r>    5.2202    1.0000 </r>
       <r>    5.5801    1.0000 </r>
       <r>    5.7925    1.0000 </r>
       <r>    5.9204    1.0000 </r>
       <r>    6.1020    1.0000 </r>
       <r>    6.4834    1.0000 </r>
       <r>    6.7657    1.0000 </r>
       <r>    6.8664    1.0000 </r>
       <r>    6.9154    1.0000 </r>
       <r>    6.9291    1.0000 </r>
       <r>    6.9554    1.0000 </r>
       <r>    7.5720    1.0000 </r>
       <r>    7.6172    1.0000 </r>
       <r>    7.6491    1.0000 </r>
       <r>    7.7004    1.0000 </r>
       <r>    7.9138    1.0000 </r>
       <r>    7.9416    1.0000 </r>
       <r>    8.1554    0.9871 </r>
       <r>    8.1811    0.9690 </r>
       <r>    8.5606    0.0002 </r>
       <r>    8.6358    0.0000 </r>
       <r>    9.0888    0.0000 </r>
       <r>    9.1734    0.0000 </r>
       <r>    9.2117    0.0000 </r>
       <r>    9.4027    0.0000 </r>
       <r>    9.5944    0.0000 </r>
       <r>    9.7579    0.0000 </r>
       <r>    9.8787    0.0000 </r>
       <r>   10.0235    0.0000 </r>
       <r>   10.2273    0.0000 </r>
       <r>   10.3085    0.0000 </r>
       <r>   10.3737    0.0000 </r>
       <r>   10.4266    0.0000 </r>
       <r>   10.4349    0.0000 </r>
       <r>   10.4696    0.0000 </r>
       <r>   10.4949    0.0000 </r>
       <r>   10.5535    0.0000 </r>
       <r>   10.5913    0.0000 </r>
       <r>   10.7306    0.0000 </r>
       <r>   11.0322    0.0000 </r>
       <r>   11.1347    0.0000 </r>
       <r>   11.1740    0.0000 </r>
       <r>   11.4111    0.0000 </r>
       <r>   11.6916    0.0000 </r>
       <r>   11.7605    0.0000 </r>
       <r>   12.1175    0.0000 </r>
      </set>
      <set comment="kpoint 4">
       <r>  -48.2860    1.0000 </r>
       <r>  -48.2860    1.0000 </r>
       <r>  -48.2855    1.0000 </r>
       <r>  -48.2855    1.0000 </r>
       <r>  -48.2296    1.0000 </r>
       <r>  -48.2296    1.0000 </r>
       <r>  -48.2292    1.0000 </r>
       <r>  -48.2292    1.0000 </r>
       <r>  -24.7070    1.0000 </r>
       <r>  -24.7070    1.0000 </r>
       <r>  -24.7049    1.0000 </r>
       <r>  -24.7049    1.0000 </r>
       <r>  -24.6953    1.0000 </r>
       <r>  -24.6953    1.0000 </r>
       <r>  -24.6803    1.0000 </r>
       <r>  -24.6803    1.0000 </r>
       <r>  -24.6369    1.0000 </r>
       <r>  -24.6369    1.0000 </r>
       <r>  -24.6253    1.0000 </r>
       <r>  -24.6253    1.0000 </r>
       <r>  -24.5081    1.0000 </r>
       <r>  -24.5081    1.0000 </r>
       <r>  -24.5064    1.0000 </r>
       <r>  -24.5064    1.0000 </r>
       <r>  -24.4534    1.0000 </r>
       <r>  -24.4534    1.0000 </r>
       <r>  -24.4524    1.0000 </r>
       <r>  -24.4524    1.0000 </r>
       <r>  -24.2485    1.0000 </r>
       <r>  -24.2485    1.0000 </r>
       <r>  -24.2479    1.0000 </r>
       <r>  -24.2479    1.0000 </r>
       <r>    0.4926    1.0000 </r>
       <r>    0.4926    1.0000 </r>
       <r>    1.6504    1.0000 </r>
       <r>    1.6504    1.0000 </r>
       <r>    4.3437    1.0000 </r>
       <r>    4.3437    1.0000 </r>
       <r>    4.3816    1.0000 </r>
       <r>    4.3816    1.0000 </r>
       <r>    4.3828    1.0000 </r>
       <r>    4.3828    1.0000 </r>
       <r>    4.9570    1.0000 </r>
       <r>    4.9570    1.0000 </r>
       <r>    5.7567    1.0000 </r>
       <r>    5.7567    1.0000 </r>
       <r>    6.4165    1.0000 </r>
       <r>    6.4165    1.0000 </r>
       <r>    7.1708    1.0000 </r>
       <r>    7.1708    1.0000 </r>
       <r>    7.2239    1.0000 </r>
       <r>    7.2239    1.0000 </r>
       <r>    7.2626    1.0000 </r>
       <r>    7.2626    1.0000 </r>
       <r>    7.5037    1.0000 </r>
       <r>    7.5037    1.0000 </r>
       <r>    8.0698    0.9997 </r>
       <r>    8.0698    0.9997 </r>
       <r>    8.1102    0.9979 </r>
       <r>    8.1102    0.9979 </r>
       <r>    8.6286    0.0000 </r>
       <r>    8.6286    0.0000 </r>
       <r>    8.8844    0.0000 </r>
       <r>    8.8844    0.0000 </r>
       <r>    9.0868    0.0000 </r>
       <r>    9.0868    0.0000 </r>
       <r>    9.1620    0.0000 </r>
       <r>    9.1620    0.0000 </r>
       <r>    9.3931    0.0000 </r>
       <r>    9.3931    0.0000 </r>
       <r>   10.0677    0.0000 </r>
       <r>   10.0677    0.0000 </r>
       <r>   10.3464    0.0000 </r>
       <r>   10.3464    0.0000 </r>
       <r>   10.3787    0.0000 </r>
       <r>   10.3787    0.0000 </r>
       <r>   10.6410    0.0000 </r>
       <r>   10.6410    0.0000 </r>
       <r>   10.7325    0.0000 </r>
       <r>   10.7325    0.0000 </r>
       <r>   10.7821    0.0000 </r>
       <r>   10.7821    0.0000 </r>
       <r>   11.1011    0.0000 </r>
       <r>   11.1011    0.0000 </r>
       <r>   11.6195    0.0000 </r>
       <r>   11.6195    0.0000 </r>
       <r>   11.9607    0.0000 </r>
       <r>   11.9607    0.0000 </r>
      </set>
      <set comment="kpoint 5">
       <r>  -48.3071    1.0000 </r>
       <r>  -48.3065    1.0000 </r>
       <r>  -48.2574    1.0000 </r>
       <r>  -48.2574    1.0000 </r>
       <r>  -48.2569    1.0000 </r>
       <r>  -48.2569    1.0000 </r>
       <r>  -48.2093    1.0000 </r>
       <r>  -48.2089    1.0000 </r>
       <r>  -24.7180    1.0000 </r>
       <r>  -24.7052    1.0000 </r>
       <r>  -24.7052    1.0000 </r>
       <r>  -24.7028    1.0000 </r>
       <r>  -24.7028    1.0000 </r>
       <r>  -24.7012    1.0000 </r>
       <r>  -24.6647    1.0000 </r>
       <r>  -24.6647    1.0000 </r>
       <r>  -24.6520    1.0000 </r>
       <r>  -24.6520    1.0000 </r>
       <r>  -24.6504    1.0000 </r>
       <r>  -24.6489    1.0000 </r>
       <r>  -24.6469    1.0000 </r>
       <r>  -24.6455    1.0000 </r>
       <r>  -24.6169    1.0000 </r>
       <r>  -24.6060    1.0000 </r>
       <r>  -24.3005    1.0000 </r>
       <r>  -24.2997    1.0000 </r>
       <r>  -24.2968    1.0000 </r>
       <r>  -24.2962    1.0000 </r>
       <r>  -24.2611    1.0000 </r>
       <r>  -24.2611    1.0000 </r>
       <r>  -24.2605    1.0000 </r>
       <r>  -24.2605    1.0000 </r>
       <r>   -0.4362    1.0000 </r>
       <r>    0.9714    1.0000 </r>
       <r>    2.6105    1.0000 </r>
       <r>    2.6105    1.0000 </r>
       <r>    3.1027    1.0000 </r>
       <r>    3.1027    1.0000 </r>
       <r>    3.3626    1.0000 </r>
       <r>    4.7362    1.0000 </r>
       <r>    5.2511    1.0000 </r>
       <r>    5.2611    1.0000 </r>
       <r>    5.2611    1.0000 </r>
       <r>    5.9440    1.0000 </r>
       <r>    5.9760    1.0000 </r>
       <r>    5.9760    1.0000 </r>
       <r>    6.2545    1.0000 </r>
       <r>    6.2647    1.0000 </r>
       <r>    6.2647    1.0000 </r>
       <r>    6.6778    1.0000 </r>
       <r>    6.6826    1.0000 </r>
       <r>    6.7803    1.0000 </r>
       <r>    6.7803    1.0000 </r>
       <r>    7.5898    1.0000 </r>
       <r>    7.7855    1.0000 </r>
       <r>    7.8062    1.0000 </r>
       <r>    7.9235    1.0000 </r>
       <r>    7.9235    1.0000 </r>
       <r>    7.9419    1.0000 </r>
       <r>    7.9521    1.0000 </r>
       <r>    8.1040    0.9985 </r>
       <r>    8.1040    0.9985 </r>
       <r>    8.2527    0.8034 </r>
       <r>    9.0727    0.0000 </r>
       <r>    9.1867    0.0000 </r>
       <r>    9.7052    0.0000 </r>
       <r>    9.7052    0.0000 </r>
       <r>    9.7220    0.0000 </r>
       <r>    9.9043    0.0000 </r>
       <r>    9.9043    0.0000 </r>
       <r>   10.0222    0.0000 </r>
       <r>   10.2706    0.0000 </r>
       <r>   10.2706    0.0000 </r>
       <r>   10.2864    0.0000 </r>
       <r>   10.3147    0.0000 </r>
       <r>   10.4189    0.0000 </r>
       <r>   10.4189    0.0000 </r>
       <r>   10.4984    0.0000 </r>
       <r>   10.4984    0.0000 </r>
       <r>   10.6092    0.0000 </r>
       <r>   10.9066    0.0000 </r>
       <r>   10.9667    0.0000 </r>
       <r>   11.1592    0.0000 </r>
       <r>   11.3208    0.0000 </r>
       <r>   11.3592    0.0000 </r>
       <r>   11.4815    0.0000 </r>
       <r>   12.2142    0.0000 </r>
       <r>   12.2636    0.0000 </r>
      </set>
      <set comment="kpoint 6">
       <r>  -48.2966    1.0000 </r>
       <r>  -48.2960    1.0000 </r>
       <r>  -48.2679    1.0000 </r>
       <r>  -48.2674    1.0000 </r>
       <r>  -48.2473    1.0000 </r>
       <r>  -48.2468    1.0000 </r>
       <r>  -48.2195    1.0000 </r>
       <r>  -48.2191    1.0000 </r>
       <r>  -24.7067    1.0000 </r>
       <r>  -24.6934    1.0000 </r>
       <r>  -24.6911    1.0000 </r>
       <r>  -24.6909    1.0000 </r>
       <r>  -24.6760    1.0000 </r>
       <r>  -24.6624    1.0000 </r>
       <r>  -24.6607    1.0000 </r>
       <r>  -24.6591    1.0000 </r>
       <r>  -24.6547    1.0000 </r>
       <r>  -24.6423    1.0000 </r>
       <r>  -24.6270    1.0000 </r>
       <r>  -24.6210    1.0000 </r>
       <r>  -24.6189    1.0000 </r>
       <r>  -24.6157    1.0000 </r>
       <r>  -24.5681    1.0000 </r>
       <r>  -24.5668    1.0000 </r>
       <r>  -24.3864    1.0000 </r>
       <r>  -24.3853    1.0000 </r>
       <r>  -24.3445    1.0000 </r>
       <r>  -24.3437    1.0000 </r>
       <r>  -24.2907    1.0000 </r>
       <r>  -24.2900    1.0000 </r>
       <r>  -24.2691    1.0000 </r>
       <r>  -24.2684    1.0000 </r>
       <r>   -0.0338    1.0000 </r>
       <r>    1.2691    1.0000 </r>
       <r>    1.5113    1.0000 </r>
       <r>    2.3911    1.0000 </r>
       <r>    2.9460    1.0000 </r>
       <r>    3.4158    1.0000 </r>
       <r>    3.7968    1.0000 </r>
       <r>    4.1150    1.0000 </r>
       <r>    4.5586    1.0000 </r>
       <r>    5.3236    1.0000 </r>
       <r>    5.5245    1.0000 </r>
       <r>    6.0916    1.0000 </r>
       <r>    6.1044    1.0000 </r>
       <r>    6.3385    1.0000 </r>
       <r>    6.3395    1.0000 </r>
       <r>    6.3445    1.0000 </r>
       <r>    6.5551    1.0000 </r>
       <r>    6.9615    1.0000 </r>
       <r>    6.9787    1.0000 </r>
       <r>    6.9911    1.0000 </r>
       <r>    6.9915    1.0000 </r>
       <r>    7.5606    1.0000 </r>
       <r>    7.6703    1.0000 </r>
       <r>    7.6921    1.0000 </r>
       <r>    7.8191    1.0000 </r>
       <r>    8.0073    1.0000 </r>
       <r>    8.1483    0.9901 </r>
       <r>    8.2395    0.8510 </r>
       <r>    8.2581    0.7817 </r>
       <r>    8.4234    0.0595 </r>
       <r>    8.5403    0.0007 </r>
       <r>    9.0609    0.0000 </r>
       <r>    9.2187    0.0000 </r>
       <r>    9.4631    0.0000 </r>
       <r>    9.5309    0.0000 </r>
       <r>    9.6119    0.0000 </r>
       <r>    9.7189    0.0000 </r>
       <r>    9.7980    0.0000 </r>
       <r>    9.9651    0.0000 </r>
       <r>   10.0712    0.0000 </r>
       <r>   10.1904    0.0000 </r>
       <r>   10.2105    0.0000 </r>
       <r>   10.2600    0.0000 </r>
       <r>   10.3267    0.0000 </r>
       <r>   10.3521    0.0000 </r>
       <r>   10.3586    0.0000 </r>
       <r>   10.3703    0.0000 </r>
       <r>   10.3753    0.0000 </r>
       <r>   10.4848    0.0000 </r>
       <r>   10.9626    0.0000 </r>
       <r>   11.0272    0.0000 </r>
       <r>   11.0818    0.0000 </r>
       <r>   11.4719    0.0000 </r>
       <r>   11.6832    0.0000 </r>
       <r>   11.7907    0.0000 </r>
       <r>   12.0398    0.0000 </r>
      </set>
      <set comment="kpoint 7">
       <r>  -48.2823    1.0000 </r>
       <r>  -48.2823    1.0000 </r>
       <r>  -48.2818    1.0000 </r>
       <r>  -48.2818    1.0000 </r>
       <r>  -48.2334    1.0000 </r>
       <r>  -48.2334    1.0000 </r>
       <r>  -48.2330    1.0000 </r>
       <r>  -48.2330    1.0000 </r>
       <r>  -24.6914    1.0000 </r>
       <r>  -24.6914    1.0000 </r>
       <r>  -24.6771    1.0000 </r>
       <r>  -24.6771    1.0000 </r>
       <r>  -24.6767    1.0000 </r>
       <r>  -24.6767    1.0000 </r>
       <r>  -24.6751    1.0000 </r>
       <r>  -24.6751    1.0000 </r>
       <r>  -24.6408    1.0000 </r>
       <r>  -24.6408    1.0000 </r>
       <r>  -24.6290    1.0000 </r>
       <r>  -24.6290    1.0000 </r>
       <r>  -24.5045    1.0000 </r>
       <r>  -24.5045    1.0000 </r>
       <r>  -24.5029    1.0000 </r>
       <r>  -24.5029    1.0000 </r>
       <r>  -24.4570    1.0000 </r>
       <r>  -24.4570    1.0000 </r>
       <r>  -24.4559    1.0000 </r>
       <r>  -24.4559    1.0000 </r>
       <r>  -24.2799    1.0000 </r>
       <r>  -24.2799    1.0000 </r>
       <r>  -24.2792    1.0000 </r>
       <r>  -24.2792    1.0000 </r>
       <r>    0.6217    1.0000 </r>
       <r>    0.6217    1.0000 </r>
       <r>    1.7520    1.0000 </r>
       <r>    1.7520    1.0000 </r>
       <r>    3.4694    1.0000 </r>
       <r>    3.4694    1.0000 </r>
       <r>    3.9158    1.0000 </r>
       <r>    3.9158    1.0000 </r>
       <r>    4.4718    1.0000 </r>
       <r>    4.4718    1.0000 </r>
       <r>    5.9139    1.0000 </r>
       <r>    5.9139    1.0000 </r>
       <r>    6.2556    1.0000 </r>
       <r>    6.2556    1.0000 </r>
       <r>    6.2625    1.0000 </r>
       <r>    6.2625    1.0000 </r>
       <r>    7.2240    1.0000 </r>
       <r>    7.2240    1.0000 </r>
       <r>    7.2624    1.0000 </r>
       <r>    7.2624    1.0000 </r>
       <r>    7.3098    1.0000 </r>
       <r>    7.3098    1.0000 </r>
       <r>    7.6268    1.0000 </r>
       <r>    7.6268    1.0000 </r>
       <r>    8.0792    0.9995 </r>
       <r>    8.0792    0.9995 </r>
       <r>    8.2209    0.9039 </r>
       <r>    8.2209    0.9039 </r>
       <r>    8.4662    0.0152 </r>
       <r>    8.4662    0.0152 </r>
       <r>    8.9659    0.0000 </r>
       <r>    8.9659    0.0000 </r>
       <r>    9.0540    0.0000 </r>
       <r>    9.0540    0.0000 </r>
       <r>    9.3883    0.0000 </r>
       <r>    9.3883    0.0000 </r>
       <r>    9.4296    0.0000 </r>
       <r>    9.4296    0.0000 </r>
       <r>    9.9806    0.0000 </r>
       <r>    9.9806    0.0000 </r>
       <r>   10.2164    0.0000 </r>
       <r>   10.2164    0.0000 </r>
       <r>   10.2270    0.0000 </r>
       <r>   10.2270    0.0000 </r>
       <r>   10.2686    0.0000 </r>
       <r>   10.2686    0.0000 </r>
       <r>   10.5684    0.0000 </r>
       <r>   10.5684    0.0000 </r>
       <r>   10.6401    0.0000 </r>
       <r>   10.6401    0.0000 </r>
       <r>   10.7695    0.0000 </r>
       <r>   10.7695    0.0000 </r>
       <r>   12.0185    0.0000 </r>
       <r>   12.0185    0.0000 </r>
       <r>   12.0720    0.0000 </r>
       <r>   12.0720    0.0000 </r>
      </set>
      <set comment="kpoint 8">
       <r>  -48.2862    1.0000 </r>
       <r>  -48.2857    1.0000 </r>
       <r>  -48.2578    1.0000 </r>
       <r>  -48.2578    1.0000 </r>
       <r>  -48.2573    1.0000 </r>
       <r>  -48.2573    1.0000 </r>
       <r>  -48.2298    1.0000 </r>
       <r>  -48.2293    1.0000 </r>
       <r>  -24.6958    1.0000 </r>
       <r>  -24.6807    1.0000 </r>
       <r>  -24.6657    1.0000 </r>
       <r>  -24.6657    1.0000 </r>
       <r>  -24.6526    1.0000 </r>
       <r>  -24.6526    1.0000 </r>
       <r>  -24.6374    1.0000 </r>
       <r>  -24.6257    1.0000 </r>
       <r>  -24.6100    1.0000 </r>
       <r>  -24.6100    1.0000 </r>
       <r>  -24.6080    1.0000 </r>
       <r>  -24.6080    1.0000 </r>
       <r>  -24.5847    1.0000 </r>
       <r>  -24.5830    1.0000 </r>
       <r>  -24.5741    1.0000 </r>
       <r>  -24.5729    1.0000 </r>
       <r>  -24.3830    1.0000 </r>
       <r>  -24.3816    1.0000 </r>
       <r>  -24.3720    1.0000 </r>
       <r>  -24.3712    1.0000 </r>
       <r>  -24.3532    1.0000 </r>
       <r>  -24.3532    1.0000 </r>
       <r>  -24.3524    1.0000 </r>
       <r>  -24.3524    1.0000 </r>
       <r>    0.3611    1.0000 </r>
       <r>    1.5681    1.0000 </r>
       <r>    1.8745    1.0000 </r>
       <r>    1.8745    1.0000 </r>
       <r>    2.6952    1.0000 </r>
       <r>    2.6952    1.0000 </r>
       <r>    3.2288    1.0000 </r>
       <r>    3.8302    1.0000 </r>
       <r>    4.2057    1.0000 </r>
       <r>    5.5808    1.0000 </r>
       <r>    5.5808    1.0000 </r>
       <r>    6.0297    1.0000 </r>
       <r>    6.7399    1.0000 </r>
       <r>    6.7399    1.0000 </r>
       <r>    6.8232    1.0000 </r>
       <r>    6.8895    1.0000 </r>
       <r>    7.0622    1.0000 </r>
       <r>    7.0622    1.0000 </r>
       <r>    7.1563    1.0000 </r>
       <r>    7.1563    1.0000 </r>
       <r>    7.1925    1.0000 </r>
       <r>    7.5008    1.0000 </r>
       <r>    7.6188    1.0000 </r>
       <r>    7.8620    1.0000 </r>
       <r>    8.0975    0.9989 </r>
       <r>    8.0975    0.9989 </r>
       <r>    8.1382    0.9933 </r>
       <r>    8.2565    0.7885 </r>
       <r>    8.5793    0.0001 </r>
       <r>    8.5793    0.0001 </r>
       <r>    8.6397    0.0000 </r>
       <r>    8.7772    0.0000 </r>
       <r>    9.3489    0.0000 </r>
       <r>    9.6425    0.0000 </r>
       <r>    9.6425    0.0000 </r>
       <r>    9.6586    0.0000 </r>
       <r>    9.6586    0.0000 </r>
       <r>    9.7606    0.0000 </r>
       <r>    9.7984    0.0000 </r>
       <r>    9.8098    0.0000 </r>
       <r>    9.8709    0.0000 </r>
       <r>    9.8856    0.0000 </r>
       <r>    9.8856    0.0000 </r>
       <r>    9.9705    0.0000 </r>
       <r>   10.1063    0.0000 </r>
       <r>   10.1681    0.0000 </r>
       <r>   10.1681    0.0000 </r>
       <r>   10.2676    0.0000 </r>
       <r>   10.2676    0.0000 </r>
       <r>   10.3491    0.0000 </r>
       <r>   10.5680    0.0000 </r>
       <r>   10.6666    0.0000 </r>
       <r>   11.7916    0.0000 </r>
       <r>   11.8430    0.0000 </r>
       <r>   11.8430    0.0000 </r>
       <r>   12.1166    0.0000 </r>
      </set>
      <set comment="kpoint 9">
       <r>  -48.2720    1.0000 </r>
       <r>  -48.2720    1.0000 </r>
       <r>  -48.2715    1.0000 </r>
       <r>  -48.2715    1.0000 </r>
       <r>  -48.2438    1.0000 </r>
       <r>  -48.2438    1.0000 </r>
       <r>  -48.2433    1.0000 </r>
       <r>  -48.2433    1.0000 </r>
       <r>  -24.6808    1.0000 </r>
       <r>  -24.6808    1.0000 </r>
       <r>  -24.6667    1.0000 </r>
       <r>  -24.6667    1.0000 </r>
       <r>  -24.6516    1.0000 </r>
       <r>  -24.6516    1.0000 </r>
       <r>  -24.6391    1.0000 </r>
       <r>  -24.6391    1.0000 </r>
       <r>  -24.5949    1.0000 </r>
       <r>  -24.5949    1.0000 </r>
       <r>  -24.5932    1.0000 </r>
       <r>  -24.5932    1.0000 </r>
       <r>  -24.4948    1.0000 </r>
       <r>  -24.4948    1.0000 </r>
       <r>  -24.4932    1.0000 </r>
       <r>  -24.4932    1.0000 </r>
       <r>  -24.4668    1.0000 </r>
       <r>  -24.4668    1.0000 </r>
       <r>  -24.4657    1.0000 </r>
       <r>  -24.4657    1.0000 </r>
       <r>  -24.3651    1.0000 </r>
       <r>  -24.3651    1.0000 </r>
       <r>  -24.3642    1.0000 </r>
       <r>  -24.3642    1.0000 </r>
       <r>    1.0038    1.0000 </r>
       <r>    1.0038    1.0000 </r>
       <r>    2.0529    1.0000 </r>
       <r>    2.0529    1.0000 </r>
       <r>    2.4582    1.0000 </r>
       <r>    2.4582    1.0000 </r>
       <r>    3.1855    1.0000 </r>
       <r>    3.1855    1.0000 </r>
       <r>    4.8277    1.0000 </r>
       <r>    4.8277    1.0000 </r>
       <r>    5.8567    1.0000 </r>
       <r>    5.8567    1.0000 </r>
       <r>    6.9365    1.0000 </r>
       <r>    6.9365    1.0000 </r>
       <r>    7.0553    1.0000 </r>
       <r>    7.0553    1.0000 </r>
       <r>    7.3479    1.0000 </r>
       <r>    7.3479    1.0000 </r>
       <r>    7.3554    1.0000 </r>
       <r>    7.3554    1.0000 </r>
       <r>    7.4039    1.0000 </r>
       <r>    7.4039    1.0000 </r>
       <r>    7.9247    1.0000 </r>
       <r>    7.9247    1.0000 </r>
       <r>    8.0296    1.0000 </r>
       <r>    8.0296    1.0000 </r>
       <r>    8.2378    0.8567 </r>
       <r>    8.2378    0.8567 </r>
       <r>    8.5393    0.0007 </r>
       <r>    8.5393    0.0007 </r>
       <r>    9.0340    0.0000 </r>
       <r>    9.0340    0.0000 </r>
       <r>    9.1461    0.0000 </r>
       <r>    9.1461    0.0000 </r>
       <r>    9.5284    0.0000 </r>
       <r>    9.5284    0.0000 </r>
       <r>    9.6346    0.0000 </r>
       <r>    9.6346    0.0000 </r>
       <r>    9.7365    0.0000 </r>
       <r>    9.7365    0.0000 </r>
       <r>    9.7546    0.0000 </r>
       <r>    9.7546    0.0000 </r>
       <r>    9.9558    0.0000 </r>
       <r>    9.9558    0.0000 </r>
       <r>   10.0269    0.0000 </r>
       <r>   10.0269    0.0000 </r>
       <r>   10.2058    0.0000 </r>
       <r>   10.2058    0.0000 </r>
       <r>   10.2342    0.0000 </r>
       <r>   10.2342    0.0000 </r>
       <r>   10.3030    0.0000 </r>
       <r>   10.3030    0.0000 </r>
       <r>   11.8236    0.0000 </r>
       <r>   11.8236    0.0000 </r>
       <r>   12.1133    0.0000 </r>
       <r>   12.1133    0.0000 </r>
      </set>
      <set comment="kpoint 10">
       <r>  -48.2579    1.0000 </r>
       <r>  -48.2579    1.0000 </r>
       <r>  -48.2579    1.0000 </r>
       <r>  -48.2579    1.0000 </r>
       <r>  -48.2574    1.0000 </r>
       <r>  -48.2574    1.0000 </r>
       <r>  -48.2574    1.0000 </r>
       <r>  -48.2574    1.0000 </r>
       <r>  -24.6662    1.0000 </r>
       <r>  -24.6662    1.0000 </r>
       <r>  -24.6662    1.0000 </r>
       <r>  -24.6662    1.0000 </r>
       <r>  -24.6529    1.0000 </r>
       <r>  -24.6529    1.0000 </r>
       <r>  -24.6529    1.0000 </r>
       <r>  -24.6529    1.0000 </r>
       <r>  -24.4880    1.0000 </r>
       <r>  -24.4880    1.0000 </r>
       <r>  -24.4880    1.0000 </r>
       <r>  -24.4880    1.0000 </r>
       <r>  -24.4863    1.0000 </r>
       <r>  -24.4863    1.0000 </r>
       <r>  -24.4863    1.0000 </r>
       <r>  -24.4863    1.0000 </r>
       <r>  -24.4736    1.0000 </r>
       <r>  -24.4736    1.0000 </r>
       <r>  -24.4736    1.0000 </r>
       <r>  -24.4736    1.0000 </r>
       <r>  -24.4726    1.0000 </r>
       <r>  -24.4726    1.0000 </r>
       <r>  -24.4726    1.0000 </r>
       <r>  -24.4726    1.0000 </r>
       <r>    1.6237    1.0000 </r>
       <r>    1.6237    1.0000 </r>
       <r>    1.6237    1.0000 </r>
       <r>    1.6237    1.0000 </r>
       <r>    2.5401    1.0000 </r>
       <r>    2.5401    1.0000 </r>
       <r>    2.5401    1.0000 </r>
       <r>    2.5401    1.0000 </r>
       <r>    5.3301    1.0000 </r>
       <r>    5.3301    1.0000 </r>
       <r>    5.3301    1.0000 </r>
       <r>    5.3301    1.0000 </r>
       <r>    7.4012    1.0000 </r>
       <r>    7.4012    1.0000 </r>
       <r>    7.4012    1.0000 </r>
       <r>    7.4012    1.0000 </r>
       <r>    7.4308    1.0000 </r>
       <r>    7.4308    1.0000 </r>
       <r>    7.4308    1.0000 </r>
       <r>    7.4308    1.0000 </r>
       <r>    7.7105    1.0000 </r>
       <r>    7.7105    1.0000 </r>
       <r>    7.7105    1.0000 </r>
       <r>    7.7105    1.0000 </r>
       <r>    8.1292    0.9953 </r>
       <r>    8.1292    0.9953 </r>
       <r>    8.1292    0.9953 </r>
       <r>    8.1292    0.9953 </r>
       <r>    8.9881    0.0000 </r>
       <r>    8.9881    0.0000 </r>
       <r>    8.9881    0.0000 </r>
       <r>    8.9881    0.0000 </r>
       <r>    9.2025    0.0000 </r>
       <r>    9.2025    0.0000 </r>
       <r>    9.2025    0.0000 </r>
       <r>    9.2025    0.0000 </r>
       <r>    9.6135    0.0000 </r>
       <r>    9.6135    0.0000 </r>
       <r>    9.6135    0.0000 </r>
       <r>    9.6135    0.0000 </r>
       <r>    9.8592    0.0000 </r>
       <r>    9.8592    0.0000 </r>
       <r>    9.8592    0.0000 </r>
       <r>    9.8592    0.0000 </r>
       <r>    9.9383    0.0000 </r>
       <r>    9.9383    0.0000 </r>
       <r>    9.9383    0.0000 </r>
       <r>    9.9383    0.0000 </r>
       <r>   10.0324    0.0000 </r>
       <r>   10.0324    0.0000 </r>
       <r>   10.0324    0.0000 </r>
       <r>   10.0324    0.0000 </r>
       <r>   11.9677    0.0000 </r>
       <r>   11.9677    0.0000 </r>
       <r>   11.9677    0.0000 </r>
       <r>   11.9677    0.0000 </r>
      </set>
      <set comment="kpoint 11">
       <r>  -48.3146    1.0000 </r>
       <r>  -48.3142    1.0000 </r>
       <r>  -48.2571    1.0000 </r>
       <r>  -48.2571    1.0000 </r>
       <r>  -48.2568    1.0000 </r>
       <r>  -48.2568    1.0000 </r>
       <r>  -48.2018    1.0000 </r>
       <r>  -48.2015    1.0000 </r>
       <r>  -24.7399    1.0000 </r>
       <r>  -24.7399    1.0000 </r>
       <r>  -24.7381    1.0000 </r>
       <r>  -24.7381    1.0000 </r>
       <r>  -24.7237    1.0000 </r>
       <r>  -24.7114    1.0000 </r>
       <r>  -24.6732    1.0000 </r>
       <r>  -24.6732    1.0000 </r>
       <r>  -24.6722    1.0000 </r>
       <r>  -24.6722    1.0000 </r>
       <r>  -24.6624    1.0000 </r>
       <r>  -24.6624    1.0000 </r>
       <r>  -24.6535    1.0000 </r>
       <r>  -24.6535    1.0000 </r>
       <r>  -24.6079    1.0000 </r>
       <r>  -24.6004    1.0000 </r>
       <r>  -24.2691    1.0000 </r>
       <r>  -24.2691    1.0000 </r>
       <r>  -24.2687    1.0000 </r>
       <r>  -24.2687    1.0000 </r>
       <r>  -24.2275    1.0000 </r>
       <r>  -24.2275    1.0000 </r>
       <r>  -24.2271    1.0000 </r>
       <r>  -24.2271    1.0000 </r>
       <r>   -0.5654    1.0000 </r>
       <r>    0.4137    1.0000 </r>
       <r>    3.4588    1.0000 </r>
       <r>    3.4588    1.0000 </r>
       <r>    3.6072    1.0000 </r>
       <r>    3.7032    1.0000 </r>
       <r>    3.7032    1.0000 </r>
       <r>    3.9507    1.0000 </r>
       <r>    3.9507    1.0000 </r>
       <r>    5.0013    1.0000 </r>
       <r>    5.0013    1.0000 </r>
       <r>    5.2130    1.0000 </r>
       <r>    5.6875    1.0000 </r>
       <r>    5.8548    1.0000 </r>
       <r>    6.1850    1.0000 </r>
       <r>    6.1850    1.0000 </r>
       <r>    6.7128    1.0000 </r>
       <r>    6.7128    1.0000 </r>
       <r>    7.0910    1.0000 </r>
       <r>    7.0910    1.0000 </r>
       <r>    7.1562    1.0000 </r>
       <r>    7.1562    1.0000 </r>
       <r>    7.4764    1.0000 </r>
       <r>    7.4764    1.0000 </r>
       <r>    7.5078    1.0000 </r>
       <r>    7.6282    1.0000 </r>
       <r>    8.0375    1.0000 </r>
       <r>    8.0375    1.0000 </r>
       <r>    8.1043    0.9984 </r>
       <r>    8.2770    0.6952 </r>
       <r>    8.8850    0.0000 </r>
       <r>    9.0027    0.0000 </r>
       <r>    9.0027    0.0000 </r>
       <r>    9.5419    0.0000 </r>
       <r>    9.9568    0.0000 </r>
       <r>    9.9568    0.0000 </r>
       <r>   10.0546    0.0000 </r>
       <r>   10.0546    0.0000 </r>
       <r>   10.0919    0.0000 </r>
       <r>   10.0919    0.0000 </r>
       <r>   10.1594    0.0000 </r>
       <r>   10.1594    0.0000 </r>
       <r>   10.4106    0.0000 </r>
       <r>   10.4106    0.0000 </r>
       <r>   10.4144    0.0000 </r>
       <r>   10.6288    0.0000 </r>
       <r>   10.6288    0.0000 </r>
       <r>   10.7879    0.0000 </r>
       <r>   10.7879    0.0000 </r>
       <r>   11.4417    0.0000 </r>
       <r>   11.4417    0.0000 </r>
       <r>   11.6028    0.0000 </r>
       <r>   11.6124    0.0000 </r>
       <r>   11.9041    0.0000 </r>
       <r>   11.9041    0.0000 </r>
       <r>   12.0981    0.0000 </r>
      </set>
      <set comment="kpoint 12">
       <r>  -48.3108    1.0000 </r>
       <r>  -48.3104    1.0000 </r>
       <r>  -48.2610    1.0000 </r>
       <r>  -48.2607    1.0000 </r>
       <r>  -48.2534    1.0000 </r>
       <r>  -48.2531    1.0000 </r>
       <r>  -48.2055    1.0000 </r>
       <r>  -48.2052    1.0000 </r>
       <r>  -24.7355    1.0000 </r>
       <r>  -24.7337    1.0000 </r>
       <r>  -24.7196    1.0000 </r>
       <r>  -24.7092    1.0000 </r>
       <r>  -24.7075    1.0000 </r>
       <r>  -24.7074    1.0000 </r>
       <r>  -24.6777    1.0000 </r>
       <r>  -24.6766    1.0000 </r>
       <r>  -24.6665    1.0000 </r>
       <r>  -24.6588    1.0000 </r>
       <r>  -24.6574    1.0000 </r>
       <r>  -24.6500    1.0000 </r>
       <r>  -24.6440    1.0000 </r>
       <r>  -24.6431    1.0000 </r>
       <r>  -24.6116    1.0000 </r>
       <r>  -24.6040    1.0000 </r>
       <r>  -24.3015    1.0000 </r>
       <r>  -24.3010    1.0000 </r>
       <r>  -24.2663    1.0000 </r>
       <r>  -24.2659    1.0000 </r>
       <r>  -24.2581    1.0000 </r>
       <r>  -24.2577    1.0000 </r>
       <r>  -24.2303    1.0000 </r>
       <r>  -24.2299    1.0000 </r>
       <r>   -0.4310    1.0000 </r>
       <r>    0.5274    1.0000 </r>
       <r>    2.5727    1.0000 </r>
       <r>    2.9311    1.0000 </r>
       <r>    3.5670    1.0000 </r>
       <r>    3.7430    1.0000 </r>
       <r>    3.7874    1.0000 </r>
       <r>    4.0811    1.0000 </r>
       <r>    5.0861    1.0000 </r>
       <r>    5.0975    1.0000 </r>
       <r>    5.1693    1.0000 </r>
       <r>    5.5324    1.0000 </r>
       <r>    5.5474    1.0000 </r>
       <r>    5.9546    1.0000 </r>
       <r>    6.0994    1.0000 </r>
       <r>    6.1200    1.0000 </r>
       <r>    6.5696    1.0000 </r>
       <r>    6.6696    1.0000 </r>
       <r>    6.7388    1.0000 </r>
       <r>    6.7606    1.0000 </r>
       <r>    7.0039    1.0000 </r>
       <r>    7.1346    1.0000 </r>
       <r>    7.5605    1.0000 </r>
       <r>    7.6543    1.0000 </r>
       <r>    7.6973    1.0000 </r>
       <r>    7.8870    1.0000 </r>
       <r>    7.9689    1.0000 </r>
       <r>    8.1817    0.9684 </r>
       <r>    8.1915    0.9573 </r>
       <r>    8.2092    0.9292 </r>
       <r>    8.8901    0.0000 </r>
       <r>    8.9502    0.0000 </r>
       <r>    9.3658    0.0000 </r>
       <r>    9.4420    0.0000 </r>
       <r>    9.8367    0.0000 </r>
       <r>    9.8667    0.0000 </r>
       <r>    9.9304    0.0000 </r>
       <r>    9.9597    0.0000 </r>
       <r>   10.1393    0.0000 </r>
       <r>   10.1494    0.0000 </r>
       <r>   10.1767    0.0000 </r>
       <r>   10.1890    0.0000 </r>
       <r>   10.3763    0.0000 </r>
       <r>   10.4346    0.0000 </r>
       <r>   10.4989    0.0000 </r>
       <r>   10.5957    0.0000 </r>
       <r>   10.7046    0.0000 </r>
       <r>   10.7617    0.0000 </r>
       <r>   10.7864    0.0000 </r>
       <r>   10.9595    0.0000 </r>
       <r>   11.3951    0.0000 </r>
       <r>   11.4716    0.0000 </r>
       <r>   11.4877    0.0000 </r>
       <r>   11.7625    0.0000 </r>
       <r>   11.9738    0.0000 </r>
       <r>   12.1383    0.0000 </r>
      </set>
      <set comment="kpoint 13">
       <r>  -48.3003    1.0000 </r>
       <r>  -48.2999    1.0000 </r>
       <r>  -48.2716    1.0000 </r>
       <r>  -48.2712    1.0000 </r>
       <r>  -48.2434    1.0000 </r>
       <r>  -48.2430    1.0000 </r>
       <r>  -48.2157    1.0000 </r>
       <r>  -48.2154    1.0000 </r>
       <r>  -24.7233    1.0000 </r>
       <r>  -24.7217    1.0000 </r>
       <r>  -24.7084    1.0000 </r>
       <r>  -24.6970    1.0000 </r>
       <r>  -24.6899    1.0000 </r>
       <r>  -24.6887    1.0000 </r>
       <r>  -24.6778    1.0000 </r>
       <r>  -24.6681    1.0000 </r>
[...]
       <r>  -24.2608    1.0000 </r>
       <r>    0.0957    1.0000 </r>
       <r>    0.0957    1.0000 </r>
       <r>    2.8663    1.0000 </r>
       <r>    2.8663    1.0000 </r>
       <r>    2.8663    1.0000 </r>
       <r>    2.8663    1.0000 </r>
       <r>    4.9381    1.0000 </r>
       <r>    4.9381    1.0000 </r>
       <r>    4.9652    1.0000 </r>
       <r>    4.9652    1.0000 </r>
       <r>    5.3569    1.0000 </r>
       <r>    5.3569    1.0000 </r>
       <r>    5.3569    1.0000 </r>
       <r>    5.3569    1.0000 </r>
       <r>    6.3001    1.0000 </r>
       <r>    6.3001    1.0000 </r>
       <r>    6.7336    1.0000 </r>
       <r>    6.7336    1.0000 </r>
       <r>    6.7510    1.0000 </r>
       <r>    6.7510    1.0000 </r>
       <r>    6.7510    1.0000 </r>
       <r>    6.7510    1.0000 </r>
       <r>    7.6911    1.0000 </r>
       <r>    7.6911    1.0000 </r>
       <r>    8.0947    0.9990 </r>
       <r>    8.0947    0.9990 </r>
       <r>    8.0947    0.9990 </r>
       <r>    8.0947    0.9990 </r>
       <r>    8.4613    0.0180 </r>
       <r>    8.4613    0.0180 </r>
       <r>    8.5637    0.0002 </r>
       <r>    8.5637    0.0002 </r>
       <r>    9.9918    0.0000 </r>
       <r>    9.9918    0.0000 </r>
       <r>   10.0175    0.0000 </r>
       <r>   10.0175    0.0000 </r>
       <r>   10.0175    0.0000 </r>
       <r>   10.0175    0.0000 </r>
       <r>   10.0354    0.0000 </r>
       <r>   10.0354    0.0000 </r>
       <r>   10.1544    0.0000 </r>
       <r>   10.1544    0.0000 </r>
       <r>   10.1544    0.0000 </r>
       <r>   10.1544    0.0000 </r>
       <r>   10.2270    0.0000 </r>
       <r>   10.2270    0.0000 </r>
       <r>   10.4899    0.0000 </r>
       <r>   10.4899    0.0000 </r>
       <r>   11.2068    0.0000 </r>
       <r>   11.2068    0.0000 </r>
       <r>   11.2068    0.0000 </r>
       <r>   11.2068    0.0000 </r>
       <r>   11.3437    0.0000 </r>
       <r>   11.3437    0.0000 </r>
       <r>   11.9678    0.0000 </r>
       <r>   11.9678    0.0000 </r>
      </set>
      <set comment="kpoint 26">
       <r>  -48.2963    1.0000 </r>
       <r>  -48.2963    1.0000 </r>
       <r>  -48.2677    1.0000 </r>
       <r>  -48.2677    1.0000 </r>
       <r>  -48.2470    1.0000 </r>
       <r>  -48.2470    1.0000 </r>
       <r>  -48.2193    1.0000 </r>
       <r>  -48.2193    1.0000 </r>
       <r>  -24.6988    1.0000 </r>
       <r>  -24.6988    1.0000 </r>
       <r>  -24.6922    1.0000 </r>
       <r>  -24.6922    1.0000 </r>
       <r>  -24.6692    1.0000 </r>
       <r>  -24.6692    1.0000 </r>
       <r>  -24.6599    1.0000 </r>
       <r>  -24.6599    1.0000 </r>
       <r>  -24.6485    1.0000 </r>
       <r>  -24.6485    1.0000 </r>
       <r>  -24.6214    1.0000 </r>
       <r>  -24.6214    1.0000 </r>
       <r>  -24.6199    1.0000 </r>
       <r>  -24.6199    1.0000 </r>
       <r>  -24.5675    1.0000 </r>
       <r>  -24.5675    1.0000 </r>
       <r>  -24.3858    1.0000 </r>
       <r>  -24.3858    1.0000 </r>
       <r>  -24.3441    1.0000 </r>
       <r>  -24.3441    1.0000 </r>
       <r>  -24.2903    1.0000 </r>
       <r>  -24.2903    1.0000 </r>
       <r>  -24.2687    1.0000 </r>
       <r>  -24.2687    1.0000 </r>
       <r>    0.4698    1.0000 </r>
       <r>    0.4698    1.0000 </r>
       <r>    1.8896    1.0000 </r>
       <r>    1.8896    1.0000 </r>
       <r>    3.1844    1.0000 </r>
       <r>    3.1844    1.0000 </r>
       <r>    4.3200    1.0000 </r>
       <r>    4.3200    1.0000 </r>
       <r>    5.2491    1.0000 </r>
       <r>    5.2491    1.0000 </r>
       <r>    5.6670    1.0000 </r>
       <r>    5.6670    1.0000 </r>
       <r>    6.0389    1.0000 </r>
       <r>    6.0389    1.0000 </r>
       <r>    6.3264    1.0000 </r>
       <r>    6.3264    1.0000 </r>
       <r>    6.7057    1.0000 </r>
       <r>    6.7057    1.0000 </r>
       <r>    6.7127    1.0000 </r>
       <r>    6.7127    1.0000 </r>
       <r>    6.8291    1.0000 </r>
       <r>    6.8291    1.0000 </r>
       <r>    7.8270    1.0000 </r>
       <r>    7.8270    1.0000 </r>
       <r>    8.1778    0.9721 </r>
       <r>    8.1778    0.9721 </r>
       <r>    8.3991    0.1119 </r>
       <r>    8.3991    0.1119 </r>
       <r>    8.4660    0.0153 </r>
       <r>    8.4660    0.0153 </r>
       <r>    8.5291    0.0011 </r>
       <r>    8.5291    0.0011 </r>
       <r>    9.4431    0.0000 </r>
       <r>    9.4431    0.0000 </r>
       <r>    9.7714    0.0000 </r>
       <r>    9.7714    0.0000 </r>
       <r>    9.7825    0.0000 </r>
       <r>    9.7825    0.0000 </r>
       <r>    9.9526    0.0000 </r>
       <r>    9.9526    0.0000 </r>
       <r>    9.9776    0.0000 </r>
       <r>    9.9776    0.0000 </r>
       <r>   10.0950    0.0000 </r>
       <r>   10.0950    0.0000 </r>
       <r>   10.3100    0.0000 </r>
       <r>   10.3100    0.0000 </r>
       <r>   10.6619    0.0000 </r>
       <r>   10.6619    0.0000 </r>
       <r>   11.0170    0.0000 </r>
       <r>   11.0170    0.0000 </r>
       <r>   11.0600    0.0000 </r>
       <r>   11.0600    0.0000 </r>
       <r>   11.6491    0.0000 </r>
       <r>   11.6491    0.0000 </r>
       <r>   12.2274    0.0000 </r>
       <r>   12.2274    0.0000 </r>
      </set>
      <set comment="kpoint 27">
       <r>  -48.2820    1.0000 </r>
       <r>  -48.2820    1.0000 </r>
       <r>  -48.2820    1.0000 </r>
       <r>  -48.2820    1.0000 </r>
       <r>  -48.2332    1.0000 </r>
       <r>  -48.2332    1.0000 </r>
       <r>  -48.2332    1.0000 </r>
       <r>  -48.2332    1.0000 </r>
       <r>  -24.6841    1.0000 </r>
       <r>  -24.6841    1.0000 </r>
       <r>  -24.6841    1.0000 </r>
       <r>  -24.6841    1.0000 </r>
       <r>  -24.6761    1.0000 </r>
       <r>  -24.6761    1.0000 </r>
       <r>  -24.6761    1.0000 </r>
       <r>  -24.6761    1.0000 </r>
       <r>  -24.6349    1.0000 </r>
       <r>  -24.6349    1.0000 </r>
       <r>  -24.6349    1.0000 </r>
       <r>  -24.6349    1.0000 </r>
       <r>  -24.5037    1.0000 </r>
       <r>  -24.5037    1.0000 </r>
       <r>  -24.5037    1.0000 </r>
       <r>  -24.5037    1.0000 </r>
       <r>  -24.4565    1.0000 </r>
       <r>  -24.4565    1.0000 </r>
       <r>  -24.4565    1.0000 </r>
       <r>  -24.4565    1.0000 </r>
       <r>  -24.2796    1.0000 </r>
       <r>  -24.2796    1.0000 </r>
       <r>  -24.2796    1.0000 </r>
       <r>  -24.2796    1.0000 </r>
       <r>    1.0759    1.0000 </r>
       <r>    1.0759    1.0000 </r>
       <r>    1.0759    1.0000 </r>
       <r>    1.0759    1.0000 </r>
       <r>    3.6864    1.0000 </r>
       <r>    3.6864    1.0000 </r>
       <r>    3.6864    1.0000 </r>
       <r>    3.6864    1.0000 </r>
       <r>    5.6843    1.0000 </r>
       <r>    5.6843    1.0000 </r>
       <r>    5.6843    1.0000 </r>
       <r>    5.6843    1.0000 </r>
       <r>    6.0921    1.0000 </r>
       <r>    6.0921    1.0000 </r>
       <r>    6.0921    1.0000 </r>
       <r>    6.0921    1.0000 </r>
       <r>    6.6392    1.0000 </r>
       <r>    6.6392    1.0000 </r>
       <r>    6.6392    1.0000 </r>
       <r>    6.6392    1.0000 </r>
       <r>    7.6198    1.0000 </r>
       <r>    7.6198    1.0000 </r>
       <r>    7.6198    1.0000 </r>
       <r>    7.6198    1.0000 </r>
       <r>    8.1898    0.9594 </r>
       <r>    8.1898    0.9594 </r>
       <r>    8.1898    0.9594 </r>
       <r>    8.1898    0.9594 </r>
       <r>    8.8471    0.0000 </r>
       <r>    8.8471    0.0000 </r>
       <r>    8.8471    0.0000 </r>
       <r>    8.8471    0.0000 </r>
       <r>    9.1937    0.0000 </r>
       <r>    9.1937    0.0000 </r>
       <r>    9.1937    0.0000 </r>
       <r>    9.1937    0.0000 </r>
       <r>    9.8092    0.0000 </r>
       <r>    9.8092    0.0000 </r>
       <r>    9.8092    0.0000 </r>
       <r>    9.8092    0.0000 </r>
       <r>    9.9512    0.0000 </r>
       <r>    9.9512    0.0000 </r>
       <r>    9.9512    0.0000 </r>
       <r>    9.9512    0.0000 </r>
       <r>   10.5813    0.0000 </r>
       <r>   10.5813    0.0000 </r>
       <r>   10.5813    0.0000 </r>
       <r>   10.5813    0.0000 </r>
       <r>   10.8982    0.0000 </r>
       <r>   10.8982    0.0000 </r>
       <r>   10.8982    0.0000 </r>
       <r>   10.8982    0.0000 </r>
       <r>   11.9976    0.0000 </r>
       <r>   11.9976    0.0000 </r>
       <r>   11.9976    0.0000 </r>
       <r>   11.9976    0.0000 </r>
      </set>
      <set comment="kpoint 28">
       <r>  -48.2860    1.0000 </r>
       <r>  -48.2860    1.0000 </r>
       <r>  -48.2575    1.0000 </r>
       <r>  -48.2575    1.0000 </r>
       <r>  -48.2575    1.0000 </r>
       <r>  -48.2575    1.0000 </r>
       <r>  -48.2296    1.0000 </r>
       <r>  -48.2296    1.0000 </r>
       <r>  -24.6882    1.0000 </r>
       <r>  -24.6882    1.0000 </r>
       <r>  -24.6592    1.0000 </r>
       <r>  -24.6592    1.0000 </r>
       <r>  -24.6592    1.0000 </r>
       <r>  -24.6592    1.0000 </r>
       <r>  -24.6315    1.0000 </r>
       <r>  -24.6315    1.0000 </r>
       <r>  -24.6090    1.0000 </r>
       <r>  -24.6090    1.0000 </r>
       <r>  -24.6090    1.0000 </r>
       <r>  -24.6090    1.0000 </r>
       <r>  -24.5838    1.0000 </r>
       <r>  -24.5838    1.0000 </r>
       <r>  -24.5735    1.0000 </r>
       <r>  -24.5735    1.0000 </r>
       <r>  -24.3823    1.0000 </r>
       <r>  -24.3823    1.0000 </r>
       <r>  -24.3716    1.0000 </r>
       <r>  -24.3716    1.0000 </r>
       <r>  -24.3528    1.0000 </r>
       <r>  -24.3528    1.0000 </r>
       <r>  -24.3528    1.0000 </r>
       <r>  -24.3528    1.0000 </r>
       <r>    0.8370    1.0000 </r>
       <r>    0.8370    1.0000 </r>
       <r>    2.2298    1.0000 </r>
       <r>    2.2298    1.0000 </r>
       <r>    2.2298    1.0000 </r>
       <r>    2.2298    1.0000 </r>
       <r>    3.4960    1.0000 </r>
       <r>    3.4960    1.0000 </r>
       <r>    5.5390    1.0000 </r>
       <r>    5.5390    1.0000 </r>
       <r>    6.2987    1.0000 </r>
       <r>    6.2987    1.0000 </r>
       <r>    6.2987    1.0000 </r>
       <r>    6.2987    1.0000 </r>
       <r>    6.4975    1.0000 </r>
       <r>    6.4975    1.0000 </r>
       <r>    6.9104    1.0000 </r>
       <r>    6.9104    1.0000 </r>
       <r>    6.9104    1.0000 </r>
       <r>    6.9104    1.0000 </r>
       <r>    7.2410    1.0000 </r>
       <r>    7.2410    1.0000 </r>
       <r>    8.0004    1.0000 </r>
       <r>    8.0004    1.0000 </r>
       <r>    8.1457    0.9910 </r>
       <r>    8.1457    0.9910 </r>
       <r>    8.4531    0.0239 </r>
       <r>    8.4531    0.0239 </r>
       <r>    8.5508    0.0004 </r>
       <r>    8.5508    0.0004 </r>
       <r>    8.5508    0.0004 </r>
       <r>    8.5508    0.0004 </r>
       <r>    9.2873    0.0000 </r>
       <r>    9.2873    0.0000 </r>
       <r>    9.2873    0.0000 </r>
       <r>    9.2873    0.0000 </r>
       <r>    9.3034    0.0000 </r>
       <r>    9.3034    0.0000 </r>
       <r>    9.5878    0.0000 </r>
       <r>    9.5878    0.0000 </r>
       <r>   10.0839    0.0000 </r>
       <r>   10.0839    0.0000 </r>
       <r>   10.1243    0.0000 </r>
       <r>   10.1243    0.0000 </r>
       <r>   10.1243    0.0000 </r>
       <r>   10.1243    0.0000 </r>
       <r>   10.5764    0.0000 </r>
       <r>   10.5764    0.0000 </r>
       <r>   11.0427    0.0000 </r>
       <r>   11.0427    0.0000 </r>
       <r>   11.5322    0.0000 </r>
       <r>   11.5322    0.0000 </r>
       <r>   11.5322    0.0000 </r>
       <r>   11.5322    0.0000 </r>
       <r>   12.3858    0.0000 </r>
       <r>   12.3858    0.0000 </r>
      </set>
      <set comment="kpoint 29">
       <r>  -48.2718    1.0000 </r>
       <r>  -48.2718    1.0000 </r>
       <r>  -48.2718    1.0000 </r>
       <r>  -48.2718    1.0000 </r>
       <r>  -48.2436    1.0000 </r>
       <r>  -48.2436    1.0000 </r>
       <r>  -48.2436    1.0000 </r>
       <r>  -48.2436    1.0000 </r>
       <r>  -24.6737    1.0000 </r>
       <r>  -24.6737    1.0000 </r>
       <r>  -24.6737    1.0000 </r>
       <r>  -24.6737    1.0000 </r>
       <r>  -24.6454    1.0000 </r>
       <r>  -24.6454    1.0000 </r>
       <r>  -24.6454    1.0000 </r>
       <r>  -24.6454    1.0000 </r>
       <r>  -24.5941    1.0000 </r>
       <r>  -24.5941    1.0000 </r>
       <r>  -24.5941    1.0000 </r>
       <r>  -24.5941    1.0000 </r>
       <r>  -24.4940    1.0000 </r>
       <r>  -24.4940    1.0000 </r>
       <r>  -24.4940    1.0000 </r>
       <r>  -24.4940    1.0000 </r>
       <r>  -24.4662    1.0000 </r>
       <r>  -24.4662    1.0000 </r>
       <r>  -24.4662    1.0000 </r>
       <r>  -24.4662    1.0000 </r>
       <r>  -24.3647    1.0000 </r>
       <r>  -24.3647    1.0000 </r>
       <r>  -24.3647    1.0000 </r>
       <r>  -24.3647    1.0000 </r>
       <r>    1.4319    1.0000 </r>
       <r>    1.4319    1.0000 </r>
       <r>    1.4319    1.0000 </r>
       <r>    1.4319    1.0000 </r>
       <r>    2.7762    1.0000 </r>
       <r>    2.7762    1.0000 </r>
       <r>    2.7762    1.0000 </r>
       <r>    2.7762    1.0000 </r>
       <r>    5.9359    1.0000 </r>
       <r>    5.9359    1.0000 </r>
       <r>    5.9359    1.0000 </r>
       <r>    5.9359    1.0000 </r>
       <r>    6.4972    1.0000 </r>
       <r>    6.4972    1.0000 </r>
       <r>    6.4972    1.0000 </r>
       <r>    6.4972    1.0000 </r>
       <r>    7.1373    1.0000 </r>
       <r>    7.1373    1.0000 </r>
       <r>    7.1373    1.0000 </r>
       <r>    7.1373    1.0000 </r>
       <r>    7.7942    1.0000 </r>
       <r>    7.7942    1.0000 </r>
       <r>    7.7942    1.0000 </r>
       <r>    7.7942    1.0000 </r>
       <r>    8.4288    0.0509 </r>
       <r>    8.4288    0.0509 </r>
       <r>    8.4288    0.0509 </r>
       <r>    8.4288    0.0509 </r>
       <r>    8.5336    0.0009 </r>
       <r>    8.5336    0.0009 </r>
       <r>    8.5336    0.0009 </r>
       <r>    8.5336    0.0009 </r>
       <r>    9.1497    0.0000 </r>
       <r>    9.1497    0.0000 </r>
       <r>    9.1497    0.0000 </r>
       <r>    9.1497    0.0000 </r>
       <r>    9.2020    0.0000 </r>
       <r>    9.2020    0.0000 </r>
       <r>    9.2020    0.0000 </r>
       <r>    9.2020    0.0000 </r>
       <r>   10.0143    0.0000 </r>
       <r>   10.0143    0.0000 </r>
       <r>   10.0143    0.0000 </r>
       <r>   10.0143    0.0000 </r>
       <r>   10.2468    0.0000 </r>
       <r>   10.2468    0.0000 </r>
       <r>   10.2468    0.0000 </r>
       <r>   10.2468    0.0000 </r>
       <r>   11.3074    0.0000 </r>
       <r>   11.3074    0.0000 </r>
       <r>   11.3074    0.0000 </r>
       <r>   11.3074    0.0000 </r>
       <r>   12.0116    0.0000 </r>
       <r>   12.0116    0.0000 </r>
       <r>   12.0116    0.0000 </r>
       <r>   12.0116    0.0000 </r>
      </set>
      <set comment="kpoint 30">
       <r>  -48.2577    1.0000 </r>
       <r>  -48.2577    1.0000 </r>
       <r>  -48.2577    1.0000 </r>
       <r>  -48.2577    1.0000 </r>
       <r>  -48.2577    1.0000 </r>
       <r>  -48.2577    1.0000 </r>
       <r>  -48.2577    1.0000 </r>
       <r>  -48.2577    1.0000 </r>
       <r>  -24.6596    1.0000 </r>
       <r>  -24.6596    1.0000 </r>
       <r>  -24.6596    1.0000 </r>
       <r>  -24.6596    1.0000 </r>
       <r>  -24.6596    1.0000 </r>
       <r>  -24.6596    1.0000 </r>
       <r>  -24.6596    1.0000 </r>
       <r>  -24.6596    1.0000 </r>
       <r>  -24.4872    1.0000 </r>
       <r>  -24.4872    1.0000 </r>
       <r>  -24.4872    1.0000 </r>
       <r>  -24.4872    1.0000 </r>
       <r>  -24.4872    1.0000 </r>
       <r>  -24.4872    1.0000 </r>
       <r>  -24.4872    1.0000 </r>
       <r>  -24.4872    1.0000 </r>
       <r>  -24.4731    1.0000 </r>
       <r>  -24.4731    1.0000 </r>
       <r>  -24.4731    1.0000 </r>
       <r>  -24.4731    1.0000 </r>
       <r>  -24.4731    1.0000 </r>
       <r>  -24.4731    1.0000 </r>
       <r>  -24.4731    1.0000 </r>
       <r>  -24.4731    1.0000 </r>
       <r>    2.0075    1.0000 </r>
       <r>    2.0075    1.0000 </r>
       <r>    2.0075    1.0000 </r>
       <r>    2.0075    1.0000 </r>
       <r>    2.0075    1.0000 </r>
       <r>    2.0075    1.0000 </r>
       <r>    2.0075    1.0000 </r>
       <r>    2.0075    1.0000 </r>
       <r>    6.2446    1.0000 </r>
       <r>    6.2446    1.0000 </r>
       <r>    6.2446    1.0000 </r>
       <r>    6.2446    1.0000 </r>
       <r>    6.2446    1.0000 </r>
       <r>    6.2446    1.0000 </r>
       <r>    6.2446    1.0000 </r>
       <r>    6.2446    1.0000 </r>
       <r>    7.9180    1.0000 </r>
       <r>    7.9180    1.0000 </r>
       <r>    7.9180    1.0000 </r>
       <r>    7.9180    1.0000 </r>
       <r>    7.9180    1.0000 </r>
       <r>    7.9180    1.0000 </r>
       <r>    7.9180    1.0000 </r>
       <r>    7.9180    1.0000 </r>
       <r>    8.3004    0.5714 </r>
       <r>    8.3004    0.5714 </r>
       <r>    8.3004    0.5714 </r>
       <r>    8.3004    0.5714 </r>
       <r>    8.3004    0.5714 </r>
       <r>    8.3004    0.5714 </r>
       <r>    8.3004    0.5714 </r>
       <r>    8.3004    0.5714 </r>
       <r>    9.0515    0.0000 </r>
       <r>    9.0515    0.0000 </r>
       <r>    9.0515    0.0000 </r>
       <r>    9.0515    0.0000 </r>
       <r>    9.0515    0.0000 </r>
       <r>    9.0515    0.0000 </r>
       <r>    9.0515    0.0000 </r>
       <r>    9.0515    0.0000 </r>
       <r>    9.9848    0.0000 </r>
       <r>    9.9848    0.0000 </r>
       <r>    9.9848    0.0000 </r>
       <r>    9.9848    0.0000 </r>
       <r>    9.9848    0.0000 </r>
       <r>    9.9848    0.0000 </r>
       <r>    9.9848    0.0000 </r>
       <r>    9.9848    0.0000 </r>
       <r>   11.6928    0.0000 </r>
       <r>   11.6928    0.0000 </r>
       <r>   11.6928    0.0000 </r>
       <r>   11.6928    0.0000 </r>
       <r>   11.6928    0.0000 </r>
       <r>   11.6928    0.0000 </r>
       <r>   11.6928    0.0000 </r>
       <r>   11.6928    0.0000 </r>
      </set>
     </set>
    </set>
   </array>
  </eigenvalues>
  <separator name="orbital magnetization" >
   <v name="MAGDIPOLOUT">      0.00000000      0.00000000      0.00000000</v>
  </separator>
 </calculation>
 <structure name="finalpos" >
  <crystal>
   <varray name="basis" >
    <v>       5.65068177       0.00000000       0.00000000 </v>
    <v>       0.00000000       5.65068177       0.00000000 </v>
    <v>       0.00000000       0.00000000       8.12462919 </v>
   </varray>
   <i name="volume">    259.42107139 </i>
   <varray name="rec_basis" >
    <v>       0.17696980       0.00000000       0.00000000 </v>
    <v>       0.00000000       0.17696980      -0.00000000 </v>
    <v>       0.00000000      -0.00000000       0.12308254 </v>
   </varray>
  </crystal>
  <varray name="positions" >
   <v>       0.00000000       0.00000000      -0.00000000 </v>
   <v>       0.00000000       0.00000000       0.50000000 </v>
   <v>       0.00000000       0.50000000      -0.00000000 </v>
   <v>       0.00000000       0.50000000       0.50000000 </v>
   <v>       0.50000000      -0.00000000       0.00000000 </v>
   <v>       0.50000000       0.00000000       0.50000000 </v>
   <v>       0.50000000       0.50000000      -0.00000000 </v>
   <v>       0.50000000       0.50000000       0.50000000 </v>
   <v>       0.25000000       0.25000000       0.25000000 </v>
   <v>       0.25000000       0.25000000       0.75000000 </v>
   <v>       0.25000000       0.75000000       0.25000000 </v>
   <v>       0.25000000       0.75000000       0.75000000 </v>
   <v>       0.75000000       0.25000000       0.25000000 </v>
   <v>       0.75000000       0.25000000       0.75000000 </v>
   <v>       0.75000000       0.75000000       0.25000000 </v>
   <v>       0.75000000       0.75000000       0.75000000 </v>
  </varray>
 </structure>
</modeling>
