CaNi2                                   
           1
     5.647637    0.000000    0.000000
     0.000000    5.647637    0.000000
     0.000000    0.000000    8.140666
   Ti   Al
     8     8
Direct configuration=     1
   0.00000000  0.00000000  0.00000000
   0.00000000  0.00000000  0.50000000
   0.00000000  0.50000000  0.00000000
   0.00000000  0.50000000  0.50000000
   0.50000000  0.00000000  0.00000000
   0.50000000  0.00000000  0.50000000
   0.50000000  0.50000000  0.00000000
   0.50000000  0.50000000  0.50000000
   0.25000000  0.25000000  0.25000000
   0.25000000  0.25000000  0.75000000
   0.25000000  0.75000000  0.25000000
   0.25000000  0.75000000  0.75000000
   0.75000000  0.25000000  0.25000000
   0.75000000  0.25000000  0.75000000
   0.75000000  0.75000000  0.25000000
   0.75000000  0.75000000  0.75000000
CaNi2                                   
           1
     5.648625    0.000000    0.000000
     0.000000    5.648625   -0.000000
     0.000000    0.000000    8.132209
   Ti   Al
     8     8
Direct configuration=     2
   0.00000000  0.00000000 -0.00000000
   0.00000000  0.00000000  0.50000000
  -0.00000000  0.50000000  0.00000000
   0.00000000  0.50000000  0.50000000
   0.50000000 -0.00000000 -0.00000000
   0.50000000 -0.00000000  0.50000000
   0.50000000  0.50000000 -0.00000000
   0.50000000  0.50000000  0.50000000
   0.25000000  0.25000000  0.25000000
   0.25000000  0.25000000  0.75000000
   0.25000000  0.75000000  0.25000000
   0.25000000  0.75000000  0.75000000
   0.75000000  0.25000000  0.25000000
   0.75000000  0.25000000  0.75000000
   0.75000000  0.75000000  0.25000000
   0.75000000  0.75000000  0.75000000
CaNi2                                   
           1
     5.650682    0.000000    0.000000
     0.000000    5.650682    0.000000
     0.000000    0.000000    8.124629
   Ti   Al
     8     8
Direct configuration=     3
   0.00000000  0.00000000 -0.00000000
   0.00000000  0.00000000  0.50000000
   0.00000000  0.50000000 -0.00000000
   0.00000000  0.50000000  0.50000000
   0.50000000 -0.00000000  0.00000000
   0.50000000  0.00000000  0.50000000
   0.50000000  0.50000000 -0.00000000
   0.50000000  0.50000000  0.50000000
   0.25000000  0.25000000  0.25000000
   0.25000000  0.25000000  0.75000000
   0.25000000  0.75000000  0.25000000
   0.25000000  0.75000000  0.75000000
   0.75000000  0.25000000  0.25000000
   0.75000000  0.25000000  0.75000000
   0.75000000  0.75000000  0.25000000
   0.75000000  0.75000000  0.75000000
