   4   4   0   0
  0.6057196E+02  0.2823800E-09  0.4953900E-09  0.1732010E-08  0.5000000E-15
  1.000000000000000E-004
  CAR 
 unknown system                          
     22.62641742    -61.48618399  301     -0.72912556      1.00000000
    -61.486  0.0000E+00  0.0000E+00
    -61.206  0.0000E+00  0.0000E+00
    -60.925  0.0000E+00  0.0000E+00
    -60.645  0.0000E+00  0.0000E+00
    -60.365  0.0000E+00  0.0000E+00
    -60.084  0.0000E+00  0.0000E+00
    -59.804  0.0000E+00  0.0000E+00
    -59.524  0.0000E+00  0.0000E+00
    -59.243  0.0000E+00  0.0000E+00
    -58.963  0.0000E+00  0.0000E+00
    -58.682 -0.2476E-44 -0.6943E-45
    -58.402 -0.5640E-23 -0.1581E-23
    -58.122 -0.1797E-08 -0.5038E-09
    -57.841 -0.7438E-01 -0.2086E-01
    -57.561  0.1280E+02  0.3568E+01
    -57.281  0.1540E+01  0.4000E+01
    -57.000 -0.2971E-03  0.4000E+01
    -56.720  0.0000E+00  0.4000E+01
    -56.439  0.0000E+00  0.4000E+01
    -56.159  0.0000E+00  0.4000E+01
    -55.879  0.0000E+00  0.4000E+01
    -55.598  0.0000E+00  0.4000E+01
    -55.318  0.0000E+00  0.4000E+01
    -55.038  0.0000E+00  0.4000E+01
    -54.757  0.0000E+00  0.4000E+01
    -54.477  0.0000E+00  0.4000E+01
    -54.196  0.0000E+00  0.4000E+01
    -53.916  0.0000E+00  0.4000E+01
    -53.636  0.0000E+00  0.4000E+01
    -53.355  0.0000E+00  0.4000E+01
    -53.075  0.0000E+00  0.4000E+01
    -52.795  0.0000E+00  0.4000E+01
    -52.514  0.0000E+00  0.4000E+01
    -52.234  0.0000E+00  0.4000E+01
    -51.953  0.0000E+00  0.4000E+01
    -51.673  0.0000E+00  0.4000E+01
    -51.393  0.0000E+00  0.4000E+01
    -51.112  0.0000E+00  0.4000E+01
    -50.832  0.0000E+00  0.4000E+01
    -50.552  0.0000E+00  0.4000E+01
    -50.271  0.0000E+00  0.4000E+01
    -49.991  0.0000E+00  0.4000E+01
    -49.710  0.0000E+00  0.4000E+01
    -49.430  0.0000E+00  0.4000E+01
    -49.150  0.0000E+00  0.4000E+01
    -48.869  0.0000E+00  0.4000E+01
    -48.589  0.0000E+00  0.4000E+01
    -48.309  0.0000E+00  0.4000E+01
    -48.028  0.0000E+00  0.4000E+01
    -47.748  0.0000E+00  0.4000E+01
    -47.467  0.0000E+00  0.4000E+01
    -47.187  0.0000E+00  0.4000E+01
    -46.907  0.0000E+00  0.4000E+01
    -46.626  0.0000E+00  0.4000E+01
    -46.346  0.0000E+00  0.4000E+01
    -46.066  0.0000E+00  0.4000E+01
    -45.785  0.0000E+00  0.4000E+01
    -45.505  0.0000E+00  0.4000E+01
    -45.224  0.0000E+00  0.4000E+01
    -44.944  0.0000E+00  0.4000E+01
    -44.664  0.0000E+00  0.4000E+01
    -44.383  0.0000E+00  0.4000E+01
    -44.103  0.0000E+00  0.4000E+01
    -43.823  0.0000E+00  0.4000E+01
    -43.542  0.0000E+00  0.4000E+01
    -43.262  0.0000E+00  0.4000E+01
    -42.981  0.0000E+00  0.4000E+01
    -42.701  0.0000E+00  0.4000E+01
    -42.421  0.0000E+00  0.4000E+01
    -42.140  0.0000E+00  0.4000E+01
    -41.860  0.0000E+00  0.4000E+01
    -41.580  0.0000E+00  0.4000E+01
    -41.299  0.0000E+00  0.4000E+01
    -41.019  0.0000E+00  0.4000E+01
    -40.738  0.0000E+00  0.4000E+01
    -40.458  0.0000E+00  0.4000E+01
    -40.178  0.0000E+00  0.4000E+01
    -39.897  0.0000E+00  0.4000E+01
    -39.617  0.0000E+00  0.4000E+01
    -39.337  0.0000E+00  0.4000E+01
    -39.056  0.0000E+00  0.4000E+01
    -38.776  0.0000E+00  0.4000E+01
    -38.495  0.0000E+00  0.4000E+01
    -38.215  0.0000E+00  0.4000E+01
    -37.935  0.0000E+00  0.4000E+01
    -37.654  0.0000E+00  0.4000E+01
    -37.374  0.0000E+00  0.4000E+01
    -37.094  0.0000E+00  0.4000E+01
    -36.813  0.0000E+00  0.4000E+01
    -36.533  0.0000E+00  0.4000E+01
    -36.252  0.0000E+00  0.4000E+01
    -35.972  0.0000E+00  0.4000E+01
    -35.692  0.0000E+00  0.4000E+01
    -35.411  0.0000E+00  0.4000E+01
    -35.131 -0.6943E-45  0.4000E+01
    -34.851 -0.2222E-23  0.4000E+01
    -34.570 -0.9620E-09  0.4000E+01
    -34.290 -0.5105E-01  0.3986E+01
    -34.009  0.1210E+02  0.7379E+01
    -33.729  0.2324E+02  0.1390E+02
    -33.449  0.7333E+01  0.1595E+02
    -33.168  0.1735E+00  0.1600E+02
    -32.888 -0.3952E-04  0.1600E+02
    -32.608  0.0000E+00  0.1600E+02
    -32.327  0.0000E+00  0.1600E+02
    -32.047  0.0000E+00  0.1600E+02
    -31.766  0.0000E+00  0.1600E+02
    -31.486  0.0000E+00  0.1600E+02
    -31.206  0.0000E+00  0.1600E+02
    -30.925  0.0000E+00  0.1600E+02
    -30.645  0.0000E+00  0.1600E+02
    -30.365  0.0000E+00  0.1600E+02
    -30.084  0.0000E+00  0.1600E+02
    -29.804  0.0000E+00  0.1600E+02
    -29.523  0.0000E+00  0.1600E+02
    -29.243  0.0000E+00  0.1600E+02
    -28.963  0.0000E+00  0.1600E+02
    -28.682  0.0000E+00  0.1600E+02
    -28.402  0.0000E+00  0.1600E+02
    -28.122  0.0000E+00  0.1600E+02
    -27.841  0.0000E+00  0.1600E+02
    -27.561  0.0000E+00  0.1600E+02
    -27.280  0.0000E+00  0.1600E+02
    -27.000  0.0000E+00  0.1600E+02
    -26.720  0.0000E+00  0.1600E+02
    -26.439  0.0000E+00  0.1600E+02
    -26.159  0.0000E+00  0.1600E+02
    -25.879  0.0000E+00  0.1600E+02
    -25.598  0.0000E+00  0.1600E+02
    -25.318  0.0000E+00  0.1600E+02
    -25.037  0.0000E+00  0.1600E+02
    -24.757  0.0000E+00  0.1600E+02
    -24.477  0.0000E+00  0.1600E+02
    -24.196  0.0000E+00  0.1600E+02
    -23.916  0.0000E+00  0.1600E+02
    -23.636  0.0000E+00  0.1600E+02
    -23.355  0.0000E+00  0.1600E+02
    -23.075  0.0000E+00  0.1600E+02
    -22.794  0.0000E+00  0.1600E+02
    -22.514  0.0000E+00  0.1600E+02
    -22.234  0.0000E+00  0.1600E+02
    -21.953  0.0000E+00  0.1600E+02
    -21.673  0.0000E+00  0.1600E+02
    -21.393  0.0000E+00  0.1600E+02
    -21.112  0.0000E+00  0.1600E+02
    -20.832  0.0000E+00  0.1600E+02
    -20.551  0.0000E+00  0.1600E+02
    -20.271  0.0000E+00  0.1600E+02
    -19.991  0.0000E+00  0.1600E+02
    -19.710  0.0000E+00  0.1600E+02
    -19.430  0.0000E+00  0.1600E+02
    -19.150  0.0000E+00  0.1600E+02
    -18.869  0.0000E+00  0.1600E+02
    -18.589  0.0000E+00  0.1600E+02
    -18.308  0.0000E+00  0.1600E+02
    -18.028  0.0000E+00  0.1600E+02
    -17.748  0.0000E+00  0.1600E+02
    -17.467  0.0000E+00  0.1600E+02
    -17.187  0.0000E+00  0.1600E+02
    -16.907  0.0000E+00  0.1600E+02
    -16.626  0.0000E+00  0.1600E+02
    -16.346  0.0000E+00  0.1600E+02
    -16.065  0.0000E+00  0.1600E+02
    -15.785  0.0000E+00  0.1600E+02
    -15.505  0.0000E+00  0.1600E+02
    -15.224  0.0000E+00  0.1600E+02
    -14.944  0.0000E+00  0.1600E+02
    -14.664  0.0000E+00  0.1600E+02
    -14.383  0.0000E+00  0.1600E+02
    -14.103  0.0000E+00  0.1600E+02
    -13.822  0.0000E+00  0.1600E+02
    -13.542  0.0000E+00  0.1600E+02
    -13.262  0.0000E+00  0.1600E+02
    -12.981  0.0000E+00  0.1600E+02
    -12.701  0.0000E+00  0.1600E+02
    -12.420  0.0000E+00  0.1600E+02
    -12.140  0.0000E+00  0.1600E+02
    -11.860  0.0000E+00  0.1600E+02
    -11.579  0.0000E+00  0.1600E+02
    -11.299  0.0000E+00  0.1600E+02
    -11.019  0.0000E+00  0.1600E+02
    -10.738  0.0000E+00  0.1600E+02
    -10.458  0.0000E+00  0.1600E+02
    -10.177  0.0000E+00  0.1600E+02
     -9.897  0.0000E+00  0.1600E+02
     -9.617 -0.4052E-40  0.1600E+02
     -9.336 -0.2647E-20  0.1600E+02
     -9.056 -0.2002E-07  0.1600E+02
     -8.776 -0.5591E-02  0.1600E+02
     -8.495  0.1973E+00  0.1605E+02
     -8.215  0.8619E+00  0.1630E+02
     -7.934  0.4162E+00  0.1641E+02
     -7.654  0.1030E+01  0.1670E+02
     -7.374  0.8423E+00  0.1694E+02
     -7.093  0.2496E+00  0.1701E+02
     -6.813  0.3656E+00  0.1711E+02
     -6.533  0.4199E+00  0.1723E+02
     -6.252  0.1022E+01  0.1751E+02
     -5.972  0.2423E+01  0.1819E+02
     -5.691  0.8156E-01  0.1822E+02
     -5.411  0.1325E+01  0.1859E+02
     -5.131  0.9935E+00  0.1887E+02
     -4.850  0.8605E+00  0.1911E+02
     -4.570  0.7153E+00  0.1931E+02
     -4.290  0.1194E+01  0.1964E+02
     -4.009  0.7675E+00  0.1986E+02
     -3.729  0.1343E+01  0.2023E+02
     -3.448  0.1581E+01  0.2068E+02
     -3.168  0.2310E+01  0.2133E+02
     -2.888  0.9902E+00  0.2160E+02
     -2.607  0.1353E+01  0.2198E+02
     -2.327  0.3379E+01  0.2293E+02
     -2.047  0.2761E+01  0.2370E+02
     -1.766  0.5019E+01  0.2511E+02
     -1.486  0.3693E+01  0.2615E+02
     -1.205  0.4211E+01  0.2733E+02
     -0.925  0.5269E+01  0.2880E+02
     -0.645  0.6243E+01  0.3055E+02
     -0.364  0.6447E+01  0.3236E+02
     -0.084  0.3456E+01  0.3333E+02
      0.196  0.4567E+01  0.3461E+02
      0.477  0.5583E+01  0.3618E+02
      0.757  0.5201E+01  0.3764E+02
      1.038  0.5203E+01  0.3909E+02
      1.318  0.7022E+01  0.4106E+02
      1.598  0.5109E+01  0.4250E+02
      1.879  0.3791E+01  0.4356E+02
      2.159  0.2963E+01  0.4439E+02
      2.439  0.2158E+01  0.4499E+02
      2.720  0.1692E+01  0.4547E+02
      3.000  0.3639E+01  0.4649E+02
      3.281  0.2986E+01  0.4733E+02
      3.561  0.4940E+01  0.4871E+02
      3.841  0.4104E+01  0.4986E+02
      4.122  0.2522E+01  0.5057E+02
      4.402  0.3652E+01  0.5159E+02
      4.682  0.5080E+01  0.5302E+02
      4.963  0.2725E+01  0.5378E+02
      5.243  0.5336E+01  0.5528E+02
      5.524  0.5009E+01  0.5668E+02
      5.804  0.4132E+01  0.5784E+02
      6.084  0.2894E+01  0.5865E+02
      6.365  0.5303E+01  0.6014E+02
      6.645  0.5985E+01  0.6182E+02
      6.925  0.3572E+01  0.6282E+02
      7.206  0.5200E+01  0.6428E+02
      7.486  0.4262E+01  0.6547E+02
      7.767  0.4721E+01  0.6679E+02
      8.047  0.3775E+01  0.6785E+02
      8.327  0.5679E+01  0.6944E+02
      8.608  0.5650E+01  0.7103E+02
      8.888  0.6606E+01  0.7288E+02
      9.168  0.6284E+01  0.7464E+02
      9.449  0.4532E+01  0.7591E+02
      9.729  0.6935E+01  0.7786E+02
     10.010  0.4540E+01  0.7913E+02
     10.290  0.3750E+01  0.8018E+02
     10.570  0.5016E+01  0.8159E+02
     10.851  0.7499E+01  0.8369E+02
     11.131  0.5390E+01  0.8520E+02
     11.411  0.5436E+01  0.8673E+02
     11.692  0.6048E+01  0.8842E+02
     11.972  0.3458E+01  0.8939E+02
     12.253  0.8298E+01  0.9172E+02
     12.533  0.8947E+01  0.9423E+02
     12.813  0.4747E+01  0.9556E+02
     13.094  0.4520E+01  0.9683E+02
     13.374  0.6731E+01  0.9871E+02
     13.654  0.5825E+01  0.1003E+03
     13.935  0.7299E+01  0.1024E+03
     14.215  0.7017E+01  0.1044E+03
     14.496  0.8916E+01  0.1069E+03
     14.776  0.4933E+01  0.1082E+03
     15.056  0.7034E+01  0.1102E+03
     15.337  0.5723E+01  0.1118E+03
     15.617  0.7817E+01  0.1140E+03
     15.897  0.5685E+01  0.1156E+03
     16.178  0.6721E+01  0.1175E+03
     16.458  0.5090E+01  0.1189E+03
     16.739  0.8554E+01  0.1213E+03
     17.019  0.5383E+01  0.1228E+03
     17.299  0.3489E+01  0.1238E+03
     17.580  0.3359E+01  0.1247E+03
     17.860  0.4618E+01  0.1260E+03
     18.140  0.3002E+01  0.1269E+03
     18.421  0.2352E+01  0.1275E+03
     18.701  0.9515E+00  0.1278E+03
     18.982  0.7015E+00  0.1280E+03
     19.262 -0.9545E-02  0.1280E+03
     19.542 -0.5648E-09  0.1280E+03
     19.823  0.0000E+00  0.1280E+03
     20.103  0.0000E+00  0.1280E+03
     20.383  0.0000E+00  0.1280E+03
     20.664  0.0000E+00  0.1280E+03
     20.944  0.0000E+00  0.1280E+03
     21.225  0.0000E+00  0.1280E+03
     21.505  0.0000E+00  0.1280E+03
     21.785  0.0000E+00  0.1280E+03
     22.066  0.0000E+00  0.1280E+03
     22.346  0.0000E+00  0.1280E+03
     22.626  0.0000E+00  0.1280E+03
