    4    4    1    1
  0.6057196E+02  0.2823800E-09  0.4953900E-09  0.1732010E-08  0.5000000E-15
  1.000000000000000E-004
  CAR 
 unknown system                          
     30     15     64
 
  0.1276756E-14  0.1276756E-14  0.1276756E-14  0.2222222E-01
      1        -57.662884   1.000000
      2        -57.634016   1.000000
      3        -34.105509   1.000000
      4        -34.050121   1.000000
      5        -33.983398   1.000000
      6        -33.830579   1.000000
      7        -33.505209   1.000000
      8        -33.484277   1.000000
      9         -8.656741   1.000000
     10         -6.321081   1.000000
     11         -2.825248   1.000000
     12         -2.725080   1.000000
     13         -2.041793   1.000000
     14         -1.417955   1.000000
     15         -0.946323   1.004412
     16         -0.702650   0.284413
     17         -0.550902  -0.015124
     18          0.351069  -0.000000
     19          0.565739  -0.000000
     20          1.189980  -0.000000
     21          1.360085   0.000000
     22          1.422580   0.000000
     23          1.934731   0.000000
     24          2.867276   0.000000
     25          3.025694   0.000000
     26          3.550645   0.000000
     27          3.568373   0.000000
     28          4.485961   0.000000
     29          4.737435   0.000000
     30          5.548768   0.000000
     31          6.517191   0.000000
     32          7.452683   0.000000
     33          7.577049   0.000000
     34          8.392602   0.000000
     35          8.410565   0.000000
     36          8.795975   0.000000
     37          9.219496   0.000000
     38          9.268941   0.000000
     39          9.964594   0.000000
     40         10.374632   0.000000
     41         10.543493   0.000000
     42         10.631645   0.000000
     43         10.881942   0.000000
     44         11.618728   0.000000
     45         11.724011   0.000000
     46         12.267351   0.000000
     47         12.368422   0.000000
     48         13.410268   0.000000
     49         13.415940   0.000000
     50         14.226293   0.000000
     51         14.528305   0.000000
     52         15.428928   0.000000
     53         15.431610   0.000000
     54         16.012918   0.000000
     55         16.332070   0.000000
     56         16.416658   0.000000
     57         16.475769   0.000000
     58         16.591575   0.000000
     59         16.867409   0.000000
     60         17.194703   0.000000
     61         17.463577   0.000000
     62         18.042348   0.000000
     63         18.150191   0.000000
     64         18.174302   0.000000
 
  0.1111111E+00  0.1276756E-14  0.1276756E-14  0.4444444E-01
      1        -57.656395   1.000000
      2        -57.627652   1.000000
      3        -34.099089   1.000000
      4        -34.043953   1.000000
      5        -33.977031   1.000000
      6        -33.825158   1.000000
      7        -33.559993   1.000000
      8        -33.537485   1.000000
      9         -8.422882   1.000000
     10         -6.105608   1.000000
     11         -2.715966   1.000000
     12         -2.497594   1.000000
     13         -1.941692   1.000000
     14         -1.292223   1.000000
     15         -0.744391   0.627533
     16         -0.708090   0.326276
     17         -0.613089  -0.034762
     18          0.331916  -0.000000
     19          0.387959  -0.000000
     20          1.161290  -0.000000
     21          1.492130   0.000000
     22          1.618905   0.000000
     23          1.781575   0.000000
     24          3.002910   0.000000
     25          3.208484   0.000000
     26          3.753250   0.000000
     27          3.760615   0.000000
     28          4.676928   0.000000
     29          4.988758   0.000000
     30          5.759167   0.000000
     31          6.215560   0.000000
     32          6.727432   0.000000
     33          7.653782   0.000000
     34          7.968093   0.000000
     35          8.379953   0.000000
     36          8.658002   0.000000
     37          8.775791   0.000000
     38          9.492077   0.000000
     39          9.532110   0.000000
     40         10.608971   0.000000
     41         10.703555   0.000000
     42         10.823712   0.000000
     43         11.110891   0.000000
     44         12.053208   0.000000
     45         12.214707   0.000000
     46         12.483240   0.000000
     47         13.118209   0.000000
     48         13.325933   0.000000
     49         13.554406   0.000000
     50         13.628520   0.000000
     51         13.696499   0.000000
     52         13.945732   0.000000
     53         14.905020   0.000000
     54         15.048122   0.000000
     55         15.598690   0.000000
     56         16.066105   0.000000
     57         16.682991   0.000000
     58         17.002130   0.000000
     59         17.124385   0.000000
     60         17.413134   0.000000
     61         17.851849   0.000000
     62         17.970581   0.000000
     63         18.169208   0.000000
     64         18.177151   0.000000
 
  0.2222222E+00  0.1276756E-14  0.1276756E-14  0.4444444E-01
      1        -57.639921   1.000000
      2        -57.611488   1.000000
      3        -34.082801   1.000000
      4        -34.028309   1.000000
      5        -33.960855   1.000000
      6        -33.811436   1.000000
      7        -33.697113   1.000000
      8        -33.670658   1.000000
      9         -7.737573   1.000000
     10         -5.475693   1.000000
     11         -2.538580   1.000000
     12         -2.005327   1.000000
     13         -1.851238   1.000000
     14         -0.990883   1.000674
     15         -0.887089   1.024008
     16         -0.694237   0.223725
     17         -0.067402  -0.000000
     18          0.262169  -0.000000
     19          0.381642  -0.000000
     20          1.109904  -0.000000
     21          1.292068   0.000000
     22          1.957394   0.000000
     23          2.337236   0.000000
     24          3.393844   0.000000
     25          3.690844   0.000000
     26          3.996729   0.000000
     27          4.240356   0.000000
     28          4.410610   0.000000
     29          5.083764   0.000000
     30          5.640114   0.000000
     31          5.664182   0.000000
     32          6.402504   0.000000
     33          7.005164   0.000000
     34          8.560703   0.000000
     35          8.640373   0.000000
     36          9.280711   0.000000
     37          9.303614   0.000000
     38          9.626671   0.000000
     39         10.112463   0.000000
     40         10.239692   0.000000
     41         10.555213   0.000000
     42         10.647037   0.000000
     43         11.294000   0.000000
     44         11.491570   0.000000
     45         11.568688   0.000000
     46         11.669977   0.000000
     47         12.377022   0.000000
     48         12.793742   0.000000
     49         12.824552   0.000000
     50         13.469496   0.000000
     51         14.303491   0.000000
     52         14.356764   0.000000
     53         14.437888   0.000000
     54         14.516532   0.000000
     55         14.946047   0.000000
     56         14.947520   0.000000
     57         15.740888   0.000000
     58         15.968385   0.000000
     59         16.456047   0.000000
     60         16.607361   0.000000
     61         16.753085   0.000000
     62         17.653310   0.000000
     63         17.659601   0.000000
     64         17.733227   0.000000
 
  0.3333333E+00  0.1276756E-14  0.1276756E-14  0.4444444E-01
      1        -57.621102   1.000000
      2        -57.593022   1.000000
      3        -34.064198   1.000000
      4        -34.010462   1.000000
      5        -33.942388   1.000000
      6        -33.850369   1.000000
      7        -33.819995   1.000000
      8        -33.795399   1.000000
      9         -6.644760   1.000000
     10         -4.484673   1.000000
     11         -2.534598   1.000000
     12         -2.251503   1.000000
     13         -1.857281   1.000000
     14         -1.022572   1.000134
     15         -1.018902   1.000164
     16         -0.609559  -0.035322
     17          0.174341  -0.000000
     18          0.592804  -0.000000
     19          0.868087  -0.000000
     20          1.148389  -0.000000
     21          1.621893   0.000000
     22          2.699003   0.000000
     23          2.939746   0.000000
     24          2.969689   0.000000
     25          3.406157   0.000000
     26          4.166710   0.000000
     27          4.493908   0.000000
     28          4.964825   0.000000
     29          5.378114   0.000000
     30          6.171251   0.000000
     31          6.312048   0.000000
     32          6.774794   0.000000
     33          7.332636   0.000000
     34          8.091622   0.000000
     35          8.159305   0.000000
     36          8.451192   0.000000
     37          9.361476   0.000000
     38          9.824195   0.000000
     39          9.937151   0.000000
     40         10.334821   0.000000
     41         10.439485   0.000000
     42         10.730013   0.000000
     43         11.301727   0.000000
     44         11.324981   0.000000
     45         11.747799   0.000000
     46         11.878714   0.000000
     47         12.427497   0.000000
     48         12.465705   0.000000
     49         12.606306   0.000000
     50         12.731204   0.000000
     51         13.172517   0.000000
     52         13.187701   0.000000
     53         13.495299   0.000000
     54         13.828036   0.000000
     55         14.104848   0.000000
     56         14.291365   0.000000
     57         15.408909   0.000000
     58         15.537224   0.000000
     59         15.669227   0.000000
     60         15.747312   0.000000
     61         16.003422   0.000000
     62         16.140852   0.000000
     63         16.682628   0.000000
     64         16.861487   0.000000
 
  0.4444444E+00  0.1276756E-14  0.1276756E-14  0.4444444E-01
      1        -57.608769   1.000000
      2        -57.580926   1.000000
      3        -34.051980   1.000000
      4        -33.998776   1.000000
      5        -33.948979   1.000000
      6        -33.930269   1.000000
      7        -33.915637   1.000000
      8        -33.785357   1.000000
      9         -5.225360   1.000000
     10         -3.569800   1.000000
     11         -3.273232   1.000000
     12         -2.601569   1.000000
     13         -2.213132   1.000000
     14         -1.393637   1.000000
     15         -1.235422   1.000000
     16         -0.488244  -0.001723
     17          0.400676  -0.000000
     18          0.783607  -0.000000
     19          0.910569  -0.000000
     20          1.307229   0.000000
     21          2.691772   0.000000
     22          2.974235   0.000000
     23          3.061882   0.000000
     24          3.581608   0.000000
     25          3.730526   0.000000
     26          4.418295   0.000000
     27          4.887708   0.000000
     28          5.118503   0.000000
     29          5.785589   0.000000
     30          6.515553   0.000000
     31          6.599059   0.000000
     32          7.128209   0.000000
     33          7.281407   0.000000
     34          7.741524   0.000000
     35          7.821126   0.000000
     36          8.374861   0.000000
     37          8.813054   0.000000
     38          9.104382   0.000000
     39          9.566801   0.000000
     40          9.571536   0.000000
     41         10.265910   0.000000
     42         10.740997   0.000000
     43         11.026236   0.000000
     44         11.412075   0.000000
     45         11.495658   0.000000
     46         11.855152   0.000000
     47         12.037343   0.000000
     48         12.329088   0.000000
     49         12.925003   0.000000
     50         13.098865   0.000000
     51         13.289092   0.000000
     52         13.482101   0.000000
     53         14.039243   0.000000
     54         14.106604   0.000000
     55         14.145665   0.000000
     56         14.332018   0.000000
     57         14.361814   0.000000
     58         14.602205   0.000000
     59         15.079266   0.000000
     60         15.081082   0.000000
     61         15.411838   0.000000
     62         15.788529   0.000000
     63         16.110927   0.000000
     64         16.315494   0.000000
 
  0.1276756E-14  0.2000000E+00  0.1276756E-14  0.4444444E-01
      1        -57.662786   1.000000
      2        -57.634089   1.000000
      3        -34.105139   1.000000
      4        -34.052662   1.000000
      5        -33.982100   1.000000
      6        -33.830806   1.000000
      7        -33.505125   1.000000
      8        -33.484373   1.000000
      9         -8.430978   1.000000
     10         -6.210425   1.000000
     11         -3.994983   1.000000
     12         -2.397308   1.000000
     13         -1.762571   1.000000
     14         -1.694009   1.000000
     15         -1.268616   1.000000
     16         -0.559946  -0.018906
     17         -0.444960  -0.000220
     18          0.306610  -0.000000
     19          0.825940  -0.000000
     20          1.180105  -0.000000
     21          1.274808   0.000000
     22          1.486305   0.000000
     23          1.937039   0.000000
     24          3.150089   0.000000
     25          3.295486   0.000000
     26          3.518713   0.000000
     27          3.769187   0.000000
     28          4.700122   0.000000
     29          4.909301   0.000000
     30          5.824240   0.000000
     31          6.241440   0.000000
     32          7.019335   0.000000
     33          7.362702   0.000000
     34          7.880070   0.000000
     35          8.275215   0.000000
     36          8.625867   0.000000
     37          8.736567   0.000000
     38          9.104165   0.000000
     39          9.738781   0.000000
     40         10.757471   0.000000
     41         10.905180   0.000000
     42         11.056711   0.000000
     43         11.606535   0.000000
     44         11.998461   0.000000
     45         12.247251   0.000000
     46         12.292277   0.000000
     47         12.379976   0.000000
     48         13.496046   0.000000
     49         13.611634   0.000000
     50         14.308085   0.000000
     51         14.423807   0.000000
     52         15.123385   0.000000
     53         15.435211   0.000000
     54         15.548584   0.000000
     55         15.990513   0.000000
     56         16.294818   0.000000
     57         16.573139   0.000000
     58         16.802248   0.000000
     59         16.813848   0.000000
     60         16.864634   0.000000
     61         17.323776   0.000000
     62         17.640337   0.000000
     63         17.892645   0.000000
     64         17.924573   0.000000
 
  0.1111111E+00  0.2000000E+00  0.1276756E-14  0.8888889E-01
      1        -57.656301   1.000000
      2        -57.627725   1.000000
      3        -34.098723   1.000000
      4        -34.046414   1.000000
      5        -33.975746   1.000000
      6        -33.825381   1.000000
      7        -33.559861   1.000000
      8        -33.537590   1.000000
      9         -8.203726   1.000000
     10         -6.008076   1.000000
     11         -3.771453   1.000000
     12         -2.229568   1.000000
     13         -1.699469   1.000000
     14         -1.486490   1.000000
     15         -1.123242   1.000000
     16         -0.641455  -0.007153
     17         -0.315913  -0.000000
     18          0.256938  -0.000000
     19          0.601999  -0.000000
     20          1.082530  -0.000000
     21          1.279808   0.000000
     22          1.563426   0.000000
     23          1.758313   0.000000
     24          3.327451   0.000000
     25          3.522748   0.000000
     26          3.787030   0.000000
     27          4.019750   0.000000
     28          4.912338   0.000000
     29          5.182890   0.000000
     30          6.015210   0.000000
     31          6.191874   0.000000
     32          6.855370   0.000000
     33          7.244101   0.000000
     34          7.610590   0.000000
     35          8.116715   0.000000
     36          8.249735   0.000000
     37          8.739122   0.000000
     38          8.943942   0.000000
     39          9.014823   0.000000
     40         10.842995   0.000000
     41         11.254651   0.000000
     42         11.581725   0.000000
     43         11.967127   0.000000
     44         12.051781   0.000000
     45         12.337985   0.000000
     46         12.472888   0.000000
     47         12.739113   0.000000
     48         13.198509   0.000000
     49         13.283539   0.000000
     50         13.785496   0.000000
     51         13.878837   0.000000
     52         14.267060   0.000000
     53         15.097492   0.000000
     54         15.311810   0.000000
     55         15.485896   0.000000
     56         16.004596   0.000000
     57         16.261209   0.000000
     58         16.591147   0.000000
     59         16.916361   0.000000
     60         17.322594   0.000000
     61         17.619324   0.000000
     62         17.704720   0.000000
     63         18.089252   0.000000
     64         18.366233   0.000000
 
  0.2222222E+00  0.2000000E+00  0.1276756E-14  0.8888889E-01
      1        -57.639833   1.000000
      2        -57.611559   1.000000
      3        -34.082430   1.000000
      4        -34.030563   1.000000
      5        -33.959617   1.000000
      6        -33.811627   1.000000
      7        -33.696878   1.000000
      8        -33.670810   1.000000
      9         -7.539100   1.000000
     10         -5.419771   1.000000
     11         -3.199088   1.000000
     12         -1.906017   1.000000
     13         -1.674642   1.000000
     14         -0.969278   1.001778
     15         -0.920638   1.010415
     16         -0.779663   0.873036
     17         -0.047203  -0.000000
     18          0.120387  -0.000000
     19          0.410074  -0.000000
     20          0.967227  -0.000000
     21          1.316587   0.000000
     22          1.529025   0.000000
     23          1.972770   0.000000
     24          3.799696   0.000000
     25          4.034641   0.000000
     26          4.244459   0.000000
     27          4.484397   0.000000
     28          4.656515   0.000000
     29          5.478711   0.000000
     30          5.792932   0.000000
     31          6.006062   0.000000
     32          6.534006   0.000000
     33          7.227202   0.000000
     34          7.913829   0.000000
     35          8.118560   0.000000
     36          8.848936   0.000000
     37          9.175931   0.000000
     38          9.369334   0.000000
     39          9.480955   0.000000
     40          9.560238   0.000000
     41          9.909127   0.000000
     42         11.076580   0.000000
     43         11.635942   0.000000
     44         11.723850   0.000000
     45         12.190880   0.000000
     46         12.478092   0.000000
     47         12.926763   0.000000
     48         12.984752   0.000000
     49         13.156323   0.000000
     50         13.876965   0.000000
     51         14.032220   0.000000
     52         14.225466   0.000000
     53         14.380168   0.000000
     54         14.565530   0.000000
     55         15.045790   0.000000
     56         15.400169   0.000000
     57         15.793493   0.000000
     58         15.978651   0.000000
     59         16.477636   0.000000
     60         16.627082   0.000000
     61         16.917167   0.000000
     62         17.073711   0.000000
     63         17.102607   0.000000
     64         17.373164   0.000000
 
  0.3333333E+00  0.2000000E+00  0.1276756E-14  0.8888889E-01
      1        -57.621023   1.000000
      2        -57.593096   1.000000
      3        -34.063832   1.000000
      4        -34.012478   1.000000
      5        -33.941191   1.000000
      6        -33.850016   1.000000
      7        -33.820194   1.000000
      8        -33.795533   1.000000
      9         -6.485115   1.000000
     10         -4.513841   1.000000
     11         -2.618027   1.000000
     12         -2.164100   1.000000
     13         -1.798189   1.000000
     14         -1.211580   1.000000
     15         -0.787389   0.912068
     16         -0.515657  -0.005051
     17         -0.075890  -0.000000
     18          0.426763  -0.000000
     19          0.828594  -0.000000
     20          0.984325  -0.000000
     21          1.317857   0.000000
     22          2.089528   0.000000
     23          2.384808   0.000000
     24          3.360856   0.000000
     25          3.494385   0.000000
     26          4.480001   0.000000
     27          5.099368   0.000000
     28          5.398941   0.000000
     29          5.689554   0.000000
     30          6.401064   0.000000
     31          6.578159   0.000000
     32          6.934892   0.000000
     33          7.473093   0.000000
     34          7.769825   0.000000
     35          8.162149   0.000000
     36          8.540199   0.000000
     37          8.778717   0.000000
     38          9.255130   0.000000
     39          9.565187   0.000000
     40         10.001592   0.000000
     41         10.467200   0.000000
     42         10.610241   0.000000
     43         10.802969   0.000000
     44         11.196142   0.000000
     45         11.640447   0.000000
     46         12.144451   0.000000
     47         12.555936   0.000000
     48         12.725317   0.000000
     49         13.292319   0.000000
     50         13.363191   0.000000
     51         13.589339   0.000000
     52         13.814963   0.000000
     53         14.006523   0.000000
     54         14.034818   0.000000
     55         14.353621   0.000000
     56         14.471501   0.000000
     57         14.915626   0.000000
     58         15.249944   0.000000
     59         15.393340   0.000000
     60         15.669016   0.000000
     61         15.713828   0.000000
     62         16.346349   0.000000
     63         16.608071   0.000000
     64         16.738134   0.000000
 
  0.4444444E+00  0.2000000E+00  0.1276756E-14  0.8888889E-01
      1        -57.608696   1.000000
      2        -57.580995   1.000000
      3        -34.051617   1.000000
      4        -34.000647   1.000000
      5        -33.948571   1.000000
      6        -33.929091   1.000000
      7        -33.915853   1.000000
      8        -33.785475   1.000000
      9         -5.146993   1.000000
     10         -3.555470   1.000000
     11         -3.400525   1.000000
     12         -2.534695   1.000000
     13         -1.876305   1.000000
     14         -1.285377   1.000000
     15         -0.935915   1.006380
     16         -0.547487  -0.013809
     17          0.219983  -0.000000
     18          0.612128  -0.000000
     19          0.796670  -0.000000
     20          1.226428  -0.000000
     21          1.528996   0.000000
     22          2.694301   0.000000
     23          2.825280   0.000000
     24          3.147811   0.000000
     25          4.099366   0.000000
     26          4.579152   0.000000
     27          5.083903   0.000000
     28          5.381357   0.000000
     29          5.729512   0.000000
     30          6.766211   0.000000
     31          7.045344   0.000000
     32          7.216922   0.000000
     33          7.500856   0.000000
     34          8.019652   0.000000
     35          8.437055   0.000000
     36          8.617925   0.000000
     37          8.946642   0.000000
     38          9.412215   0.000000
     39          9.629313   0.000000
     40          9.877547   0.000000
     41         10.082790   0.000000
     42         10.464869   0.000000
     43         10.691273   0.000000
     44         11.109019   0.000000
     45         11.374887   0.000000
     46         11.649962   0.000000
     47         11.997101   0.000000
     48         12.150837   0.000000
     49         12.313791   0.000000
     50         12.455472   0.000000
     51         12.906408   0.000000
     52         13.219083   0.000000
     53         13.786553   0.000000
     54         14.008830   0.000000
     55         14.260854   0.000000
     56         14.308873   0.000000
     57         14.484685   0.000000
     58         15.001398   0.000000
     59         15.082887   0.000000
     60         15.338394   0.000000
     61         15.537702   0.000000
     62         15.968619   0.000000
     63         16.178642   0.000000
     64         16.484692   0.000000
 
  0.1276756E-14  0.4000000E+00  0.1276756E-14  0.4444444E-01
      1        -57.662627   1.000000
      2        -57.634212   1.000000
      3        -34.104496   1.000000
      4        -34.056628   1.000000
      5        -33.980213   1.000000
      6        -33.831174   1.000000
      7        -33.504986   1.000000
      8        -33.484542   1.000000
      9         -7.887381   1.000000
     10         -6.347782   1.000000
     11         -4.425437   1.000000
     12         -3.421290   1.000000
     13         -2.032882   1.000000
     14         -1.334564   1.000000
     15         -1.265534   1.000000
     16         -0.612876  -0.034809
     17         -0.048420  -0.000000
     18          0.387212  -0.000000
     19          1.039916  -0.000000
     20          1.163622  -0.000000
     21          1.197641  -0.000000
     22          1.529744   0.000000
     23          1.941066   0.000000
     24          2.615282   0.000000
     25          3.491989   0.000000
     26          4.043368   0.000000
     27          4.555403   0.000000
     28          5.214995   0.000000
     29          5.286599   0.000000
     30          5.564738   0.000000
     31          5.878276   0.000000
     32          6.620108   0.000000
     33          6.919118   0.000000
     34          7.535901   0.000000
     35          8.184964   0.000000
     36          8.801911   0.000000
     37          8.995085   0.000000
     38          9.238092   0.000000
     39          9.846676   0.000000
     40         10.315929   0.000000
     41         10.555922   0.000000
     42         10.902153   0.000000
     43         11.159113   0.000000
     44         12.005461   0.000000
     45         12.453986   0.000000
     46         12.955838   0.000000
     47         13.456029   0.000000
     48         13.538709   0.000000
     49         13.763233   0.000000
     50         14.273342   0.000000
     51         14.415437   0.000000
     52         14.684026   0.000000
     53         15.120202   0.000000
     54         15.517318   0.000000
     55         16.444427   0.000000
     56         16.517255   0.000000
     57         16.596511   0.000000
     58         17.333663   0.000000
     59         17.389507   0.000000
     60         17.585379   0.000000
     61         17.862222   0.000000
     62         18.090806   0.000000
     63         18.265935   0.000000
     64         18.565931   0.000000
 
  0.1111111E+00  0.4000000E+00  0.1276756E-14  0.8888889E-01
      1        -57.656146   1.000000
      2        -57.627845   1.000000
      3        -34.098070   1.000000
      4        -34.050254   1.000000
      5        -33.973881   1.000000
      6        -33.825727   1.000000
      7        -33.559649   1.000000
      8        -33.537770   1.000000
      9         -7.682026   1.000000
     10         -6.149606   1.000000
     11         -4.167715   1.000000
     12         -3.193370   1.000000
     13         -1.890943   1.000000
     14         -1.191817   1.000000
     15         -1.061156   1.000014
     16         -0.572350  -0.024559
     17         -0.031361  -0.000000
     18          0.241373  -0.000000
     19          0.689179  -0.000000
     20          0.896047  -0.000000
     21          1.082135  -0.000000
     22          1.735503   0.000000
     23          1.832982   0.000000
     24          2.778689   0.000000
     25          3.713697   0.000000
     26          4.290291   0.000000
     27          4.749701   0.000000
     28          5.480491   0.000000
     29          5.567424   0.000000
     30          5.827593   0.000000
     31          6.158256   0.000000
     32          6.642667   0.000000
     33          7.099990   0.000000
     34          7.165129   0.000000
     35          8.237224   0.000000
     36          8.447973   0.000000
     37          8.538274   0.000000
     38          9.037096   0.000000
     39          9.559052   0.000000
     40         10.019490   0.000000
     41         10.565113   0.000000
     42         10.981086   0.000000
     43         11.381995   0.000000
     44         11.684151   0.000000
     45         12.211023   0.000000
     46         12.769821   0.000000
     47         13.052554   0.000000
     48         13.698908   0.000000
     49         13.833806   0.000000
     50         14.007917   0.000000
     51         14.691631   0.000000
     52         14.885297   0.000000
     53         15.199876   0.000000
     54         15.346205   0.000000
     55         15.605463   0.000000
     56         15.820637   0.000000
     57         16.715787   0.000000
     58         16.772991   0.000000
     59         17.127254   0.000000
     60         17.700492   0.000000
     61         17.980003   0.000000
     62         18.250163   0.000000
     63         18.641368   0.000000
     64         18.803117   0.000000
 
  0.2222222E+00  0.4000000E+00  0.1276756E-14  0.8888889E-01
      1        -57.639689   1.000000
      2        -57.611678   1.000000
      3        -34.081781   1.000000
      4        -34.034086   1.000000
      5        -33.957783   1.000000
      6        -33.811917   1.000000
      7        -33.696487   1.000000
      8        -33.671053   1.000000
      9         -7.083160   1.000000
     10         -5.581065   1.000000
     11         -3.447511   1.000000
     12         -2.580886   1.000000
     13         -1.531887   1.000000
     14         -0.917031   1.011583
     15         -0.774738   0.845055