       N       E                     dE             d eps       ncg     rms          rms(c)
DAV:   1     0.586476324680E+02    0.58648E+02   -0.16939E+04  1920   0.391E+02
DAV:   2    -0.244828129187E+02   -0.83130E+02   -0.83038E+02  2880   0.558E+01
DAV:   3    -0.259752359534E+02   -0.14924E+01   -0.14919E+01  1920   0.109E+01
DAV:   4    -0.260312605772E+02   -0.56025E-01   -0.56023E-01  3712   0.155E+00
DAV:   5    -0.260312772301E+02   -0.16653E-04   -0.16653E-04  1920   0.324E-02    0.124E+01
DAV:   6    -0.229860421668E+02    0.30452E+01   -0.49864E+01  3072   0.141E+01    0.738E+00
DAV:   7    -0.219103606400E+02    0.10757E+01   -0.12800E+01  3264   0.577E+00    0.304E+00
DAV:   8    -0.217203659827E+02    0.18999E+00   -0.15773E+00  3456   0.257E+00    0.143E+00
DAV:   9    -0.216948234995E+02    0.25542E-01   -0.14355E-01  3520   0.811E-01    0.449E-01
DAV:  10    -0.216901479770E+02    0.46755E-02   -0.15771E-02  3200   0.253E-01    0.210E-01
DAV:  11    -0.216892217918E+02    0.92619E-03   -0.16342E-02  3328   0.189E-01    0.141E-01
DAV:  12    -0.216883354497E+02    0.88634E-03   -0.33705E-03  2880   0.951E-02    0.623E-02
DAV:  13    -0.216887027521E+02   -0.36730E-03   -0.18407E-03  3072   0.864E-02    0.421E-02
DAV:  14    -0.216890427444E+02   -0.33999E-03   -0.46078E-04  2560   0.450E-02    0.190E-02
DAV:  15    -0.216892020669E+02   -0.15932E-03   -0.94198E-05  2816   0.147E-02    0.107E-02
DAV:  16    -0.216894685771E+02   -0.26651E-03   -0.72409E-05  3072   0.138E-02    0.694E-03
DAV:  17    -0.216897330541E+02   -0.26448E-03   -0.34365E-05  2880   0.596E-03    0.360E-03
DAV:  18    -0.216898708634E+02   -0.13781E-03   -0.26389E-05  2816   0.378E-03    0.960E-04
DAV:  19    -0.216898998759E+02   -0.29013E-04   -0.31808E-06  2752   0.120E-03    0.473E-04
DAV:  20    -0.216899068785E+02   -0.70026E-05   -0.68031E-07  2688   0.546E-04
   1 F= -.21689907E+02 E0= -.21689116E+02  d E =-.237380E-02
