  16  16   0   0
  0.1619388E+02  0.5606952E-09  0.5606952E-09  0.8241707E-09  0.5000000E-15
  1.000000000000000E-004
  CAR 
 unknown system                          
     25.41337172    -51.99136389  301      8.26902877      1.00000000
    -51.991  0.0000E+00  0.0000E+00
    -51.733  0.0000E+00  0.0000E+00
    -51.475  0.0000E+00  0.0000E+00
    -51.217  0.0000E+00  0.0000E+00
    -50.959  0.0000E+00  0.0000E+00
    -50.701  0.0000E+00  0.0000E+00
    -50.443  0.0000E+00  0.0000E+00
    -50.185  0.0000E+00  0.0000E+00
    -49.927  0.0000E+00  0.0000E+00
    -49.669  0.0000E+00  0.0000E+00
    -49.411 -0.2856E-37 -0.7368E-38
    -49.153 -0.4147E-19 -0.1070E-19
    -48.895 -0.9300E-07 -0.2400E-07
    -48.637 -0.2311E+00 -0.5962E-01
    -48.379  0.2544E+02  0.6504E+01
    -48.121  0.2849E+02  0.1385E+02
    -47.863  0.5625E+00  0.1400E+02
    -47.605 -0.3754E-03  0.1400E+02
    -47.347  0.0000E+00  0.1400E+02
    -47.089  0.0000E+00  0.1400E+02
    -46.831  0.0000E+00  0.1400E+02
    -46.573  0.0000E+00  0.1400E+02
    -46.315  0.0000E+00  0.1400E+02
    -46.057  0.0000E+00  0.1400E+02
    -45.799  0.0000E+00  0.1400E+02
    -45.541  0.0000E+00  0.1400E+02
    -45.283  0.0000E+00  0.1400E+02
    -45.025  0.0000E+00  0.1400E+02
    -44.767  0.0000E+00  0.1400E+02
    -44.509  0.0000E+00  0.1400E+02
    -44.251  0.0000E+00  0.1400E+02
    -43.993  0.0000E+00  0.1400E+02
    -43.735  0.0000E+00  0.1400E+02
    -43.477  0.0000E+00  0.1400E+02
    -43.219  0.0000E+00  0.1400E+02
    -42.961  0.0000E+00  0.1400E+02
    -42.703  0.0000E+00  0.1400E+02
    -42.445  0.0000E+00  0.1400E+02
    -42.187  0.0000E+00  0.1400E+02
    -41.929  0.0000E+00  0.1400E+02
    -41.671  0.0000E+00  0.1400E+02
    -41.413  0.0000E+00  0.1400E+02
    -41.155  0.0000E+00  0.1400E+02
    -40.897  0.0000E+00  0.1400E+02
    -40.639  0.0000E+00  0.1400E+02
    -40.381  0.0000E+00  0.1400E+02
    -40.123  0.0000E+00  0.1400E+02
    -39.865  0.0000E+00  0.1400E+02
    -39.607  0.0000E+00  0.1400E+02
    -39.349  0.0000E+00  0.1400E+02
    -39.091  0.0000E+00  0.1400E+02
    -38.833  0.0000E+00  0.1400E+02
    -38.575  0.0000E+00  0.1400E+02
    -38.317  0.0000E+00  0.1400E+02
    -38.059  0.0000E+00  0.1400E+02
    -37.800  0.0000E+00  0.1400E+02
    -37.542  0.0000E+00  0.1400E+02
    -37.284  0.0000E+00  0.1400E+02
    -37.026  0.0000E+00  0.1400E+02
    -36.768  0.0000E+00  0.1400E+02
    -36.510  0.0000E+00  0.1400E+02
    -36.252  0.0000E+00  0.1400E+02
    -35.994  0.0000E+00  0.1400E+02
    -35.736  0.0000E+00  0.1400E+02
    -35.478  0.0000E+00  0.1400E+02
    -35.220  0.0000E+00  0.1400E+02
    -34.962  0.0000E+00  0.1400E+02
    -34.704  0.0000E+00  0.1400E+02
    -34.446  0.0000E+00  0.1400E+02
    -34.188  0.0000E+00  0.1400E+02
    -33.930  0.0000E+00  0.1400E+02
    -33.672  0.0000E+00  0.1400E+02
    -33.414  0.0000E+00  0.1400E+02
    -33.156  0.0000E+00  0.1400E+02
    -32.898  0.0000E+00  0.1400E+02
    -32.640  0.0000E+00  0.1400E+02
    -32.382  0.0000E+00  0.1400E+02
    -32.124  0.0000E+00  0.1400E+02
    -31.866  0.0000E+00  0.1400E+02
    -31.608  0.0000E+00  0.1400E+02
    -31.350  0.0000E+00  0.1400E+02
    -31.092  0.0000E+00  0.1400E+02
    -30.834  0.0000E+00  0.1400E+02
    -30.576  0.0000E+00  0.1400E+02
    -30.318  0.0000E+00  0.1400E+02
    -30.060  0.0000E+00  0.1400E+02
    -29.802  0.0000E+00  0.1400E+02
    -29.544  0.0000E+00  0.1400E+02
    -29.286  0.0000E+00  0.1400E+02
    -29.028  0.0000E+00  0.1400E+02
    -28.770  0.0000E+00  0.1400E+02
    -28.512  0.0000E+00  0.1400E+02
    -28.254  0.0000E+00  0.1400E+02
    -27.996  0.0000E+00  0.1400E+02
    -27.738  0.0000E+00  0.1400E+02
    -27.480  0.0000E+00  0.1400E+02
    -27.222  0.0000E+00  0.1400E+02
    -26.964  0.0000E+00  0.1400E+02
    -26.706  0.0000E+00  0.1400E+02
    -26.448  0.0000E+00  0.1400E+02
    -26.190  0.0000E+00  0.1400E+02
    -25.932 -0.3756E-48  0.1400E+02
    -25.674 -0.6637E-27  0.1400E+02
    -25.416 -0.5579E-12  0.1400E+02
    -25.158 -0.7880E-03  0.1400E+02
    -24.900 -0.8084E+00  0.1379E+02
    -24.642  0.9507E+02  0.3832E+02
    -24.384  0.4453E+02  0.4981E+02
    -24.126  0.2436E+02  0.5610E+02
    -23.868 -0.3751E+00  0.5600E+02
    -23.610 -0.4457E-05  0.5600E+02
    -23.352  0.0000E+00  0.5600E+02
    -23.094  0.0000E+00  0.5600E+02
    -22.836  0.0000E+00  0.5600E+02
    -22.578  0.0000E+00  0.5600E+02
    -22.320  0.0000E+00  0.5600E+02
    -22.062  0.0000E+00  0.5600E+02
    -21.804  0.0000E+00  0.5600E+02
    -21.546  0.0000E+00  0.5600E+02
    -21.287  0.0000E+00  0.5600E+02
    -21.029  0.0000E+00  0.5600E+02
    -20.771  0.0000E+00  0.5600E+02
    -20.513  0.0000E+00  0.5600E+02
    -20.255  0.0000E+00  0.5600E+02
    -19.997  0.0000E+00  0.5600E+02
    -19.739  0.0000E+00  0.5600E+02
    -19.481  0.0000E+00  0.5600E+02
    -19.223  0.0000E+00  0.5600E+02
    -18.965  0.0000E+00  0.5600E+02
    -18.707  0.0000E+00  0.5600E+02
    -18.449  0.0000E+00  0.5600E+02
    -18.191  0.0000E+00  0.5600E+02
    -17.933  0.0000E+00  0.5600E+02
    -17.675  0.0000E+00  0.5600E+02
    -17.417  0.0000E+00  0.5600E+02
    -17.159  0.0000E+00  0.5600E+02
    -16.901  0.0000E+00  0.5600E+02
    -16.643  0.0000E+00  0.5600E+02
    -16.385  0.0000E+00  0.5600E+02
    -16.127  0.0000E+00  0.5600E+02
    -15.869  0.0000E+00  0.5600E+02
    -15.611  0.0000E+00  0.5600E+02
    -15.353  0.0000E+00  0.5600E+02
    -15.095  0.0000E+00  0.5600E+02
    -14.837  0.0000E+00  0.5600E+02
    -14.579  0.0000E+00  0.5600E+02
    -14.321  0.0000E+00  0.5600E+02
    -14.063  0.0000E+00  0.5600E+02
    -13.805  0.0000E+00  0.5600E+02
    -13.547  0.0000E+00  0.5600E+02
    -13.289  0.0000E+00  0.5600E+02
    -13.031  0.0000E+00  0.5600E+02
    -12.773  0.0000E+00  0.5600E+02
    -12.515  0.0000E+00  0.5600E+02
    -12.257  0.0000E+00  0.5600E+02
    -11.999  0.0000E+00  0.5600E+02
    -11.741  0.0000E+00  0.5600E+02
    -11.483  0.0000E+00  0.5600E+02
    -11.225  0.0000E+00  0.5600E+02
    -10.967  0.0000E+00  0.5600E+02
    -10.709  0.0000E+00  0.5600E+02
    -10.451  0.0000E+00  0.5600E+02
    -10.193  0.0000E+00  0.5600E+02
     -9.935  0.0000E+00  0.5600E+02
     -9.677  0.0000E+00  0.5600E+02
     -9.419  0.0000E+00  0.5600E+02
     -9.161  0.0000E+00  0.5600E+02
     -8.903  0.0000E+00  0.5600E+02
     -8.645  0.0000E+00  0.5600E+02
     -8.387  0.0000E+00  0.5600E+02
     -8.129  0.0000E+00  0.5600E+02
     -7.871  0.0000E+00  0.5600E+02
     -7.613 -0.2909E-47  0.5600E+02
     -7.355 -0.7048E-26  0.5600E+02
     -7.097 -0.5619E-11  0.5600E+02
     -6.839 -0.5703E-02  0.5600E+02
     -6.581  0.8098E+01  0.5809E+02
     -6.323  0.3086E+02  0.6605E+02
     -6.065 -0.1986E+00  0.6600E+02
     -5.807 -0.3602E-07  0.6600E+02
     -5.549  0.0000E+00  0.6600E+02
     -5.291  0.0000E+00  0.6600E+02
     -5.032  0.0000E+00  0.6600E+02
     -4.774  0.0000E+00  0.6600E+02
     -4.516  0.0000E+00  0.6600E+02
     -4.258  0.0000E+00  0.6600E+02
     -4.000  0.0000E+00  0.6600E+02
     -3.742  0.0000E+00  0.6600E+02
     -3.484  0.0000E+00  0.6600E+02
     -3.226  0.0000E+00  0.6600E+02
     -2.968  0.0000E+00  0.6600E+02
     -2.710  0.0000E+00  0.6600E+02
     -2.452  0.0000E+00  0.6600E+02
     -2.194 -0.2419E-30  0.6600E+02
     -1.936 -0.7138E-15  0.6600E+02
     -1.678 -0.2663E-05  0.6600E+02
     -1.420  0.7195E-03  0.6600E+02
     -1.162  0.4979E+00  0.6613E+02
     -0.904  0.1275E+01  0.6646E+02
     -0.646  0.1921E+01  0.6695E+02
     -0.388  0.1741E+01  0.6740E+02
     -0.130  0.1818E+01  0.6787E+02
      0.128  0.1484E+01  0.6825E+02
      0.386  0.1469E+01  0.6863E+02
      0.644  0.2588E+01  0.6930E+02
      0.902  0.2412E+01  0.6992E+02
      1.160  0.3385E+01  0.7080E+02
      1.418  0.3700E+01  0.7175E+02
      1.676  0.2288E+01  0.7234E+02
      1.934  0.3699E+01  0.7330E+02
      2.192  0.2687E+01  0.7399E+02
      2.450  0.3626E+01  0.7493E+02
      2.708  0.3539E+01  0.7584E+02
      2.966  0.4214E+01  0.7693E+02
      3.224  0.3556E+01  0.7784E+02
      3.482  0.4456E+01  0.7899E+02
      3.740  0.5178E+01  0.8033E+02
      3.998  0.5126E+01  0.8165E+02
      4.256  0.2385E+01  0.8227E+02
      4.514  0.4530E+01  0.8344E+02
      4.772  0.4796E+01  0.8467E+02
      5.030  0.5739E+01  0.8615E+02
      5.288  0.6886E+01  0.8793E+02
      5.546  0.5160E+01  0.8926E+02
      5.804  0.8485E+01  0.9145E+02
      6.062  0.1072E+02  0.9422E+02
      6.320  0.9013E+01  0.9654E+02
      6.578  0.1273E+02  0.9983E+02
      6.836  0.1221E+02  0.1030E+03
      7.094  0.1197E+02  0.1061E+03
      7.352  0.8903E+01  0.1084E+03
      7.610  0.1094E+02  0.1112E+03
      7.868  0.1737E+02  0.1157E+03
      8.126  0.1473E+02  0.1195E+03
      8.384  0.1174E+02  0.1225E+03
      8.642  0.1005E+02  0.1251E+03
      8.900  0.1223E+02  0.1282E+03
      9.158  0.1077E+02  0.1310E+03
      9.416  0.1249E+02  0.1342E+03
      9.674  0.1559E+02  0.1383E+03
      9.932  0.1578E+02  0.1423E+03
     10.190  0.2398E+02  0.1485E+03
     10.448  0.2095E+02  0.1539E+03
     10.706  0.1836E+02  0.1587E+03
     10.964  0.1149E+02  0.1616E+03
     11.223  0.9444E+01  0.1641E+03
     11.481  0.1129E+02  0.1670E+03
     11.739  0.9447E+01  0.1694E+03
     11.997  0.1090E+02  0.1722E+03
     12.255  0.1196E+02  0.1753E+03
     12.513  0.9742E+01  0.1778E+03
     12.771  0.9218E+01  0.1802E+03
     13.029  0.6173E+01  0.1818E+03
     13.287  0.9905E+01  0.1844E+03
     13.545  0.6408E+01  0.1860E+03
     13.803  0.1139E+02  0.1890E+03
     14.061  0.1030E+02  0.1916E+03
     14.319  0.9010E+01  0.1939E+03
     14.577  0.7871E+01  0.1960E+03
     14.835  0.1022E+02  0.1986E+03
     15.093  0.8958E+01  0.2009E+03
     15.351  0.8596E+01  0.2031E+03
     15.609  0.8406E+01  0.2053E+03
     15.867  0.8466E+01  0.2075E+03
     16.125  0.7236E+01  0.2094E+03
     16.383  0.1029E+02  0.2120E+03
     16.641  0.9731E+01  0.2145E+03
     16.899  0.8373E+01  0.2167E+03
     17.157  0.9416E+01  0.2191E+03
     17.415  0.1076E+02  0.2219E+03
     17.673  0.7784E+01  0.2239E+03
     17.931  0.8241E+01  0.2260E+03
     18.189  0.7702E+01  0.2280E+03
     18.447  0.6255E+01  0.2296E+03
     18.705  0.9439E+01  0.2321E+03
     18.963  0.9008E+01  0.2344E+03
     19.221  0.8656E+01  0.2366E+03
     19.479  0.8526E+01  0.2388E+03
     19.737  0.6531E+01  0.2405E+03
     19.995  0.5570E+01  0.2419E+03
     20.253  0.8299E+01  0.2441E+03
     20.511  0.7446E+01  0.2460E+03
     20.769  0.1120E+02  0.2489E+03
     21.027  0.7984E+01  0.2509E+03
     21.285  0.7673E+01  0.2529E+03
     21.543  0.7825E+01  0.2549E+03
     21.801  0.3759E+01  0.2559E+03
     22.059  0.3376E+00  0.2560E+03
     22.317 -0.6856E-02  0.2560E+03
     22.575 -0.6555E-08  0.2560E+03
     22.833  0.0000E+00  0.2560E+03
     23.091  0.0000E+00  0.2560E+03
     23.349  0.0000E+00  0.2560E+03
     23.607  0.0000E+00  0.2560E+03
     23.865  0.0000E+00  0.2560E+03
     24.123  0.0000E+00  0.2560E+03
     24.381  0.0000E+00  0.2560E+03
     24.639  0.0000E+00  0.2560E+03
     24.897  0.0000E+00  0.2560E+03
     25.155  0.0000E+00  0.2560E+03
     25.413  0.0000E+00  0.2560E+03
