   16   16    1    1
  0.1619388E+02  0.5606952E-09  0.5606952E-09  0.8241707E-09  0.5000000E-15
  1.000000000000000E-004
  CAR 
 unknown system                          
    121     30    128
 
  0.1276756E-14  0.1276756E-14  0.1276756E-14  0.6944444E-02
      1        -48.472967   1.000000
      2        -48.448170   1.000000
      3        -48.385433   1.000000
      4        -48.369668   1.000000
      5        -48.362087   1.000000
      6        -48.226000   1.000000
      7        -48.169314   1.000000
      8        -24.874647   1.000000
      9        -24.874647   1.000000
     10        -24.823556   1.000000
     11        -24.807921   1.000000
     12        -24.807921   1.000000
     13        -24.797415   1.000000
     14        -24.787130   1.000000
     15        -24.780068   1.000000
     16        -24.780068   1.000000
     17        -24.765676   1.000000
     18        -24.732963   1.000000
     19        -24.732963   1.000000
     20        -24.718617   1.000000
     21        -24.588479   1.000000
     22        -24.561582   1.000000
     23        -24.378778   1.000000
     24        -24.378778   1.000000
     25        -24.291618   1.000000
     26        -24.291618   1.000000
     27        -24.230130   1.000000
     28        -24.230130   1.000000
     29         -6.556665   1.000000
     30         -6.553115   1.000000
     31         -6.553115   1.000000
     32         -6.549898   1.000000
     33         -6.506823   1.000000
     34         -1.367139   1.000000
     35          0.407371   1.000000
     36          1.423843   1.000000
     37          3.421346   1.000000
     38          3.421346   1.000000
     39          3.448024   1.000000
     40          3.448024   1.000000
     41          3.460879   1.000000
     42          3.754098   1.000000
     43          4.824034   1.000000
     44          5.229579   1.000000
     45          5.232010   1.000000
     46          5.684164   1.000000
     47          6.068087   1.000000
     48          6.133827   1.000000
     49          6.133827   1.000000
     50          6.423189   1.000000
     51          6.423189   1.000000
     52          6.578968   1.000000
     53          6.753634   1.000000
     54          6.753634   1.000000
     55          7.135376   1.000000
     56          7.281510   1.000000
     57          7.476944   1.000000
     58          7.691587   1.000000
     59          7.691587   1.000000
     60          7.768427   1.000000
     61          7.791722   1.000000
     62          8.251426   0.646442
     63          8.327450   0.087196
     64          8.327450   0.087196
     65          8.949186  -0.000000
     66          9.358189  -0.000000
     67          9.627581  -0.000000
     68          9.901148  -0.000000
     69         10.006296  -0.000000
     70         10.051988  -0.000000
     71         10.054984  -0.000000
     72         10.102724  -0.000000
     73         10.226572  -0.000000
     74         10.226572  -0.000000
     75         10.500619   0.000000
     76         10.500619   0.000000
     77         10.524741   0.000000
     78         10.736909   0.000000
     79         10.736909   0.000000
     80         10.898305   0.000000
     81         11.252871   0.000000
     82         11.418371   0.000000
     83         11.418371   0.000000
     84         11.608568   0.000000
     85         11.608568   0.000000
     86         11.622261   0.000000
     87         12.222259   0.000000
     88         12.484370   0.000000
     89         12.526072   0.000000
     90         12.551822   0.000000
     91         12.853455   0.000000
     92         12.853455   0.000000
     93         12.930488   0.000000
     94         13.153082   0.000000
     95         13.199942   0.000000
     96         13.199942   0.000000
     97         13.571588   0.000000
     98         13.603430   0.000000
     99         14.158886   0.000000
    100         14.352855   0.000000
    101         15.622910   0.000000
    102         15.622910   0.000000
    103         15.998360   0.000000
    104         16.253891   0.000000
    105         16.343745   0.000000
    106         16.416326   0.000000
    107         16.416326   0.000000
    108         17.220029   0.000000
    109         17.228771   0.000000
    110         17.527632   0.000000
    111         17.527632   0.000000
    112         18.705758   0.000000
    113         18.737997   0.000000
    114         18.737997   0.000000
    115         19.150966   0.000000
    116         19.214494   0.000000
    117         19.839745   0.000000
    118         19.839745   0.000000
    119         20.384327   0.000000
    120         20.384327   0.000000
    121         20.733651   0.000000
    122         20.788405   0.000000
    123         20.833514   0.000000
    124         20.833514   0.000000
    125         20.850743   0.000000
    126         21.366262   0.000000
    127         21.412923   0.000000
    128         21.412923   0.000000
 
  0.1666667E+00  0.1276756E-14  0.1276756E-14  0.2777778E-01
      1        -48.470587   1.000000
      2        -48.448277   1.000000
      3        -48.382815   1.000000
      4        -48.371995   1.000000
      5        -48.362305   1.000000
      6        -48.226987   1.000000
      7        -48.170843   1.000000
      8        -24.872871   1.000000
      9        -24.846086   1.000000
     10        -24.821082   1.000000
     11        -24.803615   1.000000
     12        -24.797688   1.000000
     13        -24.784753   1.000000
     14        -24.781736   1.000000
     15        -24.777237   1.000000
     16        -24.775909   1.000000
     17        -24.765976   1.000000
     18        -24.737280   1.000000
     19        -24.720849   1.000000
     20        -24.703606   1.000000
     21        -24.589095   1.000000
     22        -24.563147   1.000000
     23        -24.412204   1.000000
     24        -24.378914   1.000000
     25        -24.324866   1.000000
     26        -24.289741   1.000000
     27        -24.261690   1.000000
     28        -24.232076   1.000000
     29         -6.556134   1.000000
     30         -6.553074   1.000000
     31         -6.552791   1.000000
     32         -6.547566   1.000000
     33         -6.506449   1.000000
     34         -1.239429   1.000000
     35          0.513616   1.000000
     36          1.362642   1.000000
     37          2.478804   1.000000
     38          2.901818   1.000000
     39          3.498507   1.000000
     40          3.560290   1.000000
     41          3.710770   1.000000
     42          4.847645   1.000000
     43          5.047339   1.000000
     44          5.077612   1.000000
     45          5.238650   1.000000
     46          5.690661   1.000000
     47          5.821203   1.000000
     48          5.954989   1.000000
     49          6.106112   1.000000
     50          6.296640   1.000000
     51          6.593440   1.000000
     52          6.752024   1.000000
     53          6.764667   1.000000
     54          6.788930   1.000000
     55          6.882054   1.000000
     56          7.279296   1.000000
     57          7.422706   1.000000
     58          7.567691   1.000000
     59          7.776465   1.000000
     60          7.824458   1.000000
     61          8.078233   1.010640
     62          8.190978   0.984891
     63          8.429717  -0.022748
     64          8.766846  -0.000000
     65          9.039131  -0.000000
     66          9.441251  -0.000000
     67          9.549793  -0.000000
     68          9.755761  -0.000000
     69          9.953573  -0.000000
     70         10.034676  -0.000000
     71         10.038852  -0.000000
     72         10.149808  -0.000000
     73         10.242772  -0.000000
     74         10.243440  -0.000000
     75         10.498634   0.000000
     76         10.505908   0.000000
     77         10.518582   0.000000
     78         10.552768   0.000000
     79         10.713000   0.000000
     80         10.759641   0.000000
     81         10.764224   0.000000
     82         11.369612   0.000000
     83         11.474361   0.000000
     84         11.492429   0.000000
     85         11.624473   0.000000
     86         11.708317   0.000000
     87         12.156098   0.000000
     88         12.280953   0.000000
     89         12.386851   0.000000
     90         12.663885   0.000000
     91         12.938788   0.000000
     92         13.116713   0.000000
     93         13.130826   0.000000
     94         13.242049   0.000000
     95         13.523500   0.000000
     96         13.597465   0.000000
     97         13.703034   0.000000
     98         13.811366   0.000000
     99         14.329151   0.000000
    100         14.456713   0.000000
    101         14.936226   0.000000
    102         15.499455   0.000000
    103         15.592616   0.000000
    104         16.254798   0.000000
    105         16.274734   0.000000
    106         16.520270   0.000000
    107         16.586708   0.000000
    108         17.255500   0.000000
    109         17.314879   0.000000
    110         17.321686   0.000000
    111         17.812991   0.000000
    112         18.563565   0.000000
    113         18.621893   0.000000
    114         18.790899   0.000000
    115         18.825039   0.000000
    116         19.377657   0.000000
    117         19.494025   0.000000
    118         19.557409   0.000000
    119         19.672481   0.000000
    120         19.975895   0.000000
    121         20.054488   0.000000
    122         20.155585   0.000000
    123         20.234936   0.000000
    124         20.495289   0.000000
    125         20.660618   0.000000
    126         20.913424   0.000000
    127         20.992413   0.000000
    128         21.557247   0.000000
 
  0.3333333E+00  0.1276756E-14  0.1276756E-14  0.2777778E-01
      1        -48.465352   1.000000
      2        -48.448626   1.000000
      3        -48.377001   1.000000
      4        -48.376275   1.000000
      5        -48.363995   1.000000
      6        -48.228917   1.000000
      7        -48.174003   1.000000
      8        -24.869105   1.000000
      9        -24.815496   1.000000
     10        -24.799567   1.000000
     11        -24.798628   1.000000
     12        -24.792649   1.000000
     13        -24.785266   1.000000
     14        -24.778783   1.000000
     15        -24.767732   1.000000
     16        -24.748280   1.000000
     17        -24.737147   1.000000
     18        -24.725616   1.000000
     19        -24.689897   1.000000
     20        -24.628034   1.000000
     21        -24.590215   1.000000
     22        -24.566438   1.000000
     23        -24.502674   1.000000
     24        -24.411380   1.000000
     25        -24.379211   1.000000
     26        -24.343860   1.000000
     27        -24.285559   1.000000
     28        -24.236443   1.000000
     29         -6.555609   1.000000
     30         -6.552997   1.000000
     31         -6.552146   1.000000
     32         -6.542376   1.000000
     33         -6.505702   1.000000
     34         -0.880664   1.000000
     35          0.794075   1.000000
     36          0.826270   1.000000
     37          2.089841   1.000000
     38          2.318711   1.000000
     39          3.709261   1.000000
     40          3.887928   1.000000
     41          4.055698   1.000000
     42          4.471615   1.000000
     43          4.703916   1.000000
     44          5.147265   1.000000
     45          5.229716   1.000000
     46          5.644771   1.000000
     47          5.886269   1.000000
     48          5.946534   1.000000
     49          6.026316   1.000000
     50          6.607164   1.000000
     51          6.675392   1.000000
     52          6.815345   1.000000
     53          6.952932   1.000000
     54          7.020714   1.000000
     55          7.291288   1.000000
     56          7.293343   1.000000
     57          7.557068   1.000000
     58          7.704156   1.000000
     59          7.776970   1.000000
     60          7.885724   1.000000
     61          8.106073   1.021705
     62          8.485570  -0.004519
     63          8.647603  -0.000001
     64          8.856822  -0.000000
     65          9.090109  -0.000000
     66          9.216000  -0.000000
     67          9.289868  -0.000000
     68          9.448297  -0.000000
     69          9.615987  -0.000000
     70          9.909708  -0.000000
     71         10.023282  -0.000000
     72         10.153947  -0.000000
     73         10.159056  -0.000000
     74         10.236917  -0.000000
     75         10.304818   0.000000
     76         10.390086   0.000000
     77         10.499712   0.000000
     78         10.564866   0.000000
     79         10.636367   0.000000
     80         10.649991   0.000000
     81         11.149799   0.000000
     82         11.158648   0.000000
     83         11.167601   0.000000
     84         11.213578   0.000000
     85         11.562282   0.000000
     86         11.712425   0.000000
     87         12.135382   0.000000
     88         12.207823   0.000000
     89         12.259034   0.000000
     90         12.961600   0.000000
     91         13.190246   0.000000
     92         13.351077   0.000000
     93         13.416255   0.000000
     94         13.745852   0.000000
     95         13.892100   0.000000
     96         13.989522   0.000000
     97         14.137385   0.000000
     98         14.271017   0.000000
     99         14.378369   0.000000
    100         14.692377   0.000000
    101         14.936408   0.000000
    102         14.987231   0.000000
    103         15.500391   0.000000
    104         15.911594   0.000000
    105         16.462872   0.000000
    106         16.514453   0.000000
    107         16.556939   0.000000
    108         17.188710   0.000000
    109         17.402551   0.000000
    110         17.424969   0.000000
    111         17.523452   0.000000
    112         17.714690   0.000000
    113         17.848453   0.000000
    114         18.078082   0.000000
    115         18.162581   0.000000
    116         18.603882   0.000000
    117         18.925198   0.000000
    118         19.003059   0.000000
    119         19.216186   0.000000
    120         19.280889   0.000000
    121         19.379065   0.000000
    122         19.878626   0.000000
    123         20.358804   0.000000
    124         20.595674   0.000000
    125         20.603486   0.000000
    126         20.648481   0.000000
    127         21.191542   0.000000
    128         21.304531   0.000000
 
  0.5000000E+00  0.1276756E-14  0.1276756E-14  0.1388889E-01
      1        -48.462383   1.000000
      2        -48.448934   1.000000
      3        -48.379716   1.000000
      4        -48.369946   1.000000
      5        -48.367875   1.000000
      6        -48.229850   1.000000
      7        -48.175638   1.000000
      8        -24.867106   1.000000
      9        -24.812121   1.000000
     10        -24.799500   1.000000
     11        -24.793351   1.000000
     12        -24.787344   1.000000
     13        -24.783996   1.000000
     14        -24.772263   1.000000
     15        -24.772099   1.000000
     16        -24.756801   1.000000
     17        -24.728189   1.000000
     18        -24.628504   1.000000
     19        -24.619498   1.000000
     20        -24.592294   1.000000
     21        -24.591058   1.000000
     22        -24.590690   1.000000
     23        -24.568186   1.000000
     24        -24.478547   1.000000
     25        -24.414769   1.000000
     26        -24.379364   1.000000
     27        -24.283158   1.000000
     28        -24.238944   1.000000
     29         -6.555456   1.000000
     30         -6.552959   1.000000
     31         -6.551823   1.000000
     32         -6.539676   1.000000
     33         -6.505329   1.000000
     34         -0.537314   1.000000
     35          0.281064   1.000000
     36          1.220766   1.000000
     37          1.514244   1.000000
     38          2.493981   1.000000
     39          3.894797   1.000000
     40          3.906038   1.000000
     41          4.291619   1.000000
     42          4.441717   1.000000
     43          4.595992   1.000000
     44          4.792868   1.000000
     45          4.845722   1.000000
     46          5.354436   1.000000
     47          5.759111   1.000000
     48          5.976689   1.000000
     49          6.645917   1.000000
     50          6.662996   1.000000
     51          6.736419   1.000000
     52          7.085189   1.000000
     53          7.098970   1.000000
     54          7.230088   1.000000
     55          7.320028   1.000000
     56          7.483130   1.000000
     57          7.679442   1.000000
     58          7.834460   1.000000
     59          7.946957   1.000026
     60          7.978403   1.000156
     61          8.295866   0.281701
     62          8.470705  -0.007570
     63          8.493110  -0.003405
     64          8.891150  -0.000000
     65          8.896591  -0.000000
     66          9.051443  -0.000000
     67          9.103050  -0.000000
     68          9.192723  -0.000000
     69          9.544598  -0.000000
     70          9.624511  -0.000000
     71          9.929722  -0.000000
     72         10.098094  -0.000000
     73         10.134936  -0.000000
     74         10.172946  -0.000000
     75         10.347737   0.000000
     76         10.491846   0.000000
     77         10.615068   0.000000
     78         10.641565   0.000000
     79         10.738785   0.000000
     80         10.771617   0.000000
     81         10.934546   0.000000
     82         10.952144   0.000000
     83         11.003002   0.000000
     84         11.124888   0.000000
     85         11.404297   0.000000
     86         11.828099   0.000000
     87         11.850897   0.000000
     88         12.288922   0.000000
     89         12.326788   0.000000
     90         12.776630   0.000000
     91         13.312594   0.000000
     92         13.369784   0.000000
     93         13.502553   0.000000
     94         14.070097   0.000000
     95         14.467728   0.000000
     96         14.579388   0.000000
     97         14.617534   0.000000
     98         14.752063   0.000000
     99         14.804011   0.000000
    100         14.825668   0.000000
    101         14.994599   0.000000
    102         15.415837   0.000000
    103         15.422267   0.000000
    104         15.705186   0.000000
    105         15.741618   0.000000
    106         16.100738   0.000000
    107         16.231705   0.000000
    108         16.298654   0.000000
    109         16.550481   0.000000
    110         16.689080   0.000000
    111         17.367502   0.000000
    112         17.948892   0.000000
    113         17.996618   0.000000
    114         18.229413   0.000000
    115         18.312080   0.000000
    116         18.440569   0.000000
    117         18.895503   0.000000
    118         19.126768   0.000000
    119         19.188035   0.000000
    120         19.193121   0.000000
    121         19.211007   0.000000
    122         19.317908   0.000000
    123         19.593535   0.000000
    124         19.712040   0.000000
    125         21.248093   0.000000
    126         21.277414   0.000000
    127         21.372797   0.000000
    128         21.413107   0.000000
 
  0.1666667E+00  0.1666667E+00  0.1276756E-14  0.2777778E-01
      1        -48.468111   1.000000
      2        -48.448360   1.000000
      3        -48.380315   1.000000
      4        -48.374444   1.000000
      5        -48.362292   1.000000
      6        -48.228145   1.000000
      7        -48.172314   1.000000
      8        -24.844785   1.000000
      9        -24.842664   1.000000
     10        -24.818557   1.000000
     11        -24.797880   1.000000
     12        -24.782512   1.000000
     13        -24.781636   1.000000
     14        -24.777205   1.000000
     15        -24.772326   1.000000
     16        -24.771262   1.000000
     17        -24.766081   1.000000
     18        -24.723199   1.000000
     19        -24.709583   1.000000
     20        -24.705929   1.000000
     21        -24.589861   1.000000
     22        -24.564628   1.000000
     23        -24.413378   1.000000
     24        -24.411364   1.000000
     25        -24.324537   1.000000
     26        -24.321384   1.000000
     27        -24.263825   1.000000
     28        -24.263579   1.000000
     29         -6.555277   1.000000
     30         -6.552753   1.000000
     31         -6.552752   1.000000
     32         -6.545551   1.000000
     33         -6.506104   1.000000
     34         -1.113125   1.000000
     35          0.619835   1.000000
     36          1.352671   1.000000
     37          2.377058   1.000000
     38          2.755995   1.000000
     39          2.936991   1.000000
     40          3.089774   1.000000
     41          4.562516   1.000000
     42          4.724357   1.000000
     43          5.024535   1.000000
     44          5.186824   1.000000
     45          5.378126   1.000000
     46          5.716166   1.000000
     47          5.848413   1.000000
     48          5.856856   1.000000
     49          6.112021   1.000000
     50          6.322804   1.000000
     51          6.433334   1.000000
     52          6.764323   1.000000
     53          6.844929   1.000000
     54          6.916474   1.000000
     55          7.247923   1.000000
     56          7.344307   1.000000
     57          7.430724   1.000000
     58          7.625689   1.000000
     59          7.817791   1.000000
     60          7.944243   1.000022
     61          8.067879   1.007702
     62          8.170522   1.023508
     63          8.434102  -0.020740
     64          8.939961  -0.000000
     65          9.154007  -0.000000
     66          9.400423  -0.000000
     67          9.500760  -0.000000
     68          9.784986  -0.000000
     69          9.871412  -0.000000
     70          9.917148  -0.000000
     71         10.008615  -0.000000
     72         10.028352  -0.000000
     73         10.181046  -0.000000
     74         10.228056  -0.000000
     75         10.292735   0.000000
     76         10.294327   0.000000
     77         10.445036   0.000000
     78         10.450626   0.000000
     79         10.656253   0.000000
     80         10.871342   0.000000
     81         10.883409   0.000000
     82         11.149820   0.000000
     83         11.349493   0.000000
     84         11.513618   0.000000
     85         11.656865   0.000000
     86         11.775553   0.000000
     87         12.146399   0.000000
     88         12.432901   0.000000
     89         12.475562   0.000000
     90         12.704960   0.000000
     91         12.779231   0.000000
     92         12.941703   0.000000
     93         13.235588   0.000000
     94         13.324700   0.000000
     95         13.797427   0.000000
     96         13.972780   0.000000
     97         13.982057   0.000000
     98         14.006828   0.000000
     99         14.469775   0.000000
    100         14.637968   0.000000
    101         14.675341   0.000000
    102         15.269819   0.000000
    103         15.639292   0.000000
    104         16.060222   0.000000
    105         16.352236   0.000000
    106         16.419306   0.000000
    107         16.516688   0.000000
    108         16.966974   0.000000
    109         16.997991   0.000000
    110         17.351675   0.000000
    111         17.681146   0.000000
    112         18.207078   0.000000
    113         18.309042   0.000000
    114         18.333728   0.000000
    115         18.428150   0.000000
    116         18.860610   0.000000
    117         19.262649   0.000000
    118         19.591438   0.000000
    119         19.761922   0.000000
    120         19.791188   0.000000
    121         20.006926   0.000000
    122         20.100307   0.000000
    123         20.632771   0.000000
    124         21.044015   0.000000
    125         21.138684   0.000000
    126         21.152817   0.000000
    127         21.552455   0.000000
    128         21.586544   0.000000
 
  0.3333333E+00  0.1666667E+00  0.1276756E-14  0.5555556E-01
      1        -48.462625   1.000000
      2        -48.448645   1.000000
      3        -48.379766   1.000000
      4        -48.374145   1.000000
      5        -48.363360   1.000000
      6        -48.230456   1.000000
      7        -48.175351   1.000000
      8        -24.838462   1.000000
      9        -24.812822   1.000000
     10        -24.798626   1.000000
     11        -24.797984   1.000000
     12        -24.783626   1.000000
     13        -24.776966   1.000000
     14        -24.767272   1.000000
     15        -24.761166   1.000000
     16        -24.739331   1.000000
     17        -24.728292   1.000000
     18        -24.718514   1.000000
     19        -24.686137   1.000000
     20        -24.631382   1.000000
     21        -24.591322   1.000000
     22        -24.567738   1.000000
     23        -24.502974   1.000000
     24        -24.412670   1.000000
     25        -24.409782   1.000000
     26        -24.346036   1.000000
     27        -24.318451   1.000000
     28        -24.268213   1.000000
     29         -6.554330   1.000000
     30         -6.552675   1.000000
     31         -6.552108   1.000000
     32         -6.540768   1.000000
     33         -6.505413   1.000000
     34         -0.759522   1.000000
     35          0.900563   1.000000
     36          0.932416   1.000000
     37          2.174749   1.000000
     38          2.191651   1.000000
     39          3.026442   1.000000
     40          3.342396   1.000000
     41          3.849478   1.000000
     42          4.507117   1.000000
     43          4.560438   1.000000
     44          5.297361   1.000000
     45          5.618339   1.000000
     46          5.931539   1.000000
     47          6.057417   1.000000
     48          6.203023   1.000000
     49          6.354258   1.000000
     50          6.533382   1.000000
     51          6.653760   1.000000
     52          6.976067   1.000000
     53          7.010415   1.000000
     54          7.085604   1.000000
     55          7.271860   1.000000
     56          7.563680   1.000000
     57          7.601353   1.000000
     58          7.805819   1.000000
     59          7.893052   1.000001
     60          7.929177   1.000008
     61          8.100356   1.019129
     62          8.380314  -0.033223
     63          8.624967  -0.000003
     64          8.942998  -0.000000
     65          9.117273  -0.000000
     66          9.216926  -0.000000
     67          9.425756  -0.000000
     68          9.464215  -0.000000
     69          9.512436  -0.000000
     70          9.687393  -0.000000
     71          9.803781  -0.000000
     72          9.996044  -0.000000
     73         10.004440  -0.000000
     74         10.167430  -0.000000
     75         10.212766  -0.000000
     76         10.256364  -0.000000
     77         10.317584   0.000000
     78         10.347006   0.000000
     79         10.635636   0.000000
     80         10.835245   0.000000
     81         10.928174   0.000000
     82         10.997595   0.000000
     83         11.302607   0.000000
     84         11.442753   0.000000
     85         11.771745   0.000000
     86         12.003944   0.000000
     87         12.008497   0.000000
     88         12.275214   0.000000
     89         12.332148   0.000000
     90         13.054068   0.000000
     91         13.151471   0.000000
     92         13.170524   0.000000
     93         13.293940   0.000000
     94         13.603097   0.000000
     95         13.682201   0.000000
     96         14.241901   0.000000
     97         14.276067   0.000000
     98         14.286628   0.000000
     99         14.470339   0.000000
    100         14.600628   0.000000
    101         15.093967   0.000000
    102         15.318885   0.000000
    103         15.827552   0.000000
    104         16.102928   0.000000
    105         16.120151   0.000000
    106         16.200216   0.000000
    107         16.405105   0.000000
    108         16.664857   0.000000
    109         16.976750   0.000000
    110         17.055772   0.000000
    111         17.271500   0.000000
    112         17.370557   0.000000
    113         17.488278   0.000000
    114         17.699645   0.000000
    115         17.939004   0.000000
    116         18.617617   0.000000
    117         18.990937   0.000000
    118         19.226154   0.000000
    119         19.288273   0.000000
    120         19.817579   0.000000
    121         20.034385   0.000000
    122         20.247873   0.000000
    123         20.416993   0.000000
    124         20.687312   0.000000
    125         20.852509   0.000000
    126         21.240087   0.000000
    127         21.315378   0.000000
    128         21.674833   0.000000
 
  0.5000000E+00  0.1666667E+00  0.1276756E-14  0.2777778E-01
      1        -48.459472   1.000000
      2        -48.448933   1.000000
      3        -48.382687   1.000000
      4        -48.368256   1.000000
      5        -48.366658   1.000000
      6        -48.231600   1.000000
      7        -48.176916   1.000000
      8        -24.835338   1.000000
      9        -24.809309   1.000000
     10        -24.799435   1.000000
     11        -24.795039   1.000000
     12        -24.784515   1.000000
     13        -24.771064   1.000000
     14        -24.770948   1.000000
     15        -24.752920   1.000000
     16        -24.731064   1.000000
     17        -24.726722   1.000000
     18        -24.629813   1.000000
     19        -24.619506   1.000000
     20        -24.591999   1.000000
     21        -24.591079   1.000000
     22        -24.589116   1.000000
     23        -24.569365   1.000000
     24        -24.480521   1.000000
     25        -24.416071   1.000000