       N       E                     dE             d eps       ncg     rms          rms(c)
DAV:   1     0.847499354812E+03    0.84750E+03   -0.58042E+04  7680   0.110E+03
DAV:   2    -0.343115145466E+02   -0.88181E+03   -0.84393E+03  7808   0.291E+02
DAV:   3    -0.103144442970E+03   -0.68833E+02   -0.67478E+02 14912   0.664E+01
DAV:   4    -0.105254712035E+03   -0.21103E+01   -0.21097E+01  7936   0.105E+01
DAV:   5    -0.105308808143E+03   -0.54096E-01   -0.54093E-01 11776   0.161E+00    0.258E+01
DAV:   6    -0.965137550122E+02    0.87951E+01   -0.32378E+01 10240   0.254E+01    0.133E+01
DAV:   7    -0.975077962881E+02   -0.99404E+00   -0.31945E+01 10112   0.153E+01    0.154E+01
DAV:   8    -0.942631421620E+02    0.32447E+01   -0.16323E+01  9728   0.731E+00    0.677E+00
DAV:   9    -0.941588682103E+02    0.10427E+00   -0.31515E+00  9792   0.450E+00    0.534E+00
DAV:  10    -0.938844062326E+02    0.27446E+00   -0.71461E-01  9024   0.408E+00    0.256E+00
DAV:  11    -0.938660590377E+02    0.18347E-01   -0.31544E-01 10688   0.258E+00    0.206E+00
DAV:  12    -0.938244078005E+02    0.41651E-01   -0.11887E-01 10304   0.170E+00    0.641E-01
DAV:  13    -0.938268166019E+02   -0.24088E-02   -0.39935E-02 10944   0.662E-01    0.651E-01
DAV:  14    -0.938238767353E+02    0.29399E-02   -0.20990E-02 10944   0.607E-01    0.245E-01
DAV:  15    -0.938232581772E+02    0.61856E-03   -0.24502E-03 10496   0.233E-01    0.721E-02
DAV:  16    -0.938232485145E+02    0.96627E-05   -0.29490E-04  9728   0.770E-02    0.279E-02
DAV:  17    -0.938232391333E+02    0.93812E-05   -0.47966E-05 12480   0.298E-02
   1 F= -.93823239E+02 E0= -.93822323E+02  d E =-.274704E-02
