 vasp.6.5.0 16Dec24 (build Apr 17 2025 17:55:45) complex                        
  
 executed on             LinuxIFC date 2025.06.04  10:18:39
 running   64 mpi-ranks, on    1 nodes
 distrk:  each k-point on   64 cores,    1 groups
 distr:  one band on NCORE=   1 cores,   64 groups


--------------------------------------------------------------------------------------------------------


 INCAR:
   ISTART = 0
   ICHARG = 2
   PREC = N
   LREAL = .FALSE.
   ENCUT = 520
   ALGO = N
   NELM = 500
   EDIFF = 1E-05
   IBRION = -1
   ISIF = 3
   NSW = 0
   EDIFFG = -0.01
   ISMEAR = 1
   SIGMA = 0.1

 POTCAR:    PAW_PBE Ga_d 06Jul2010                
 POTCAR:    PAW_PBE Ti_sv 26Sep2005               
 POTCAR:    PAW_PBE Al 04Jan2001                  
 -----------------------------------------------------------------------------
|                                                                             |
|           W    W    AA    RRRRR   N    N  II  N    N   GGGG   !!!           |
|           W    W   A  A   R    R  NN   N  II  NN   N  G    G  !!!           |
|           W    W  A    A  R    R  N N  N  II  N N  N  G       !!!           |
|           W WW W  AAAAAA  RRRRR   N  N N  II  N  N N  G  GGG   !            |
|           WW  WW  A    A  R   R   N   NN  II  N   NN  G    G                |
|           W    W  A    A  R    R  N    N  II  N    N   GGGG   !!!           |
|                                                                             |
|     For optimal performance we recommend to set                             |
|       NCORE = 2 up to number-of-cores-per-socket                            |
|     NCORE specifies how many cores store one orbital (NPAR=cpu/NCORE).      |
|     This setting can greatly improve the performance of VASP for DFT.       |
|     The default, NCORE=1 might be grossly inefficient on modern             |
|     multi-core architectures or massively parallel machines. Do your        |
|     own testing! More info at https://www.vasp.at/wiki/index.php/NCORE      |
|     Unfortunately you need to use the default for GW and RPA                |
|     calculations (for HF NCORE is supported but not extensively tested      |
|     yet).                                                                   |
|                                                                             |
 -----------------------------------------------------------------------------

 POTCAR:    PAW_PBE Ga_d 06Jul2010                
   SHA256 =  a60ddf36e14f00ea098d9e3914b3745f1b7105e68786148f49ae384e44b4226c Ga_d/POTCAR           
   COPYR  = (c) Copyright 06Jul2010 Georg Kresse                                                    
   COPYR  = This file is part of the software VASP. Any use, copying, and all other rights are regul
   COPYR  = If you do not have a valid VASP license, you may not use, copy or distribute this file. 
   VRHFIN =Ga: s2p1                                                                                 
   LEXCH  = PE                                                                                      
   EATOM  =  2148.8298 eV,  157.9345 Ry                                                             
                                                                                                    
   TITEL  = PAW_PBE Ga_d 06Jul2010                                                                  
   LULTRA =        F    use ultrasoft PP ?                                                          
   IUNSCR =        1    unscreen: 0-lin 1-nonlin 2-no                                               
   RPACOR =    1.700    partial core radius                                                         
   POMASS =   69.723; ZVAL   =   13.000    mass and valenz                                          
   RCORE  =    2.300    outmost cutoff radius                                                       
   RWIGS  =    2.300; RWIGS  =    1.217    wigner-seitz radius (au A)                               
   ENMAX  =  282.691; ENMIN  =  212.018 eV                                                          
   ICORE  =        3    local potential                                                             
   LCOR   =        T    correct aug charges                                                         
   LPAW   =        T    paw PP                                                                      
   EAUG   =  490.690                                                                                
   DEXC   =    0.000                                                                                
   RMAX   =    2.341    core radius for proj-oper                                                   
   RAUG   =    1.300    factor for augmentation sphere                                              
   RDEP   =    2.413    radius for radial grids                                                     
   RDEPT  =    1.856    core radius for aug-charge                                                  
                                                                                                    
   Atomic configuration                                                                             
    9 entries                                                                                       
     n  l   j            E        occ.                                                              
     1  0  0.50    -10228.7831   2.0000                                                             
     2  0  0.50     -1262.1604   2.0000                                                             
     2  1  1.50     -1098.6333   6.0000                                                             
     3  0  0.50      -148.1110   2.0000                                                             
     3  1  1.50       -98.8436   6.0000                                                             
     3  2  2.50       -19.1549  10.0000                                                             
     4  0  0.50        -8.9483   2.0000                                                             
     4  1  0.50        -2.5791   1.0000                                                             
     4  3  2.50        -2.7416   0.0000                                                             
   Description                                                                                      
     l       E           TYP  RCUT    TYP  RCUT                                                     
     2    -19.1549037     23  2.300                                                                 
     2     -5.4423304     23  2.300                                                                 
     0     -8.9483111     23  2.300                                                                 
     0     68.0291300     23  2.300                                                                 
     1     -2.5790802     23  2.100                                                                 
     1     81.6349560     23  2.300                                                                 
     3      6.8029130     23  2.300                                                                 
  local pseudopotential read in
  partial core-charges read in
  partial kinetic energy density read in
  atomic valenz-charges read in
  non local Contribution for L=           2  read in
    real space projection operators read in
  non local Contribution for L=           2  read in
    real space projection operators read in
  non local Contribution for L=           0  read in
    real space projection operators read in
  non local Contribution for L=           0  read in
    real space projection operators read in
  non local Contribution for L=           1  read in
    real space projection operators read in
  non local Contribution for L=           1  read in
    real space projection operators read in
    PAW grid and wavefunctions read in
 
   number of l-projection  operators is LMAX  =           6
   number of lm-projection operators is LMMAX =          18
 
 POTCAR:    PAW_PBE Ti_sv 26Sep2005               
   SHA256 =  4d747badb5a5ea28d858fbac70885b3f8929d6fd9e5b0dbe1ecb9878dc164da1 Ti_sv/POTCAR          
   COPYR  = (c) Copyright 26Sep2005 Georg Kresse                                                    
   COPYR  = This file is part of the software VASP. Any use, copying, and all other rights are regul
   COPYR  = If you do not have a valid VASP license, you may not use, copy or distribute this file. 
   VRHFIN =Ti: 3p4s3d                                                                               
   LEXCH  = PE                                                                                      
   EATOM  =  1588.0892 eV,  116.7213 Ry                                                             
                                                                                                    
   TITEL  = PAW_PBE Ti_sv 26Sep2005                                                                 
   LULTRA =        F    use ultrasoft PP ?                                                          
   IUNSCR =        1    unscreen: 0-lin 1-nonlin 2-no                                               
   RPACOR =    2.000    partial core radius                                                         
   POMASS =   47.880; ZVAL   =   12.000    mass and valenz                                          
   RCORE  =    2.300    outmost cutoff radius                                                       
   RWIGS  =    2.300; RWIGS  =    1.217    wigner-seitz radius (au A)                               
   ENMAX  =  274.610; ENMIN  =  205.957 eV                                                          
   ICORE  =        3    local potential                                                             
   LCOR   =        T    correct aug charges                                                         
   LPAW   =        T    paw PP                                                                      
   EAUG   =  482.848                                                                                
   RMAX   =    2.348    core radius for proj-oper                                                   
   RAUG   =    1.300    factor for augmentation sphere                                              
   RDEP   =    2.381    radius for radial grids                                                     
   RDEPT  =    1.930    core radius for aug-charge                                                  
                                                                                                    
   Atomic configuration                                                                             
    8 entries                                                                                       
     n  l   j            E        occ.                                                              
     1  0  0.50     -4865.3608   2.0000                                                             
     2  0  0.50      -533.1368   2.0000                                                             
     2  1  1.50      -440.5031   6.0000                                                             
     3  0  0.50       -59.3186   2.0000                                                             
     4  0  0.50        -3.7291   1.0000                                                             
     3  1  1.50       -35.7012   6.0000                                                             
     3  2  2.50        -1.9157   3.0000                                                             
     4  3  2.50        -1.3606   0.0000                                                             
   Description                                                                                      
     l       E           TYP  RCUT    TYP  RCUT                                                     
     0    -59.3185931     23  1.800                                                                 
     0     -3.7290822     23  2.300                                                                 
     1    -35.7012045     23  2.300                                                                 
     1     -1.3605826     23  2.300                                                                 
     2     -1.9156920     23  2.300                                                                 
     2     -0.0236318     23  2.300                                                                 
     3     -1.3605826     23  2.300                                                                 
  local pseudopotential read in
  partial core-charges read in
  partial kinetic energy density read in
  atomic valenz-charges read in
  non local Contribution for L=           0  read in
    real space projection operators read in
  non local Contribution for L=           0  read in
    real space projection operators read in
  non local Contribution for L=           1  read in
    real space projection operators read in
  non local Contribution for L=           1  read in
    real space projection operators read in
  non local Contribution for L=           2  read in
    real space projection operators read in
  non local Contribution for L=           2  read in
    real space projection operators read in
    PAW grid and wavefunctions read in
 
   number of l-projection  operators is LMAX  =           6
   number of lm-projection operators is LMMAX =          18
 
 POTCAR:    PAW_PBE Al 04Jan2001                  
   SHA256 =  17880443556af62b473fe41b62a467bd001ad55d2cabe504a3f22e34d4e9db96 Al/POTCAR             
   COPYR  = (c) Copyright 04Jan2001 Georg Kresse                                                    
   COPYR  = This file is part of the software VASP. Any use, copying, and all other rights are regul
   COPYR  = If you do not have a valid VASP license, you may not use, copy or distribute this file. 
   VRHFIN =Al: s2p1                                                                                 
   LEXCH  = PE                                                                                      
   EATOM  =    53.5387 eV,    3.9350 Ry                                                             
                                                                                                    
   TITEL  = PAW_PBE Al 04Jan2001                                                                    
   LULTRA =        F    use ultrasoft PP ?                                                          
   IUNSCR =        1    unscreen: 0-lin 1-nonlin 2-no                                               
   RPACOR =    1.500    partial core radius                                                         
   POMASS =   26.981; ZVAL   =    3.000    mass and valenz                                          
   RCORE  =    1.900    outmost cutoff radius                                                       
   RWIGS  =    2.650; RWIGS  =    1.402    wigner-seitz radius (au A)                               
   ENMAX  =  240.300; ENMIN  =  180.225 eV                                                          
   ICORE  =        2    local potential                                                             
   LCOR   =        T    correct aug charges                                                         
   LPAW   =        T    paw PP                                                                      
   EAUG   =  291.052                                                                                
   DEXC   =    0.000                                                                                
   RMAX   =    1.939    core radius for proj-oper                                                   
   RAUG   =    1.300    factor for augmentation sphere                                              
   RDEP   =    1.966    radius for radial grids                                                     
   RDEPT  =    1.856    core radius for aug-charge                                                  
                                                                                                    
   Atomic configuration                                                                             
    6 entries                                                                                       
     n  l   j            E        occ.                                                              
     1  0  0.50     -1511.1048   2.0000                                                             
     2  0  0.50      -108.1629   2.0000                                                             
     2  1  1.50       -69.6402   6.0000                                                             
     3  0  0.50        -7.7528   2.0000                                                             
     3  1  1.50        -2.7121   1.0000                                                             
     3  2  2.50        -2.7212   0.0000                                                             
   Description                                                                                      
     l       E           TYP  RCUT    TYP  RCUT                                                     
     0     -7.7528455     23  1.900                                                                 
     0     -3.3096929     23  1.900                                                                 
     1     -2.7120682     23  1.900                                                                 
     1     13.6058260     23  1.900                                                                 
     2     -2.7211652      7  1.900                                                                 
  local pseudopotential read in
  partial core-charges read in
  partial kinetic energy density read in
  atomic valenz-charges read in
  non local Contribution for L=           0  read in
    real space projection operators read in
  non local Contribution for L=           0  read in
    real space projection operators read in
  non local Contribution for L=           1  read in
    real space projection operators read in
  non local Contribution for L=           1  read in
    real space projection operators read in
    PAW grid and wavefunctions read in
 
   number of l-projection  operators is LMAX  =           4
   number of lm-projection operators is LMMAX =           8
 
  PAW_PBE Ga_d 06Jul2010                :
 energy of atom  1       EATOM=-2148.8298
 kinetic energy error for atom=    0.0026 (will be added to EATOM!!)
  PAW_PBE Ti_sv 26Sep2005               :
 energy of atom  2       EATOM=-1588.0892
 kinetic energy error for atom=    0.0042 (will be added to EATOM!!)
  PAW_PBE Al 04Jan2001                  :
 energy of atom  3       EATOM=  -53.5387
 kinetic energy error for atom=    0.0002 (will be added to EATOM!!)
 
 
 POSCAR: Ti1 Al1
  positions in direct lattice
  velocities in cartesian coordinates


 exchange-correlation table for PE
   RHO(1)=    0.500       N(1)  =     2000
   RHO(2)=  100.500       N(2)  =     4000
 


--------------------------------------------------------------------------------------------------------


 ion  position               nearest neighbor table
   1  0.000  0.000  0.000-   3 2.80   5 2.80   3 2.80   5 2.80  11 2.88  12 2.88  13 2.88  14 2.88
                            15 2.88  16 2.88   9 2.88  10 2.88
   2  0.000  0.000  0.500-   4 2.80   6 2.80   4 2.80   6 2.80  11 2.85  12 2.85  13 2.85  14 2.85
                            15 2.85  16 2.85   9 2.85  10 2.85
   3  0.000  0.500  0.000-   1 2.80   7 2.80   1 2.80   7 2.80  11 2.87  12 2.87  13 2.87  14 2.87
                            15 2.87  16 2.87   9 2.87  10 2.87
   4  0.000  0.500  0.500-   2 2.80   8 2.80   2 2.80   8 2.80  11 2.85  12 2.85  13 2.85  14 2.85
                            15 2.85  16 2.85   9 2.85  10 2.85
   5  0.500  0.000  0.000-   1 2.80   7 2.80   7 2.80   1 2.80  11 2.87  12 2.87  13 2.87  14 2.87
                            15 2.87  16 2.87   9 2.87  10 2.87
   6  0.500  0.000  0.500-   2 2.80   8 2.80   8 2.80   2 2.80  11 2.85  12 2.85  13 2.85  14 2.85
                            15 2.85  16 2.85   9 2.85  10 2.85
   7  0.500  0.500  0.000-   3 2.80   5 2.80   5 2.80   3 2.80  11 2.87  12 2.87  13 2.87  14 2.87
                            15 2.87  16 2.87   9 2.87  10 2.87
   8  0.500  0.500  0.500-   4 2.80   6 2.80   6 2.80   4 2.80  11 2.84  12 2.84  13 2.84  14 2.84
                            15 2.84  16 2.84   9 2.84  10 2.84
   9  0.251  0.251  0.252-  11 2.79  13 2.79  11 2.81  13 2.81   8 2.84   6 2.85   4 2.85   2 2.85
                             7 2.87   5 2.87   3 2.87   1 2.88
  10  0.251  0.251  0.748-  12 2.79  14 2.79  12 2.81  14 2.81   8 2.84   6 2.85   4 2.85   2 2.85
                             7 2.87   5 2.87   3 2.87   1 2.88
  11  0.251  0.749  0.252-   9 2.79  15 2.79   9 2.81  15 2.81   8 2.84   4 2.85   6 2.85   2 2.85
                             7 2.87   3 2.87   5 2.87   1 2.88
  12  0.251  0.749  0.748-  10 2.79  16 2.79  10 2.81  16 2.81   8 2.84   4 2.85   6 2.85   2 2.85
                             7 2.87   3 2.87   5 2.87   1 2.88
  13  0.749  0.251  0.252-   9 2.79  15 2.79   9 2.81  15 2.81   8 2.84   4 2.85   6 2.85   2 2.85
                             7 2.87   3 2.87   5 2.87   1 2.88
  14  0.749  0.251  0.748-  10 2.79  16 2.79  10 2.81  16 2.81   8 2.84   4 2.85   6 2.85   2 2.85
                             7 2.87   3 2.87   5 2.87   1 2.88
  15  0.749  0.749  0.252-  11 2.79  13 2.79  11 2.81  13 2.81   8 2.84   6 2.85   4 2.85   2 2.85
                             7 2.87   5 2.87   3 2.87   1 2.88
  16  0.749  0.749  0.748-  12 2.79  14 2.79  12 2.81  14 2.81   8 2.84   6 2.85   4 2.85   2 2.85
                             7 2.87   5 2.87   3 2.87   1 2.88
 
  LATTYP: Found a simple tetragonal cell.
 ALAT       =     5.6069519684
 C/A-ratio  =     1.4699085315
  
  Lattice vectors:
  
 A1 = (   5.6069519684,   0.0000000000,   0.0000000000)
 A2 = (   0.0000000000,   5.6069519684,   0.0000000000)
 A3 = (   0.0000000000,   0.0000000000,   8.2417065342)


Analysis of symmetry for initial positions (statically):
=====================================================================
 Subroutine PRICEL returns:
 Original cell was already a primitive cell.
 

 Routine SETGRP: Setting up the symmetry group for a 
 simple tetragonal supercell.


 Subroutine GETGRP returns: Found 16 space group operations
 (whereof 16 operations were pure point group operations)
 out of a pool of 16 trial point group operations.


The static configuration has the point symmetry D_4h.


Analysis of symmetry for dynamics (positions and initial velocities):
=====================================================================
 Subroutine PRICEL returns:
 Original cell was already a primitive cell.
 

 Routine SETGRP: Setting up the symmetry group for a 
 simple tetragonal supercell.


 Subroutine GETGRP returns: Found 16 space group operations
 (whereof 16 operations were pure point group operations)
 out of a pool of 16 trial point group operations.


The dynamic configuration has the point symmetry D_4h.


 Subroutine INISYM returns: Found 16 space group operations
 (whereof 16 operations are pure point group operations),
 and found     1 'primitive' translations


----------------------------------------------------------------------------------------

                                     Primitive cell                                     

  volume of cell :     259.1020

  direct lattice vectors                    reciprocal lattice vectors
     5.606951968  0.000000000  0.000000000     0.178350021  0.000000000  0.000000000
     0.000000000  5.606951968  0.000000000     0.000000000  0.178350021  0.000000000
     0.000000000  0.000000000  8.241706534     0.000000000  0.000000000  0.121334095

  length of vectors
     5.606951968  5.606951968  8.241706534     0.178350021  0.178350021  0.121334095

  position of ions in fractional coordinates (direct lattice)
     0.000000000  0.000000000  0.000000000
     0.000000000  0.000000000  0.500000000
     0.000000000  0.500000000  0.000000000
     0.000000000  0.500000000  0.500000000
     0.500000000  0.000000000  0.000000000
     0.500000000  0.000000000  0.500000000
     0.500000000  0.500000000  0.000000000
     0.500000000  0.500000000  0.500000000
     0.250946882  0.250946882  0.252071225
     0.250946882  0.250946882  0.747928775
     0.250946882  0.749053118  0.252071225
     0.250946882  0.749053118  0.747928775
     0.749053118  0.250946882  0.252071225
     0.749053118  0.250946882  0.747928775
     0.749053118  0.749053118  0.252071225
     0.749053118  0.749053118  0.747928775

  ion indices of the primitive-cell ions
   primitive index   ion index
                 1           1
                 2           2
                 3           3
                 4           4
                 5           5
                 6           6
                 7           7
                 8           8
                 9           9
                10          10
                11          11
                12          12
                13          13
                14          14
                15          15
                16          16

----------------------------------------------------------------------------------------

 
 
 KPOINTS: K-Spacing Value to Generate K-Mesh: 0.03

Automatic generation of k-mesh.
 Grid dimensions read from file:
 generate k-points for:    6    6    4

 Generating k-lattice:

  Cartesian coordinates                     Fractional coordinates (reciprocal lattice)
     0.029725003  0.000000000  0.000000000     0.166666667  0.000000000  0.000000000
     0.000000000  0.029725003  0.000000000     0.000000000  0.166666667  0.000000000
     0.000000000  0.000000000  0.030333524     0.000000000  0.000000000  0.250000000

  Length of vectors
     0.029725003  0.029725003  0.030333524

  Shift w.r.t. Gamma in fractional coordinates (k-lattice)
     0.000000000  0.000000000  0.000000000

 
 Subroutine IBZKPT returns following result:
 ===========================================
 
 Found     30 irreducible k-points:
 
 Following reciprocal coordinates:
            Coordinates               Weight
  0.000000  0.000000  0.000000      1.000000
  0.166667  0.000000  0.000000      4.000000
  0.333333  0.000000  0.000000      4.000000
  0.500000  0.000000  0.000000      2.000000
  0.166667  0.166667  0.000000      4.000000
  0.333333  0.166667  0.000000      8.000000
  0.500000  0.166667  0.000000      4.000000
  0.333333  0.333333  0.000000      4.000000
  0.500000  0.333333  0.000000      4.000000
  0.500000  0.500000  0.000000      1.000000
  0.000000  0.000000  0.250000      2.000000
  0.166667  0.000000  0.250000      8.000000
  0.333333  0.000000  0.250000      8.000000
  0.500000  0.000000  0.250000      4.000000
  0.166667  0.166667  0.250000      8.000000
  0.333333  0.166667  0.250000     16.000000
  0.500000  0.166667  0.250000      8.000000
  0.333333  0.333333  0.250000      8.000000
  0.500000  0.333333  0.250000      8.000000
  0.500000  0.500000  0.250000      2.000000
  0.000000  0.000000  0.500000      1.000000
  0.166667  0.000000  0.500000      4.000000
  0.333333  0.000000  0.500000      4.000000
  0.500000  0.000000  0.500000      2.000000
  0.166667  0.166667  0.500000      4.000000
  0.333333  0.166667  0.500000      8.000000
  0.500000  0.166667  0.500000      4.000000
  0.333333  0.333333  0.500000      4.000000
  0.500000  0.333333  0.500000      4.000000
  0.500000  0.500000  0.500000      1.000000
 
 Following cartesian coordinates:
            Coordinates               Weight
  0.000000  0.000000  0.000000      1.000000
  0.029725  0.000000  0.000000      4.000000
  0.059450  0.000000  0.000000      4.000000
  0.089175  0.000000  0.000000      2.000000
  0.029725  0.029725  0.000000      4.000000
  0.059450  0.029725  0.000000      8.000000
  0.089175  0.029725  0.000000      4.000000
  0.059450  0.059450  0.000000      4.000000
  0.089175  0.059450  0.000000      4.000000
  0.089175  0.089175  0.000000      1.000000
  0.000000  0.000000  0.030334      2.000000
  0.029725  0.000000  0.030334      8.000000
  0.059450  0.000000  0.030334      8.000000
  0.089175  0.000000  0.030334      4.000000
  0.029725  0.029725  0.030334      8.000000
  0.059450  0.029725  0.030334     16.000000
  0.089175  0.029725  0.030334      8.000000
  0.059450  0.059450  0.030334      8.000000
  0.089175  0.059450  0.030334      8.000000
  0.089175  0.089175  0.030334      2.000000
  0.000000  0.000000  0.060667      1.000000
  0.029725  0.000000  0.060667      4.000000
  0.059450  0.000000  0.060667      4.000000
  0.089175  0.000000  0.060667      2.000000
  0.029725  0.029725  0.060667      4.000000
  0.059450  0.029725  0.060667      8.000000
  0.089175  0.029725  0.060667      4.000000
  0.059450  0.059450  0.060667      4.000000
  0.089175  0.059450  0.060667      4.000000
  0.089175  0.089175  0.060667      1.000000
 


--------------------------------------------------------------------------------------------------------




 Dimension of arrays:
   k-points           NKPTS =     30   k-points in BZ     NKDIM =     30   number of bands    NBANDS=    128
   number of dos      NEDOS =    301   number of ions     NIONS =     16
   non local maximal  LDIM  =      6   non local SUM 2l+1 LMDIM =     18
   total plane-waves  NPLWV =  49152
   max r-space proj   IRMAX =      1   max aug-charges    IRDMAX=   7582
   dimension x,y,z NGX =    32 NGY =   32 NGZ =   48
   dimension x,y,z NGXF=    64 NGYF=   64 NGZF=   96
   support grid    NGXF=    64 NGYF=   64 NGZF=   96
   ions per type =               1   7   8
   NGX,Y,Z   is equivalent  to a cutoff of   9.49,  9.49,  9.68 a.u.
   NGXF,Y,Z  is equivalent  to a cutoff of  18.98, 18.98, 19.36 a.u.

 SYSTEM =  unknown system                          
 POSCAR =  Ti1 Al1                                 

 Startparameter for this run:
   NWRITE =      2    write-flag & timer
   PREC   = n         normal or accurate (medium, high low for compatibility)
   ISTART =      0    job   : 0-new  1-cont  2-samecut
   ICHARG =      2    charge: 1-file 2-atom 10-const
   ISPIN  =      1    spin polarized calculation?
   LNONCOLLINEAR =      F non collinear calculations
   LSORBIT =      F    spin-orbit coupling
   INIWAV =      1    electr: 0-lowe 1-rand  2-diag
   LASPH  =      F    aspherical Exc in radial PAW
 Electronic Relaxation 1
   ENCUT  =  520.0 eV  38.22 Ry    6.18 a.u.  10.43 10.43 15.32*2*pi/ulx,y,z
   ENINI  =  520.0     initial cutoff
   ENAUG  =  490.7 eV  augmentation charge cutoff
   NELM   =    500;   NELMIN=  2; NELMDL= -5     # of ELM steps 
   EDIFF  = 0.1E-04   stopping-criterion for ELM
   LREAL  =      F    real-space projection
   NLSPLINE    = F    spline interpolate recip. space projectors
   LCOMPAT=      F    compatible to vasp.4.4
   GGA_COMPAT  = T    GGA compatible to vasp.4.4-vasp.4.6
   LMAXPAW     = -100 max onsite density
   LMAXMIX     =    2 max onsite mixed and CHGCAR
   VOSKOWN=      0    Vosko Wilk Nusair interpolation
   ROPT   =    0.00000   0.00000   0.00000
 Ionic relaxation
   EDIFFG = -.1E-01   stopping-criterion for IOM
   NSW    =      0    number of steps for IOM
   NBLOCK =      1;   KBLOCK =      1    inner block; outer block 
   IBRION =     -1    ionic relax: 0-MD 1-quasi-New 2-CG
   NFREE  =      0    steps in history (QN), initial steepest desc. (CG)
   ISIF   =      3    stress and relaxation
   IWAVPR =     10    prediction:  0-non 1-charg 2-wave 3-comb
   ISYM   =      2    0-nonsym 1-usesym 2-fastsym
   LCORR  =      T    Harris-Foulkes like correction to forces

   POTIM  = 0.5000    time-step for ionic-motion
   TEIN   =    0.0    initial temperature
   TEBEG  =    0.0;   TEEND  =   0.0 temperature during run
   SMASS  =  -3.00    Nose mass-parameter (am)
   estimated Nose-frequenzy (Omega)   =  0.10E-29 period in steps = 0.13E+47 mass=  -0.718E-27a.u.
   SCALEE = 1.0000    scale energy and forces
   NPACO  =    256;   APACO  = 10.0  distance and # of slots for P.C.
   PSTRESS=    0.0 pullay stress

  Mass of Ions in am
   POMASS =  69.72 47.88 26.98
  Ionic Valenz
   ZVAL   =  13.00 12.00  3.00
  Atomic Wigner-Seitz radii
   RWIGS  =  -1.00 -1.00 -1.00
  virtual crystal weights 
   VCA    =   1.00  1.00  1.00
   NELECT =     121.0000    total number of electrons
   NUPDOWN=      -1.0000    fix difference up-down

 DOS related values:
   EMIN   =  10.00;   EMAX   =-10.00  energy-range for DOS
   EFERMI =   0.00;   METHOD = LEGACY      
   ISMEAR =     1;   SIGMA  =   0.10  broadening in eV -4-tet -1-fermi 0-gaus
   EFERMI_NEDOS =   21; number of points for ismear=-14 and -15

 Electronic relaxation 2 (details)
   IALGO  =     38    algorithm
   LDIAG  =      T    sub-space diagonalisation (order eigenvalues)
   LSUBROT=      F    optimize rotation matrix (better conditioning)
   TURBO    =      0    0=normal 1=particle mesh
   IRESTART =      0    0=no restart 2=restart with 2 vectors
   NREBOOT  =      0    no. of reboots
   NMIN     =      0    reboot dimension
   EREF     =   0.00    reference energy to select bands
   IMIX   =      4    mixing-type and parameters
     AMIX     =   0.40;   BMIX     =  1.00
     AMIX_MAG =   1.60;   BMIX_MAG =  1.00
     AMIN     =   0.10
     WC   =   100.;   INIMIX=   1;  MIXPRE=   1;  MAXMIX= -45

 Intra band minimization:
   WEIMIN = 0.0000     energy-eigenvalue tresh-hold
   EBREAK =  0.20E-07  absolut break condition
   DEPER  =   0.30     relativ break condition  

   TIME   =   0.40     timestep for ELM

  volume/ion in A,a.u.               =      16.19       109.28
  Fermi-wavevector in a.u.,A,eV,Ry     =   1.270125  2.400188 21.949145  1.613217
  Thomas-Fermi vector in A             =   2.403129
 
 Write flags
   LWAVE        =      T    write WAVECAR
   LDOWNSAMPLE  =      F    k-point downsampling of WAVECAR
   LCHARG       =      T    write CHGCAR
   LVTOT        =      F    write LOCPOT, total local potential
   LVHAR        =      F    write LOCPOT, Hartree potential only
   WRT_POTENTIAL= false  ! write potential to hdf5 file
   LELF         =      F    write electronic localiz. function (ELF)
   LORBIT       =      0    0 simple, 1 ext, 2 COOP (PROOUT), +10 PAW based schemes


 Python interface
   PLUGINS active      =      F    recompile with -DPLUGINS to activate
 
 Dipole corrections
   LMONO      =      F    monopole corrections only (constant potential shift)
   LDIPOL     =      F    correct potential (dipole corrections)
   IDIPOL     =      0    1-x, 2-y, 3-z, 4-all directions 
   EPSILON    =  1.0000000 bulk dielectric constant
   LVACPOTAV  =      F  vacuum potentials using an averaging scheme for the charge density
   VACPOTFLAT =  0.1000000 required flatness to determine vacuum potential
 
Coulomb truncation method
  LTRUNCATE          =      F  Coulomb kernel truncation to be used
  IDIMENSIONALITY    =      3  Dimensionality of cutoff (0 molecules / 2 surfaces)
  ISURFACE           =     -1  Direction of surface normal
  LCOARSEN           =      F  Coarsen the charge grid before padding, preferred

 
 Exchange correlation treatment:
   GGA     = PE    functional components
   XC_C    = 1    coefficients multiplying the functional components
   LIBXC   =     F    Libxc                    
   VOSKOWN =     0    Vosko Wilk Nusair interpolation
   LHFCALC =     F    Hartree Fock is set to
   LHFONE  =     F    Hartree Fock one center treatment
   AEXX    =    0.0000 exact exchange contribution

 Parameters of functionals:
   PE:
     No parameter
 
 Van der Waals corrections
   IVDW    =     0    specifies the selected vdW correction

 Linear response parameters
   LEPSILON=     F    determine dielectric tensor
   LRPA    =     F    only Hartree local field effects (RPA)
   LNABLA  =     F    use nabla operator in PAW spheres
   LVEL    =     F    velocity operator in full k-point grid
   CSHIFT  =0.1000    complex shift for real part using Kramers Kronig
   OMEGAMAX=  -1.0    maximum frequency
   DEG_THRESHOLD= 0.2000000E-02 threshold for treating states as degnerate
   RTIME   =   -0.100 relaxation time in fs
  (WPLASMAI=    0.000 imaginary part of plasma frequency in eV, 0.658/RTIME)
   DFIELD  = 0.0000000 0.0000000 0.0000000 field for delta impulse in time
 
  Optional k-point grid parameters
   LKPOINTS_OPT  =     F    use optional k-point grid
   KPOINTS_OPT_MODE=     1    mode for optional k-point grid
 
 Orbital magnetization related:
   ORBITALMAG=     F  switch on orbital magnetization
   LCHIMAG   =     F  perturbation theory with respect to B field
   DQ        =  0.001000  dq finite difference perturbation B field
   LLRAUG    =     F  two centre corrections for induced B field
   LBONE     =     F  B-component reconstruction in AE one-centre
   LVGVCALC  =     T  calculate vGv susceptibility
   LVGVAPPL  =     F  apply vGv susceptibility instead of pGv for G=0

 Random number generation:
   RANDOM_GENERATOR = DEFAULT
   PCG_SEED         = not used


--------------------------------------------------------------------------------------------------------


 Static calculation
 charge density and potential will be updated during run
 non-spin polarized calculation
 Variant of blocked Davidson
 Davidson routine will perform the subspace rotation
 perform sub-space diagonalisation
    after iterative eigenvector-optimisation
 modified Broyden-mixing scheme, WC =      100.0
 initial mixing is a Kerker type mixing with AMIX =  0.4000 and BMIX =      1.0000
 Hartree-type preconditioning will be used
 using additional bands           67
 reciprocal scheme for non local part
 use partial core corrections
 calculate Harris-corrections to forces 
   (improved forces if not selfconsistent)
 use gradient corrections 
 use of overlap-Matrix (Vanderbilt PP)
 Methfessel and Paxton  Order N= 1 SIGMA  =   0.10


--------------------------------------------------------------------------------------------------------


  energy-cutoff  :      520.00
  volume of cell :      259.10
      direct lattice vectors                 reciprocal lattice vectors
     5.606951968  0.000000000  0.000000000     0.178350021  0.000000000  0.000000000
     0.000000000  5.606951968  0.000000000     0.000000000  0.178350021  0.000000000
     0.000000000  0.000000000  8.241706534     0.000000000  0.000000000  0.121334095

  length of vectors
     5.606951968  5.606951968  8.241706534     0.178350021  0.178350021  0.121334095


 
 k-points in units of 2pi/SCALE and weight: K-Spacing Value to Generate K-Mesh: 0.03
   0.00000000  0.00000000  0.00000000       0.007
   0.02972500  0.00000000  0.00000000       0.028
   0.05945001  0.00000000  0.00000000       0.028
   0.08917501  0.00000000  0.00000000       0.014
   0.02972500  0.02972500  0.00000000       0.028
   0.05945001  0.02972500  0.00000000       0.056
   0.08917501  0.02972500  0.00000000       0.028
   0.05945001  0.05945001  0.00000000       0.028
   0.08917501  0.05945001  0.00000000       0.028
   0.08917501  0.08917501  0.00000000       0.007
   0.00000000  0.00000000  0.03033352       0.014
   0.02972500  0.00000000  0.03033352       0.056
   0.05945001  0.00000000  0.03033352       0.056
   0.08917501  0.00000000  0.03033352       0.028
   0.02972500  0.02972500  0.03033352       0.056
   0.05945001  0.02972500  0.03033352       0.111
   0.08917501  0.02972500  0.03033352       0.056
   0.05945001  0.05945001  0.03033352       0.056
   0.08917501  0.05945001  0.03033352       0.056
   0.08917501  0.08917501  0.03033352       0.014
   0.00000000  0.00000000  0.06066705       0.007
   0.02972500  0.00000000  0.06066705       0.028
   0.05945001  0.00000000  0.06066705       0.028
   0.08917501  0.00000000  0.06066705       0.014
   0.02972500  0.02972500  0.06066705       0.028
   0.05945001  0.02972500  0.06066705       0.056
   0.08917501  0.02972500  0.06066705       0.028
   0.05945001  0.05945001  0.06066705       0.028
   0.08917501  0.05945001  0.06066705       0.028
   0.08917501  0.08917501  0.06066705       0.007
 
 k-points in reciprocal lattice and weights: K-Spacing Value to Generate K-Mesh: 0.03
   0.00000000  0.00000000  0.00000000       0.007
   0.16666667  0.00000000  0.00000000       0.028
   0.33333333  0.00000000  0.00000000       0.028
   0.50000000  0.00000000  0.00000000       0.014
   0.16666667  0.16666667  0.00000000       0.028
   0.33333333  0.16666667  0.00000000       0.056
   0.50000000  0.16666667  0.00000000       0.028
   0.33333333  0.33333333  0.00000000       0.028
   0.50000000  0.33333333  0.00000000       0.028
   0.50000000  0.50000000  0.00000000       0.007
   0.00000000  0.00000000  0.25000000       0.014
   0.16666667  0.00000000  0.25000000       0.056
   0.33333333  0.00000000  0.25000000       0.056
   0.50000000  0.00000000  0.25000000       0.028
   0.16666667  0.16666667  0.25000000       0.056
   0.33333333  0.16666667  0.25000000       0.111
   0.50000000  0.16666667  0.25000000       0.056
   0.33333333  0.33333333  0.25000000       0.056
   0.50000000  0.33333333  0.25000000       0.056
   0.50000000  0.50000000  0.25000000       0.014
   0.00000000  0.00000000  0.50000000       0.007
   0.16666667  0.00000000  0.50000000       0.028
   0.33333333  0.00000000  0.50000000       0.028
   0.50000000  0.00000000  0.50000000       0.014
   0.16666667  0.16666667  0.50000000       0.028
   0.33333333  0.16666667  0.50000000       0.056
   0.50000000  0.16666667  0.50000000       0.028
   0.33333333  0.33333333  0.50000000       0.028
   0.50000000  0.33333333  0.50000000       0.028
   0.50000000  0.50000000  0.50000000       0.007
 
 position of ions in fractional coordinates (direct lattice) 
   0.00000000  0.00000000  0.00000000
   0.00000000  0.00000000  0.50000000
   0.00000000  0.50000000  0.00000000
   0.00000000  0.50000000  0.50000000
   0.50000000  0.00000000  0.00000000
   0.50000000  0.00000000  0.50000000
   0.50000000  0.50000000  0.00000000
   0.50000000  0.50000000  0.50000000
   0.25094688  0.25094688  0.25207123
   0.25094688  0.25094688  0.74792877
   0.25094688  0.74905312  0.25207123
   0.25094688  0.74905312  0.74792877
   0.74905312  0.25094688  0.25207123
   0.74905312  0.25094688  0.74792877
   0.74905312  0.74905312  0.25207123
   0.74905312  0.74905312  0.74792877
 
 position of ions in cartesian coordinates  (Angst):
   0.00000000  0.00000000  0.00000000
   0.00000000  0.00000000  4.12085327
   0.00000000  2.80347598  0.00000000
   0.00000000  2.80347598  4.12085327
   2.80347598  0.00000000  0.00000000
   2.80347598  0.00000000  4.12085327
   2.80347598  2.80347598  0.00000000
   2.80347598  2.80347598  4.12085327
   1.40704711  1.40704711  2.07749706
   1.40704711  1.40704711  6.16420947
   1.40704711  4.19990485  2.07749706
   1.40704711  4.19990485  6.16420947
   4.19990485  1.40704711  2.07749706
   4.19990485  1.40704711  6.16420947
   4.19990485  4.19990485  2.07749706
   4.19990485  4.19990485  6.16420947
 


--------------------------------------------------------------------------------------------------------


 k-point     1 :   0.0000 0.0000 0.0000  plane waves:    7019
 k-point     2 :   0.1667 0.0000 0.0000  plane waves:    6995
 k-point     3 :   0.3333 0.0000 0.0000  plane waves:    6991
 k-point     4 :   0.5000 0.0000 0.0000  plane waves:    6972
 k-point     5 :   0.1667 0.1667 0.0000  plane waves:    6987
 k-point     6 :   0.3333 0.1667 0.0000  plane waves:    6992
 k-point     7 :   0.5000 0.1667 0.0000  plane waves:    6972
 k-point     8 :   0.3333 0.3333 0.0000  plane waves:    6951
 k-point     9 :   0.5000 0.3333 0.0000  plane waves:    6964
 k-point    10 :   0.5000 0.5000 0.0000  plane waves:    6892
 k-point    11 :   0.0000 0.0000 0.2500  plane waves:    6979
 k-point    12 :   0.1667 0.0000 0.2500  plane waves:    6985
 k-point    13 :   0.3333 0.0000 0.2500  plane waves:    6974
 k-point    14 :   0.5000 0.0000 0.2500  plane waves:    6960
 k-point    15 :   0.1667 0.1667 0.2500  plane waves:    6982
 k-point    16 :   0.3333 0.1667 0.2500  plane waves:    6975
 k-point    17 :   0.5000 0.1667 0.2500  plane waves:    6980
 k-point    18 :   0.3333 0.3333 0.2500  plane waves:    6972
 k-point    19 :   0.5000 0.3333 0.2500  plane waves:    6962
 k-point    20 :   0.5000 0.5000 0.2500  plane waves:    6972
 k-point    21 :   0.0000 0.0000 0.5000  plane waves:    6958
 k-point    22 :   0.1667 0.0000 0.5000  plane waves:    6974
 k-point    23 :   0.3333 0.0000 0.5000  plane waves:    6978
 k-point    24 :   0.5000 0.0000 0.5000  plane waves:    7008
 k-point    25 :   0.1667 0.1667 0.5000  plane waves:    6982
 k-point    26 :   0.3333 0.1667 0.5000  plane waves:    6972
 k-point    27 :   0.5000 0.1667 0.5000  plane waves:    6988
 k-point    28 :   0.3333 0.3333 0.5000  plane waves:    6992
 k-point    29 :   0.5000 0.3333 0.5000  plane waves:    6964
 k-point    30 :   0.5000 0.5000 0.5000  plane waves:    6944

 maximum and minimum number of plane-waves per node :      7019     6892

 maximum number of plane-waves:      7019
 maximum index in each direction: 
   IXMAX=   10   IYMAX=   10   IZMAX=   15
   IXMIN=  -10   IYMIN=  -10   IZMIN=  -15


 serial   3D FFT for wavefunctions
 parallel 3D FFT for charge:
    minimum data exchange during FFTs selected (reduces bandwidth)


 total amount of memory used by VASP MPI-rank0   133107. kBytes
=======================================================================

   base                                    :      30000. kBytes
   nonl-proj                               :      93040. kBytes
   fftplans                                :        434. kBytes
   grid                                    :       2381. kBytes
   one-center                              :        248. kBytes
   wavefun                                 :       7004. kBytes
 
     INWAV:  cpu time      0.0000: real time      0.0000
 Broyden mixing: mesh for mixing (old mesh)
   NGX = 21   NGY = 21   NGZ = 31
  (NGX  = 64   NGY  = 64   NGZ  = 96)
  gives a total of  13671 points

 initial charge density was supplied:
 charge density of overlapping atoms calculated
 number of electron     121.0000000 magnetization 
 keeping initial charge density in first step


--------------------------------------------------------------------------------------------------------


 Maximum index for augmentation-charges          443 (set IRDMAX)


--------------------------------------------------------------------------------------------------------


 First call to EWALD:  gamma=   0.278
 Maximum number of real-space cells   3x   3x   2
 Maximum number of reciprocal cells   2x   2x   3

    FEWALD:  cpu time      0.0012: real time      0.0012


--------------------------------------- Ionic step        1  -------------------------------------------




--------------------------------------- Iteration      1(   1)  ---------------------------------------


    POTLOK:  cpu time      0.0081: real time      0.0081
    SETDIJ:  cpu time      0.0024: real time      0.0024
     EDDAV:  cpu time      3.7804: real time      3.7806
       DOS:  cpu time      0.0006: real time      0.0006
    --------------------------------------------
      LOOP:  cpu time      3.7916: real time      3.7918

 eigenvalue-minimisations  :  7680
 total energy-change (2. order) : 0.8474994E+03  (-0.5804232E+04)
 number of electron     121.0000000 magnetization 
 augmentation part      121.0000000 magnetization 

 Free energy of the ion-electron system (eV)
  ---------------------------------------------------
  alpha Z        PSCENC =       315.16450473
  Ewald energy   TEWEN  =     -8824.03663466
  -Hartree energ DENC   =     -4336.18656843
  -exchange      EXHF   =         0.00000000
  -V(xc)+E(xc)   XCENC  =       269.62011889
  PAW double counting   =     10984.71331719   -10925.53584238
  entropy T*S    EENTRO =        -0.00288864
  eigenvalues    EBANDS =      -329.96642658
  atomic energy  EATOM  =     13693.72977468
  Solvation  Ediel_sol  =         0.00000000
  ---------------------------------------------------
  free energy    TOTEN  =       847.49935481 eV

  energy without entropy =      847.50224345  energy(sigma->0) =      847.50031769


--------------------------------------------------------------------------------------------------------




--------------------------------------- Iteration      1(   2)  ---------------------------------------


     EDDAV:  cpu time      3.8597: real time      3.8598
       DOS:  cpu time      0.0005: real time      0.0005
    --------------------------------------------
      LOOP:  cpu time      3.8602: real time      3.8604

 eigenvalue-minimisations  :  7808
 total energy-change (2. order) :-0.8818109E+03  (-0.8439253E+03)
 number of electron     121.0000000 magnetization 
 augmentation part      121.0000000 magnetization 

 Free energy of the ion-electron system (eV)
  ---------------------------------------------------
  alpha Z        PSCENC =       315.16450473
  Ewald energy   TEWEN  =     -8824.03663466
  -Hartree energ DENC   =     -4336.18656843
  -exchange      EXHF   =         0.00000000
  -V(xc)+E(xc)   XCENC  =       269.62011889
  PAW double counting   =     10984.71331719   -10925.53584238
  entropy T*S    EENTRO =        -0.00370190
  eigenvalues    EBANDS =     -1211.77648268
  atomic energy  EATOM  =     13693.72977468
  Solvation  Ediel_sol  =         0.00000000
  ---------------------------------------------------
  free energy    TOTEN  =       -34.31151455 eV

  energy without entropy =      -34.30781265  energy(sigma->0) =      -34.31028058


--------------------------------------------------------------------------------------------------------




--------------------------------------- Iteration      1(   3)  ---------------------------------------


     EDDAV:  cpu time     10.8565: real time     10.8567
       DOS:  cpu time      0.0006: real time      0.0006
    --------------------------------------------
      LOOP:  cpu time     10.8570: real time     10.8573

 eigenvalue-minimisations  : 14912
 total energy-change (2. order) :-0.6883293E+02  (-0.6747807E+02)
 number of electron     121.0000000 magnetization 
 augmentation part      121.0000000 magnetization 

 Free energy of the ion-electron system (eV)
  ---------------------------------------------------
  alpha Z        PSCENC =       315.16450473
  Ewald energy   TEWEN  =     -8824.03663466
  -Hartree energ DENC   =     -4336.18656843
  -exchange      EXHF   =         0.00000000
  -V(xc)+E(xc)   XCENC  =       269.62011889
  PAW double counting   =     10984.71331719   -10925.53584238
  entropy T*S    EENTRO =        -0.00354168
  eigenvalues    EBANDS =     -1280.60957132
  atomic energy  EATOM  =     13693.72977468
  Solvation  Ediel_sol  =         0.00000000
  ---------------------------------------------------
  free energy    TOTEN  =      -103.14444297 eV

  energy without entropy =     -103.14090129  energy(sigma->0) =     -103.14326241


--------------------------------------------------------------------------------------------------------




--------------------------------------- Iteration      1(   4)  ---------------------------------------


     EDDAV:  cpu time      4.0109: real time      4.0111
       DOS:  cpu time      0.0006: real time      0.0006
    --------------------------------------------
      LOOP:  cpu time      4.0114: real time      4.0117

 eigenvalue-minimisations  :  7936
 total energy-change (2. order) :-0.2110269E+01  (-0.2109672E+01)
 number of electron     121.0000000 magnetization 
 augmentation part      121.0000000 magnetization 

 Free energy of the ion-electron system (eV)
  ---------------------------------------------------
  alpha Z        PSCENC =       315.16450473
  Ewald energy   TEWEN  =     -8824.03663466
  -Hartree energ DENC   =     -4336.18656843
  -exchange      EXHF   =         0.00000000
  -V(xc)+E(xc)   XCENC  =       269.62011889
  PAW double counting   =     10984.71331719   -10925.53584238
  entropy T*S    EENTRO =        -0.00325098
  eigenvalues    EBANDS =     -1282.72013108
  atomic energy  EATOM  =     13693.72977468
  Solvation  Ediel_sol  =         0.00000000
  ---------------------------------------------------
  free energy    TOTEN  =      -105.25471203 eV

  energy without entropy =     -105.25146106  energy(sigma->0) =     -105.25362837


--------------------------------------------------------------------------------------------------------




--------------------------------------- Iteration      1(   5)  ---------------------------------------


     EDDAV:  cpu time      7.7206: real time      7.7212
       DOS:  cpu time      0.0006: real time      0.0006
    CHARGE:  cpu time      0.0343: real time      0.0343
    MIXING:  cpu time      0.0003: real time      0.0003
    --------------------------------------------
      LOOP:  cpu time      7.7557: real time      7.7564

 eigenvalue-minimisations  : 11776
 total energy-change (2. order) :-0.5409611E-01  (-0.5409277E-01)
 number of electron     120.9999763 magnetization 
 augmentation part       31.8832514 magnetization 

 Broyden mixing:
  rms(total) = 0.25821E+01    rms(broyden)= 0.25821E+01
  rms(prec ) = 0.35644E+01
  weight for this iteration     100.00

 Free energy of the ion-electron system (eV)
  ---------------------------------------------------
  alpha Z        PSCENC =       315.16450473
  Ewald energy   TEWEN  =     -8824.03663466
  -Hartree energ DENC   =     -4336.18656843
  -exchange      EXHF   =         0.00000000
  -V(xc)+E(xc)   XCENC  =       269.62011889
  PAW double counting   =     10984.71331719   -10925.53584238
  entropy T*S    EENTRO =        -0.00321952
  eigenvalues    EBANDS =     -1282.77425865
  atomic energy  EATOM  =     13693.72977468
  Solvation  Ediel_sol  =         0.00000000
  ---------------------------------------------------
  free energy    TOTEN  =      -105.30880814 eV

  energy without entropy =     -105.30558862  energy(sigma->0) =     -105.30773497


--------------------------------------------------------------------------------------------------------




--------------------------------------- Iteration      1(   6)  ---------------------------------------


    POTLOK:  cpu time      0.0089: real time      0.0089
    SETDIJ:  cpu time      0.0016: real time      0.0016
     EDDAV:  cpu time      6.1068: real time      6.1070
       DOS:  cpu time      0.0011: real time      0.0011
    CHARGE:  cpu time      0.0342: real time      0.0342
    MIXING:  cpu time      0.0004: real time      0.0004
    --------------------------------------------
      LOOP:  cpu time      6.1531: real time      6.1533

 eigenvalue-minimisations  : 10240
 total energy-change (2. order) : 0.8795053E+01  (-0.3237786E+01)
 number of electron     120.9999729 magnetization 
 augmentation part       36.0590737 magnetization 

 Broyden mixing:
  rms(total) = 0.13253E+01    rms(broyden)= 0.13252E+01
  rms(prec ) = 0.23696E+01
  weight for this iteration     100.00

 eigenvalues of (default mixing * dielectric matrix)
  average eigenvalue GAMMA=   0.7431
  0.7431

 Free energy of the ion-electron system (eV)
  ---------------------------------------------------
  alpha Z        PSCENC =       315.16450473
  Ewald energy   TEWEN  =     -8824.03663466
  -Hartree energ DENC   =     -4070.56759472
  -exchange      EXHF   =         0.00000000
  -V(xc)+E(xc)   XCENC  =       259.40796548
  PAW double counting   =     11852.08351198   -11794.36123832
  entropy T*S    EENTRO =        -0.00164908
  eigenvalues    EBANDS =     -1527.93239510
  atomic energy  EATOM  =     13693.72977468
  Solvation  Ediel_sol  =         0.00000000
  ---------------------------------------------------
  free energy    TOTEN  =       -96.51375501 eV

  energy without entropy =      -96.51210593  energy(sigma->0) =      -96.51320532


--------------------------------------------------------------------------------------------------------




--------------------------------------- Iteration      1(   7)  ---------------------------------------


    POTLOK:  cpu time      0.0068: real time      0.0068
    SETDIJ:  cpu time      0.0016: real time      0.0016
     EDDAV:  cpu time      5.7678: real time      5.7679
       DOS:  cpu time      0.0005: real time      0.0005
    CHARGE:  cpu time      0.0359: real time      0.0359
    MIXING:  cpu time      0.0007: real time      0.0007
    --------------------------------------------
      LOOP:  cpu time      5.8134: real time      5.8135

 eigenvalue-minimisations  : 10112
 total energy-change (2. order) :-0.9940413E+00  (-0.3194541E+01)
 number of electron     120.9999746 magnetization 
 augmentation part       34.5786249 magnetization 

 Broyden mixing:
  rms(total) = 0.15410E+01    rms(broyden)= 0.15410E+01
  rms(prec ) = 0.35358E+01
  weight for this iteration     100.00

 eigenvalues of (default mixing * dielectric matrix)
  average eigenvalue GAMMA=   0.5634
  0.8521  0.2748

 Free energy of the ion-electron system (eV)
  ---------------------------------------------------
  alpha Z        PSCENC =       315.16450473
  Ewald energy   TEWEN  =     -8824.03663466
  -Hartree energ DENC   =     -4138.51950446
  -exchange      EXHF   =         0.00000000
  -V(xc)+E(xc)   XCENC  =       262.05906712
  PAW double counting   =     12295.80759839   -12231.85221496
  entropy T*S    EENTRO =         0.00532546
  eigenvalues    EBANDS =     -1469.86571260
  atomic energy  EATOM  =     13693.72977468
  Solvation  Ediel_sol  =         0.00000000
  ---------------------------------------------------
  free energy    TOTEN  =       -97.50779629 eV

  energy without entropy =      -97.51312175  energy(sigma->0) =      -97.50957144


--------------------------------------------------------------------------------------------------------




--------------------------------------- Iteration      1(   8)  ---------------------------------------


    POTLOK:  cpu time      0.0094: real time      0.0094
    SETDIJ:  cpu time      0.0018: real time      0.0018
     EDDAV:  cpu time      5.3147: real time      5.3154
       DOS:  cpu time      0.0006: real time      0.0006
    CHARGE:  cpu time      0.0332: real time      0.0332
    MIXING:  cpu time      0.0003: real time      0.0003
    --------------------------------------------
      LOOP:  cpu time      5.3601: real time      5.3608

 eigenvalue-minimisations  :  9728
 total energy-change (2. order) : 0.3244654E+01  (-0.1632286E+01)
 number of electron     120.9999742 magnetization 
 augmentation part       34.0466669 magnetization 

 Broyden mixing:
  rms(total) = 0.67656E+00    rms(broyden)= 0.67651E+00
  rms(prec ) = 0.10163E+01
  weight for this iteration     100.00

 eigenvalues of (default mixing * dielectric matrix)
  average eigenvalue GAMMA=   0.6289
  1.1840  0.4875  0.2151

 Free energy of the ion-electron system (eV)
  ---------------------------------------------------
  alpha Z        PSCENC =       315.16450473
  Ewald energy   TEWEN  =     -8824.03663466
  -Hartree energ DENC   =     -4146.85460858
  -exchange      EXHF   =         0.00000000
  -V(xc)+E(xc)   XCENC  =       262.41547239
  PAW double counting   =     12476.67099860   -12410.84695733
  entropy T*S    EENTRO =        -0.00875207
  eigenvalues    EBANDS =     -1460.49693993
  atomic energy  EATOM  =     13693.72977468
  Solvation  Ediel_sol  =         0.00000000
  ---------------------------------------------------
  free energy    TOTEN  =       -94.26314216 eV

  energy without entropy =      -94.25439009  energy(sigma->0) =      -94.26022481


--------------------------------------------------------------------------------------------------------




--------------------------------------- Iteration      1(   9)  ---------------------------------------


    POTLOK:  cpu time      0.0067: real time      0.0067
    SETDIJ:  cpu time      0.0019: real time      0.0019
     EDDAV:  cpu time      5.5070: real time      5.5074
       DOS:  cpu time      0.0006: real time      0.0006
    CHARGE:  cpu time      0.0332: real time      0.0332
    MIXING:  cpu time      0.0003: real time      0.0003
    --------------------------------------------
      LOOP:  cpu time      5.5498: real time      5.5502

 eigenvalue-minimisations  :  9792
 total energy-change (2. order) : 0.1042740E+00  (-0.3151541E+00)
 number of electron     120.9999743 magnetization 
 augmentation part       34.2093844 magnetization 

 Broyden mixing:
  rms(total) = 0.53387E+00    rms(broyden)= 0.53383E+00
  rms(prec ) = 0.85424E+00
  weight for this iteration     100.00

 eigenvalues of (default mixing * dielectric matrix)
  average eigenvalue GAMMA=   0.8445
  2.2437  0.6572  0.2769  0.2000

 Free energy of the ion-electron system (eV)
  ---------------------------------------------------
  alpha Z        PSCENC =       315.16450473
  Ewald energy   TEWEN  =     -8824.03663466
  -Hartree energ DENC   =     -4138.47738158
  -exchange      EXHF   =         0.00000000
  -V(xc)+E(xc)   XCENC  =       262.12194229
  PAW double counting   =     12756.57692861   -12688.58069653
  entropy T*S    EENTRO =        -0.00310663
  eigenvalues    EBANDS =     -1470.65419913
  atomic energy  EATOM  =     13693.72977468
  Solvation  Ediel_sol  =         0.00000000
  ---------------------------------------------------
  free energy    TOTEN  =       -94.15886821 eV

  energy without entropy =      -94.15576158  energy(sigma->0) =      -94.15783267


--------------------------------------------------------------------------------------------------------




--------------------------------------- Iteration      1(  10)  ---------------------------------------


    POTLOK:  cpu time      0.0068: real time      0.0068
    SETDIJ:  cpu time      0.0017: real time      0.0017
     EDDAV:  cpu time      4.9305: real time      4.9308
       DOS:  cpu time      0.0006: real time      0.0006
    CHARGE:  cpu time      0.0338: real time      0.0338
    MIXING:  cpu time      0.0004: real time      0.0004
    --------------------------------------------
      LOOP:  cpu time      4.9738: real time      4.9741

 eigenvalue-minimisations  :  9024
 total energy-change (2. order) : 0.2744620E+00  (-0.7146100E-01)
 number of electron     120.9999741 magnetization 
 augmentation part       34.4100721 magnetization 

 Broyden mixing:
  rms(total) = 0.25642E+00    rms(broyden)= 0.25641E+00
  rms(prec ) = 0.41542E+00
  weight for this iteration     100.00

 eigenvalues of (default mixing * dielectric matrix)
  average eigenvalue GAMMA=   0.7937
  2.3040  0.7582  0.4197  0.2736  0.2128

 Free energy of the ion-electron system (eV)
  ---------------------------------------------------
  alpha Z        PSCENC =       315.16450473
  Ewald energy   TEWEN  =     -8824.03663466
  -Hartree energ DENC   =     -4121.56124440
  -exchange      EXHF   =         0.00000000
  -V(xc)+E(xc)   XCENC  =       261.58848780
  PAW double counting   =     13386.10436319   -13313.16529429
  entropy T*S    EENTRO =        -0.00404212
  eigenvalues    EBANDS =     -1491.70432117
  atomic energy  EATOM  =     13693.72977468
  Solvation  Ediel_sol  =         0.00000000
  ---------------------------------------------------
  free energy    TOTEN  =       -93.88440623 eV

  energy without entropy =      -93.88036411  energy(sigma->0) =      -93.88305886


--------------------------------------------------------------------------------------------------------




--------------------------------------- Iteration      1(  11)  ---------------------------------------


    POTLOK:  cpu time      0.0067: real time      0.0067
    SETDIJ:  cpu time      0.0017: real time      0.0017
     EDDAV:  cpu time      6.5758: real time      6.5764
       DOS:  cpu time      0.0005: real time      0.0005
    CHARGE:  cpu time      0.0334: real time      0.0334
    MIXING:  cpu time      0.0003: real time      0.0003
    --------------------------------------------
      LOOP:  cpu time      6.6184: real time      6.6190

 eigenvalue-minimisations  : 10688
 total energy-change (2. order) : 0.1834719E-01  (-0.3154354E-01)
 number of electron     120.9999743 magnetization 
 augmentation part       34.3254494 magnetization 

 Broyden mixing:
  rms(total) = 0.20644E+00    rms(broyden)= 0.20641E+00
  rms(prec ) = 0.35373E+00
  weight for this iteration     100.00

 eigenvalues of (default mixing * dielectric matrix)
  average eigenvalue GAMMA=   0.8272
  2.3572  1.2796  0.5723  0.2118  0.2935  0.2487

 Free energy of the ion-electron system (eV)
  ---------------------------------------------------
  alpha Z        PSCENC =       315.16450473
  Ewald energy   TEWEN  =     -8824.03663466
  -Hartree energ DENC   =     -4124.67296193
  -exchange      EXHF   =         0.00000000
  -V(xc)+E(xc)   XCENC  =       261.76164701
  PAW double counting   =     13469.24089523   -13394.66842752
  entropy T*S    EENTRO =        -0.00262254
  eigenvalues    EBANDS =     -1490.38223405
  atomic energy  EATOM  =     13693.72977468
  Solvation  Ediel_sol  =         0.00000000
  ---------------------------------------------------
  free energy    TOTEN  =       -93.86605904 eV

  energy without entropy =      -93.86343649  energy(sigma->0) =      -93.86518486


--------------------------------------------------------------------------------------------------------




--------------------------------------- Iteration      1(  12)  ---------------------------------------


    POTLOK:  cpu time      0.0061: real time      0.0061
    SETDIJ:  cpu time      0.0016: real time      0.0016
     EDDAV:  cpu time      6.0777: real time      6.0782
       DOS:  cpu time      0.0006: real time      0.0006
    CHARGE:  cpu time      0.0334: real time      0.0334
    MIXING:  cpu time      0.0004: real time      0.0004
    --------------------------------------------
      LOOP:  cpu time      6.1199: real time      6.1205

 eigenvalue-minimisations  : 10304
 total energy-change (2. order) : 0.4165124E-01  (-0.1188746E-01)
 number of electron     120.9999743 magnetization 
 augmentation part       34.1932719 magnetization 

 Broyden mixing:
  rms(total) = 0.64078E-01    rms(broyden)= 0.64061E-01
  rms(prec ) = 0.10120E+00
  weight for this iteration     100.00

 eigenvalues of (default mixing * dielectric matrix)
  average eigenvalue GAMMA=   0.8627
  2.3788  1.5640  0.7596  0.5766  0.2989  0.2100  0.2507

 Free energy of the ion-electron system (eV)
  ---------------------------------------------------
  alpha Z        PSCENC =       315.16450473
  Ewald energy   TEWEN  =     -8824.03663466
  -Hartree energ DENC   =     -4131.56552703
  -exchange      EXHF   =         0.00000000
  -V(xc)+E(xc)   XCENC  =       262.11907862
  PAW double counting   =     13534.85142157   -13457.67542497
  entropy T*S    EENTRO =        -0.00359722
  eigenvalues    EBANDS =     -1486.40800353
  atomic energy  EATOM  =     13693.72977468
  Solvation  Ediel_sol  =         0.00000000
  ---------------------------------------------------
  free energy    TOTEN  =       -93.82440780 eV

  energy without entropy =      -93.82081058  energy(sigma->0) =      -93.82320873


--------------------------------------------------------------------------------------------------------




--------------------------------------- Iteration      1(  13)  ---------------------------------------


    POTLOK:  cpu time      0.0067: real time      0.0067
    SETDIJ:  cpu time      0.0017: real time      0.0017
     EDDAV:  cpu time      6.5161: real time      6.5167
       DOS:  cpu time      0.0006: real time      0.0006
    CHARGE:  cpu time      0.0339: real time      0.0339
    MIXING:  cpu time      0.0004: real time      0.0004
    --------------------------------------------
      LOOP:  cpu time      6.5593: real time      6.5600

 eigenvalue-minimisations  : 10944
 total energy-change (2. order) :-0.2408801E-02  (-0.3993505E-02)
 number of electron     120.9999743 magnetization 
 augmentation part       34.1903612 magnetization 

 Broyden mixing:
  rms(total) = 0.65083E-01    rms(broyden)= 0.65078E-01
  rms(prec ) = 0.12099E+00
  weight for this iteration     100.00

 eigenvalues of (default mixing * dielectric matrix)
  average eigenvalue GAMMA=   0.8982
  2.6140  1.8872  1.1342  0.5824  0.2974  0.2534  0.2083  0.2083

 Free energy of the ion-electron system (eV)
  ---------------------------------------------------
  alpha Z        PSCENC =       315.16450473
  Ewald energy   TEWEN  =     -8824.03663466
  -Hartree energ DENC   =     -4132.14471216
  -exchange      EXHF   =         0.00000000
  -V(xc)+E(xc)   XCENC  =       262.16901678
  PAW double counting   =     13537.86348953   -13459.87455761
  entropy T*S    EENTRO =        -0.00160091
  eigenvalues    EBANDS =     -1486.69609698
  atomic energy  EATOM  =     13693.72977468
  Solvation  Ediel_sol  =         0.00000000
  ---------------------------------------------------
  free energy    TOTEN  =       -93.82681660 eV

  energy without entropy =      -93.82521569  energy(sigma->0) =      -93.82628296


--------------------------------------------------------------------------------------------------------




--------------------------------------- Iteration      1(  14)  ---------------------------------------


    POTLOK:  cpu time      0.0069: real time      0.0069
    SETDIJ:  cpu time      0.0017: real time      0.0017
     EDDAV:  cpu time      6.7001: real time      6.7003
       DOS:  cpu time      0.0006: real time      0.0006
    CHARGE:  cpu time      0.0335: real time      0.0335
    MIXING:  cpu time      0.0005: real time      0.0005
    --------------------------------------------
      LOOP:  cpu time      6.7432: real time      6.7435

 eigenvalue-minimisations  : 10944
 total energy-change (2. order) : 0.2939867E-02  (-0.2099012E-02)
 number of electron     120.9999743 magnetization 
 augmentation part       34.1945408 magnetization 

 Broyden mixing:
  rms(total) = 0.24450E-01    rms(broyden)= 0.24445E-01
  rms(prec ) = 0.40481E-01
  weight for this iteration     100.00

 eigenvalues of (default mixing * dielectric matrix)
  average eigenvalue GAMMA=   0.9572
  2.6919  2.0080  1.1830  1.1830  0.5781  0.3004  0.2477  0.2084  0.2147

 Free energy of the ion-electron system (eV)
  ---------------------------------------------------
  alpha Z        PSCENC =       315.16450473
  Ewald energy   TEWEN  =     -8824.03663466
  -Hartree energ DENC   =     -4132.80467748
  -exchange      EXHF   =         0.00000000
  -V(xc)+E(xc)   XCENC  =       262.25477225
  PAW double counting   =     13538.48848849   -13458.65030782
  entropy T*S    EENTRO =        -0.00277975
  eigenvalues    EBANDS =     -1487.96701718
  atomic energy  EATOM  =     13693.72977468
  Solvation  Ediel_sol  =         0.00000000
  ---------------------------------------------------
  free energy    TOTEN  =       -93.82387674 eV

  energy without entropy =      -93.82109699  energy(sigma->0) =      -93.82295015


--------------------------------------------------------------------------------------------------------




--------------------------------------- Iteration      1(  15)  ---------------------------------------


    POTLOK:  cpu time      0.0069: real time      0.0069
    SETDIJ:  cpu time      0.0017: real time      0.0017
     EDDAV:  cpu time      6.3089: real time      6.3091
       DOS:  cpu time      0.0006: real time      0.0006
    CHARGE:  cpu time      0.0336: real time      0.0336
    MIXING:  cpu time      0.0004: real time      0.0004
    --------------------------------------------
      LOOP:  cpu time      6.3521: real time      6.3523

 eigenvalue-minimisations  : 10496
 total energy-change (2. order) : 0.6185581E-03  (-0.2450217E-03)
 number of electron     120.9999743 magnetization 
 augmentation part       34.1703358 magnetization 

 Broyden mixing:
  rms(total) = 0.72142E-02    rms(broyden)= 0.72119E-02
  rms(prec ) = 0.10250E-01
  weight for this iteration     100.00

 eigenvalues of (default mixing * dielectric matrix)
  average eigenvalue GAMMA=   1.0571
  2.9505  2.4424  1.5182  1.0558  1.0558  0.5766  0.3006  0.2472  0.2082  0.2151

 Free energy of the ion-electron system (eV)
  ---------------------------------------------------
  alpha Z        PSCENC =       315.16450473
  Ewald energy   TEWEN  =     -8824.03663466
  -Hartree energ DENC   =     -4134.23845065
  -exchange      EXHF   =         0.00000000
  -V(xc)+E(xc)   XCENC  =       262.31453896
  PAW double counting   =     13528.88559745   -13448.58103024
  entropy T*S    EENTRO =        -0.00276542
  eigenvalues    EBANDS =     -1487.05879304
  atomic energy  EATOM  =     13693.72977468
  Solvation  Ediel_sol  =         0.00000000
  ---------------------------------------------------
  free energy    TOTEN  =       -93.82325818 eV

  energy without entropy =      -93.82049275  energy(sigma->0) =      -93.82233637


--------------------------------------------------------------------------------------------------------




--------------------------------------- Iteration      1(  16)  ---------------------------------------


    POTLOK:  cpu time      0.0068: real time      0.0068
    SETDIJ:  cpu time      0.0016: real time      0.0016
     EDDAV:  cpu time      5.5299: real time      5.5302
       DOS:  cpu time      0.0006: real time      0.0006
    CHARGE:  cpu time      0.0337: real time      0.0337
    MIXING:  cpu time      0.0005: real time      0.0005
    --------------------------------------------
      LOOP:  cpu time      5.5731: real time      5.5734

 eigenvalue-minimisations  :  9728
 total energy-change (2. order) : 0.9662695E-05  (-0.2948958E-04)
 number of electron     120.9999743 magnetization 
 augmentation part       34.1724773 magnetization 

 Broyden mixing:
  rms(total) = 0.27885E-02    rms(broyden)= 0.27879E-02
  rms(prec ) = 0.49402E-02
  weight for this iteration     100.00

 eigenvalues of (default mixing * dielectric matrix)
  average eigenvalue GAMMA=   1.0704
  2.8619  2.6531  1.5814  1.1445  1.1051  0.8801  0.5766  0.3007  0.2472  0.2151
  0.2082

 Free energy of the ion-electron system (eV)
  ---------------------------------------------------
  alpha Z        PSCENC =       315.16450473
  Ewald energy   TEWEN  =     -8824.03663466
  -Hartree energ DENC   =     -4134.44961305
  -exchange      EXHF   =         0.00000000
  -V(xc)+E(xc)   XCENC  =       262.32669686
  PAW double counting   =     13517.32673313   -13436.61396676
  entropy T*S    EENTRO =        -0.00274312
  eigenvalues    EBANDS =     -1487.26800033
  atomic energy  EATOM  =     13693.72977468
  Solvation  Ediel_sol  =         0.00000000
  ---------------------------------------------------
  free energy    TOTEN  =       -93.82324851 eV

  energy without entropy =      -93.82050539  energy(sigma->0) =      -93.82233414


--------------------------------------------------------------------------------------------------------




--------------------------------------- Iteration      1(  17)  ---------------------------------------


    POTLOK:  cpu time      0.0066: real time      0.0066
    SETDIJ:  cpu time      0.0019: real time      0.0019
     EDDAV:  cpu time      8.0419: real time      8.0421
       DOS:  cpu time      0.0006: real time      0.0006
    --------------------------------------------
      LOOP:  cpu time      8.0509: real time      8.0511

 eigenvalue-minimisations  : 12480
 total energy-change (2. order) : 0.9381163E-05  (-0.4796554E-05)
 number of electron     120.9999743 magnetization 
 augmentation part       34.1724773 magnetization 

 Free energy of the ion-electron system (eV)
  ---------------------------------------------------
  alpha Z        PSCENC =       315.16450473
  Ewald energy   TEWEN  =     -8824.03663466
  -Hartree energ DENC   =     -4134.52909474
  -exchange      EXHF   =         0.00000000
  -V(xc)+E(xc)   XCENC  =       262.32887375
  PAW double counting   =     13515.07002098   -13434.33798304
  entropy T*S    EENTRO =        -0.00274704
  eigenvalues    EBANDS =     -1487.20995380
  atomic energy  EATOM  =     13693.72977468
  Solvation  Ediel_sol  =         0.00000000
  ---------------------------------------------------
  free energy    TOTEN  =       -93.82323913 eV

  energy without entropy =      -93.82049209  energy(sigma->0) =      -93.82232345


--------------------------------------------------------------------------------------------------------




 average (electrostatic) potential at core
  the test charge radii are     1.0314  1.0397  1.0406
  (the norm of the test charge is              1.0000)
       1 -62.0978       2 -72.2808       3 -72.4967       4 -72.4096       5 -72.4967
       6 -72.4096       7 -72.4456       8 -72.2191       9 -71.5240      10 -71.5240
      11 -71.5240      12 -71.5240      13 -71.5240      14 -71.5240      15 -71.5240
      16 -71.5240
 
 
 
 E-fermi :   8.2690     XC(G=0): -11.0423     alpha+bet :-16.0145

 val. band max:        8.2585459360   @ k =   0.3333   0.3333   0.5000
 cond. band min:       8.2711122223   @ k =   0.5000   0.3333   0.5000
 fundamental gap:      0.0125662863
 Fermi energy:         8.2690287693

 k-point     1 :       0.0000    0.0000    0.0000
  band No.  band energies     occupation 
      1     -48.4730      2.00000
      2     -48.4482      2.00000
      3     -48.3854      2.00000
      4     -48.3697      2.00000
      5     -48.3621      2.00000
      6     -48.2260      2.00000
      7     -48.1693      2.00000
      8     -24.8746      2.00000
      9     -24.8746      2.00000
     10     -24.8236      2.00000
     11     -24.8079      2.00000
     12     -24.8079      2.00000
     13     -24.7974      2.00000
     14     -24.7871      2.00000
     15     -24.7801      2.00000
     16     -24.7801      2.00000
     17     -24.7657      2.00000
     18     -24.7330      2.00000
     19     -24.7330      2.00000
     20     -24.7186      2.00000
     21     -24.5885      2.00000
     22     -24.5616      2.00000
     23     -24.3788      2.00000
     24     -24.3788      2.00000
     25     -24.2916      2.00000
     26     -24.2916      2.00000
     27     -24.2301      2.00000
     28     -24.2301      2.00000
     29      -6.5567      2.00000
     30      -6.5531      2.00000
     31      -6.5531      2.00000
     32      -6.5499      2.00000
     33      -6.5068      2.00000
     34      -1.3671      2.00000
     35       0.4074      2.00000
     36       1.4238      2.00000
     37       3.4213      2.00000
     38       3.4213      2.00000
     39       3.4480      2.00000
     40       3.4480      2.00000
     41       3.4609      2.00000
     42       3.7541      2.00000
     43       4.8240      2.00000
     44       5.2296      2.00000
     45       5.2320      2.00000
     46       5.6842      2.00000
     47       6.0681      2.00000
     48       6.1338      2.00000
     49       6.1338      2.00000
     50       6.4232      2.00000
     51       6.4232      2.00000
     52       6.5790      2.00000
     53       6.7536      2.00000
     54       6.7536      2.00000
     55       7.1354      2.00000
     56       7.2815      2.00000
     57       7.4769      2.00000
     58       7.6916      2.00000
     59       7.6916      2.00000
     60       7.7684      2.00000
     61       7.7917      2.00000
     62       8.2514      1.29288
     63       8.3275      0.17439
     64       8.3275      0.17439
     65       8.9492     -0.00000
     66       9.3582     -0.00000
[...]
     39       2.6048      2.00000
     40       2.6064      2.00000
     41       2.6845      2.00000
     42       4.4399      2.00000
     43       5.3457      2.00000
     44       5.4365      2.00000
     45       5.7262      2.00000
     46       5.8827      2.00000
     47       6.4099      2.00000
     48       6.4189      2.00000
     49       6.4417      2.00000
     50       6.9868      2.00000
     51       7.1334      2.00000
     52       7.1482      2.00000
     53       7.4425      2.00000
     54       7.4430      2.00000
     55       7.7770      2.00000
     56       7.9041      2.00000
     57       7.9479      2.00005
     58       8.2309      1.59583
     59       8.2711      0.96474
     60       8.3432      0.05292
     61       8.3638     -0.03768
     62       8.4264     -0.04858
     63       8.5015     -0.00488
     64       8.6184     -0.00001
     65       8.8314     -0.00000
     66       8.8318     -0.00000
     67       9.0065     -0.00000
     68       9.0741     -0.00000
     69       9.1255     -0.00000
     70       9.1302     -0.00000
     71       9.7272     -0.00000
     72       9.9174     -0.00000
     73       9.9532     -0.00000
     74       9.9690     -0.00000
     75      10.0749     -0.00000
     76      10.1256     -0.00000
     77      10.1547     -0.00000
     78      10.2519     -0.00000
     79      10.2956      0.00000
     80      11.0593      0.00000
     81      11.0802      0.00000
     82      11.1018      0.00000
     83      11.4372      0.00000
     84      11.5033      0.00000
     85      11.7516      0.00000
     86      11.9477      0.00000
     87      12.0904      0.00000
     88      12.2458      0.00000
     89      12.3185      0.00000
     90      12.4821      0.00000
     91      12.7391      0.00000
     92      12.7643      0.00000
     93      13.5628      0.00000
     94      13.7120      0.00000
     95      13.7164      0.00000
     96      13.8576      0.00000
     97      14.3450      0.00000
     98      14.7771      0.00000
     99      14.9243      0.00000
    100      15.1197      0.00000
    101      15.1835      0.00000
    102      15.5381      0.00000
    103      15.7157      0.00000
    104      15.7891      0.00000
    105      16.5756      0.00000
    106      16.6795      0.00000
    107      16.7236      0.00000
    108      16.8332      0.00000
    109      16.9893      0.00000
    110      17.1044      0.00000
    111      17.1271      0.00000
    112      17.1403      0.00000
    113      17.2108      0.00000
    114      17.5477      0.00000
    115      17.7048      0.00000
    116      17.9839      0.00000
    117      18.1298      0.00000
    118      18.4889      0.00000
    119      18.8172      0.00000
    120      19.0324      0.00000
    121      19.4031      0.00000
    122      19.5107      0.00000
    123      19.5537      0.00000
    124      19.5735      0.00000
    125      20.0026      0.00000
    126      20.3675      0.00000
    127      20.4086      0.00000
    128      20.5342      0.00000

 k-point    30 :       0.5000    0.5000    0.5000
  band No.  band energies     occupation 
      1     -48.4489      2.00000
      2     -48.4489      2.00000
      3     -48.3934      2.00000
      4     -48.3629      2.00000
      5     -48.3629      2.00000
      6     -48.2371      2.00000
      7     -48.1809      2.00000
      8     -24.7982      2.00000
      9     -24.7982      2.00000
     10     -24.7977      2.00000
     11     -24.7786      2.00000
     12     -24.7684      2.00000
     13     -24.7684      2.00000
     14     -24.7412      2.00000
     15     -24.6339      2.00000
     16     -24.6339      2.00000
     17     -24.6271      2.00000
     18     -24.6119      2.00000
     19     -24.5960      2.00000
     20     -24.5950      2.00000
     21     -24.5905      2.00000
     22     -24.5798      2.00000
     23     -24.5753      2.00000
     24     -24.5732      2.00000
     25     -24.4878      2.00000
     26     -24.4878      2.00000
     27     -24.4190      2.00000
     28     -24.4190      2.00000
     29      -6.5517      2.00000
     30      -6.5517      2.00000
     31      -6.5511      2.00000
     32      -6.5323      2.00000
     33      -6.5043      2.00000
     34       0.1914      2.00000
     35       1.5837      2.00000
     36       1.6692      2.00000
     37       1.6692      2.00000
     38       1.8644      2.00000
     39       1.9126      2.00000
     40       1.9374      2.00000
     41       1.9374      2.00000
     42       4.6649      2.00000
     43       5.4714      2.00000
     44       5.4714      2.00000
     45       5.6164      2.00000
     46       6.0938      2.00000
     47       6.2725      2.00000
     48       6.2725      2.00000
     49       6.3317      2.00000
     50       7.5605      2.00000
     51       7.5605      2.00000
     52       7.8602      2.00000
     53       7.8658      2.00000
     54       7.9000      2.00000
     55       8.0493      2.00804
     56       8.0493      2.00804
     57       8.1083      2.04547
     58       8.1520      2.06995
     59       8.1520      2.06995
     60       8.2135      1.79810
     61       8.2151      1.78212
     62       8.4325     -0.04290
     63       8.4331     -0.04242
     64       8.5467     -0.00062
     65       8.5467     -0.00062
     66       8.7268     -0.00000
     67       8.7268     -0.00000
     68       8.9362     -0.00000
     69       8.9633     -0.00000
     70       9.0208     -0.00000
     71       9.8047     -0.00000
     72       9.8047     -0.00000
     73       9.8936     -0.00000
     74       9.9194     -0.00000
     75       9.9194     -0.00000
     76      10.0158     -0.00000
     77      10.0343     -0.00000
     78      10.0692     -0.00000
     79      10.0692     -0.00000
     80      10.7221      0.00000
     81      11.3660      0.00000
     82      11.4970      0.00000
     83      11.4970      0.00000
     84      11.5346      0.00000
     85      11.6032      0.00000
     86      12.3487      0.00000
     87      12.3487      0.00000
     88      12.6587      0.00000
     89      12.6587      0.00000
     90      12.6961      0.00000
     91      12.7285      0.00000
     92      12.7392      0.00000
     93      12.7529      0.00000
     94      13.4760      0.00000
     95      13.5926      0.00000
     96      13.8295      0.00000
     97      13.8295      0.00000
     98      14.0538      0.00000
     99      14.0612      0.00000
    100      14.0612      0.00000
    101      15.0671      0.00000
    102      16.1674      0.00000
    103      16.2892      0.00000
    104      16.2892      0.00000
    105      16.8350      0.00000
    106      16.8350      0.00000
    107      16.9270      0.00000
    108      17.2020      0.00000
    109      17.2698      0.00000
    110      17.3641      0.00000
    111      17.4541      0.00000
    112      17.4541      0.00000
    113      17.4824      0.00000
    114      17.8947      0.00000
    115      18.1047      0.00000
    116      18.1047      0.00000
    117      18.6254      0.00000
    118      18.6254      0.00000
    119      18.6627      0.00000
    120      18.6631      0.00000
    121      18.6631      0.00000
    122      18.7029      0.00000
    123      18.7120      0.00000
    124      18.7328      0.00000
    125      20.4040      0.00000
    126      20.7219      0.00000
    127      20.7219      0.00000
    128      20.8333      0.00000


--------------------------------------------------------------------------------------------------------


 soft charge-density along one line, spin component           1
         0         1         2         3         4         5         6         7         8         9
 total charge-density along one line
 
 pseudopotential strength for first ion, spin component:           1
-10.212  -0.000   0.000  -0.000   0.000  -0.257   0.000  -0.000
 -0.000 -10.241  -0.000   0.000   0.000   0.000  -0.241   0.000
  0.000  -0.000 -10.254  -0.000  -0.000  -0.000   0.000  -0.233
 -0.000   0.000  -0.000 -10.241  -0.000   0.000  -0.000   0.000
  0.000   0.000  -0.000  -0.000 -10.228  -0.000  -0.000   0.000
 -0.257   0.000  -0.000   0.000  -0.000   5.258  -0.000  -0.000
  0.000  -0.241   0.000  -0.000  -0.000  -0.000   5.250  -0.000
 -0.000   0.000  -0.233   0.000   0.000  -0.000  -0.000   5.247
  0.000  -0.000   0.000  -0.241   0.000  -0.000  -0.000  -0.000
 -0.000  -0.000   0.000   0.000  -0.249  -0.000   0.000  -0.000
  0.000  -0.000   0.001  -0.000   0.000  -0.000   0.000   0.002
 -0.000   0.000   0.005   0.000  -0.000   0.000  -0.000  -0.003
  0.000  -0.000   0.000  -0.000   0.000   0.000  -0.000   0.000
 -0.000  -0.000  -0.000   0.000   0.000   0.000  -0.000  -0.000
 -0.000  -0.000  -0.000  -0.000   0.000  -0.000   0.000  -0.000
  0.000  -0.000   0.000   0.000   0.000  -0.000   0.000  -0.000
  0.000  -0.000  -0.000   0.000  -0.000  -0.000   0.000   0.000
 -0.000   0.000  -0.000  -0.000   0.000   0.000  -0.000   0.000
 total augmentation occupancy for first ion, spin component:           1
  2.001   0.000   0.000   0.000   0.000   0.010   0.000   0.000   0.000   0.000   0.000   0.000   0.000   0.000   0.000   0.000
  0.000   2.002   0.000   0.000   0.000   0.000   0.013   0.000   0.000   0.000   0.000   0.000   0.000   0.000   0.000   0.000
  0.000   0.000   2.002   0.000   0.000   0.000  -0.000   0.011  -0.000   0.000  -0.003  -0.001   0.000   0.000   0.000   0.000
  0.000   0.000   0.000   2.002  -0.000   0.000   0.000   0.000   0.013  -0.000   0.000   0.000   0.000   0.000   0.000   0.000
  0.000   0.000   0.000  -0.000   2.005   0.000  -0.000   0.000  -0.000   0.016   0.000   0.000   0.000   0.000   0.000   0.000
  0.010   0.000   0.000   0.000   0.000   0.034   0.000   0.000   0.000   0.000   0.000   0.000   0.000   0.000   0.000   0.000
  0.000   0.013  -0.000   0.000  -0.000   0.000   0.037   0.000   0.000  -0.000  -0.000   0.000   0.000   0.000   0.000   0.000
  0.000   0.000   0.011   0.000   0.000   0.000   0.000   0.018   0.000   0.000  -0.032   0.001   0.000   0.000   0.000   0.000
  0.000   0.000  -0.000   0.013  -0.000   0.000   0.000   0.000   0.037  -0.000   0.000   0.000   0.000   0.000   0.000   0.000
  0.000   0.000   0.000  -0.000   0.016   0.000  -0.000   0.000  -0.000   0.007   0.000   0.000   0.000   0.000   0.000   0.000
  0.000   0.000  -0.003   0.000   0.000   0.000  -0.000  -0.032   0.000   0.000   1.576   0.021   0.000   0.000   0.000   0.000
  0.000   0.000  -0.001   0.000   0.000   0.000   0.000   0.001   0.000   0.000   0.021   0.001   0.000   0.000   0.000   0.000
  0.000   0.000   0.000   0.000   0.000   0.000   0.000   0.000   0.000   0.000   0.000   0.000   0.940  -0.000   0.000   0.014
  0.000   0.000   0.000   0.000   0.000   0.000   0.000   0.000   0.000   0.000   0.000   0.000  -0.000   0.769   0.000   0.000
  0.000   0.000   0.000   0.000   0.000   0.000   0.000   0.000   0.000   0.000   0.000   0.000   0.000   0.000   0.940   0.000
  0.000   0.000   0.000   0.000   0.000   0.000   0.000   0.000   0.000   0.000   0.000   0.000   0.014   0.000   0.000   0.000
  0.000   0.000   0.000   0.000   0.000   0.000   0.000   0.000   0.000   0.000   0.000   0.000   0.000   0.012   0.000   0.000
  0.000   0.000   0.000   0.000   0.000   0.000   0.000   0.000   0.000   0.000   0.000   0.000   0.000   0.000   0.014   0.000


------------------------ aborting loop because EDIFF is reached ----------------------------------------


    CHARGE:  cpu time      0.0345: real time      0.0345
    FORLOC:  cpu time      0.0004: real time      0.0004
    FORNL :  cpu time      0.5832: real time      0.5832
    STRESS:  cpu time      2.0798: real time      2.0798
    FORCOR:  cpu time      0.0091: real time      0.0091
    FORHAR:  cpu time      0.0017: real time      0.0017
    MIXING:  cpu time      0.0004: real time      0.0004
    OFIELD:  cpu time      0.0000: real time      0.0000

  FORCE on cell =-STRESS in cart. coord.  units (eV):
  Direction    XX          YY          ZZ          XY          YZ          ZX
  --------------------------------------------------------------------------------------
  Alpha Z   315.16450   315.16450   315.16450
  Ewald   -2299.74450 -2299.74450 -4224.56271     0.00000    -0.00000    -0.00000
  Hartree  1935.29772  1935.29772   263.90713    -0.00000    -0.00000    -0.00000
  E(xc)    -591.74477  -591.74477  -593.00888    -0.00000     0.00000    -0.00000
  Local   -1261.52363 -1261.52363  2359.13450    -0.00000     0.00000    -0.00000
  n-local   -70.60311   -92.13417   -43.53734    -2.12509     0.83090     1.26449
  augment   553.13488   553.13488   537.72501    -0.00000     0.00000    -0.00000
  Kinetic  1417.13589  1444.33733  1385.16426     0.62191    -1.28427    -0.70642
  Fock        0.00000     0.00000     0.00000     0.00000     0.00000     0.00000
  -------------------------------------------------------------------------------------
  Total      -0.04781    -0.04781    -0.01353     0.00000     0.00000     0.00000
  in kB      -0.29565    -0.29565    -0.08366     0.00000     0.00000     0.00000
  external pressure =       -0.22 kB  Pullay stress =        0.00 kB


 VOLUME and BASIS-vectors are now :
 -----------------------------------------------------------------------------
  energy-cutoff  :      520.00
  volume of cell :      259.10
      direct lattice vectors                 reciprocal lattice vectors
     5.606951968  0.000000000  0.000000000     0.178350021  0.000000000  0.000000000
     0.000000000  5.606951968  0.000000000     0.000000000  0.178350021  0.000000000
     0.000000000  0.000000000  8.241706534     0.000000000  0.000000000  0.121334095

  length of vectors
     5.606951968  5.606951968  8.241706534     0.178350021  0.178350021  0.121334095


 FORCES acting on ions
    electron-ion (+dipol)            ewald-force                    non-local-force                 convergence-correction
 -----------------------------------------------------------------------------------------------
   0.483E-14 0.959E-14 -.991E-13   0.380E-13 0.613E-14 -.292E-13   0.000E+00 0.000E+00 0.000E+00   0.954E-13 -.878E-14 -.361E-12
   0.318E-15 0.730E-15 0.103E-11   -.332E-13 -.935E-14 0.512E-13   0.000E+00 0.000E+00 0.000E+00   0.443E-13 -.177E-13 0.315E-12
   0.129E-14 0.387E-12 -.560E-13   -.290E-13 -.624E-14 -.274E-13   0.000E+00 0.000E+00 0.000E+00   0.886E-13 0.137E-13 -.293E-12
   -.354E-14 0.392E-12 0.105E-11   -.452E-13 -.144E-13 0.195E-13   0.000E+00 0.000E+00 0.000E+00   0.650E-13 0.108E-13 0.288E-12
   0.380E-12 -.131E-15 -.688E-11   -.635E-14 0.635E-14 -.195E-13   0.000E+00 0.000E+00 0.000E+00   -.494E-13 -.227E-13 -.309E-12
   0.390E-12 -.359E-14 0.433E-11   0.292E-13 0.240E-14 0.274E-13   0.000E+00 0.000E+00 0.000E+00   -.195E-13 0.211E-14 0.312E-12
   0.381E-12 0.403E-12 -.209E-11   -.263E-13 -.182E-13 -.274E-13   0.000E+00 0.000E+00 0.000E+00   -.358E-13 0.341E-13 -.298E-12
   0.392E-12 0.418E-12 0.260E-11   0.957E-14 -.103E-13 0.433E-13   0.000E+00 0.000E+00 0.000E+00   -.782E-14 0.130E-13 0.305E-12
   -.624E+00 -.624E+00 0.469E+00   0.109E+01 0.109E+01 0.671E+00   -.468E+00 -.468E+00 -.113E+01   -.722E-03 -.722E-03 -.399E-02
   -.624E+00 -.624E+00 -.469E+00   0.109E+01 0.109E+01 -.671E+00   -.468E+00 -.468E+00 0.113E+01   -.722E-03 -.722E-03 0.399E-02
   -.624E+00 0.624E+00 0.469E+00   0.109E+01 -.109E+01 0.671E+00   -.468E+00 0.468E+00 -.113E+01   -.722E-03 0.722E-03 -.399E-02
   -.624E+00 0.624E+00 -.469E+00   0.109E+01 -.109E+01 -.671E+00   -.468E+00 0.468E+00 0.113E+01   -.722E-03 0.722E-03 0.399E-02
   0.624E+00 -.624E+00 0.469E+00   -.109E+01 0.109E+01 0.671E+00   0.468E+00 -.468E+00 -.113E+01   0.722E-03 -.722E-03 -.399E-02
   0.624E+00 -.624E+00 -.469E+00   -.109E+01 0.109E+01 -.671E+00   0.468E+00 -.468E+00 0.113E+01   0.722E-03 -.722E-03 0.399E-02
   0.624E+00 0.624E+00 0.469E+00   -.109E+01 -.109E+01 0.671E+00   0.468E+00 0.468E+00 -.113E+01   0.722E-03 0.722E-03 -.399E-02
   0.624E+00 0.624E+00 -.469E+00   -.109E+01 -.109E+01 -.671E+00   0.468E+00 0.468E+00 0.113E+01   0.722E-03 0.722E-03 0.399E-02
 -----------------------------------------------------------------------------------------------
   0.144E-11 0.123E-11 0.437E-11   0.000E+00 -.777E-14 -.178E-14   -.333E-15 0.555E-16 0.000E+00   0.180E-12 0.248E-13 -.409E-13
 
 
 POSITION                                       TOTAL-FORCE (eV/Angst)
 -----------------------------------------------------------------------------------
      0.00000      0.00000      0.00000        -0.000000      0.000000      0.000000
      0.00000      0.00000      4.12085        -0.000000      0.000000      0.000000
      0.00000      2.80348      0.00000        -0.000000      0.000000      0.000000
      0.00000      2.80348      4.12085        -0.000000      0.000000      0.000000
      2.80348      0.00000      0.00000        -0.000000      0.000000      0.000000
      2.80348      0.00000      4.12085        -0.000000      0.000000      0.000000
      2.80348      2.80348      0.00000        -0.000000      0.000000      0.000000
      2.80348      2.80348      4.12085        -0.000000      0.000000      0.000000
      1.40705      1.40705      2.07750         0.001570      0.001570      0.007608
      1.40705      1.40705      6.16421         0.001570      0.001570     -0.007608
      1.40705      4.19990      2.07750         0.001570     -0.001570      0.007608
      1.40705      4.19990      6.16421         0.001570     -0.001570     -0.007608
      4.19990      1.40705      2.07750        -0.001570      0.001570      0.007608
      4.19990      1.40705      6.16421        -0.001570      0.001570     -0.007608
      4.19990      4.19990      2.07750        -0.001570     -0.001570      0.007608
      4.19990      4.19990      6.16421        -0.001570     -0.001570     -0.007608
 -----------------------------------------------------------------------------------
    total drift:                                0.000000      0.000000      0.000000


--------------------------------------------------------------------------------------------------------



  FREE ENERGIE OF THE ION-ELECTRON SYSTEM (eV)
  ---------------------------------------------------
  free  energy   TOTEN  =       -93.82323913 eV

  energy  without entropy=      -93.82049209  energy(sigma->0) =      -93.82232345
 


--------------------------------------------------------------------------------------------------------


    POTLOK:  cpu time      0.0084: real time      0.0084


--------------------------------------------------------------------------------------------------------


 writing wavefunctions
     LOOP+:  cpu time    108.5119: real time    108.5179
    4ORBIT:  cpu time      0.0000: real time      0.0000

 total amount of memory used by VASP MPI-rank0   133107. kBytes
=======================================================================

   base                                    :      30000. kBytes
   nonl-proj                               :      93040. kBytes
   fftplans                                :        434. kBytes
   grid                                    :       2381. kBytes
   one-center                              :        248. kBytes
   wavefun                                 :       7004. kBytes
 
  
  
 General timing and accounting informations for this job:
 ========================================================
  
                  Total CPU time used (sec):      110.868
                            User time (sec):      105.926
                          System time (sec):        4.942
                         Elapsed time (sec):      111.132
  
                   Maximum memory used (kb):      311296.
                   Average memory used (kb):          N/A
  
                          Minor page faults:        47744
                          Major page faults:           17
                 Voluntary context switches:          111
