<?xml version="1.0" encoding="ISO-8859-1"?>
<modeling>
 <generator>
  <i name="program" type="string">vasp </i>
  <i name="version" type="string">6.5.0  </i>
  <i name="subversion" type="string">16Dec24 (build Apr 17 2025 17:55:45) complex                          parallel </i>
  <i name="platform" type="string">LinuxIFC </i>
  <i name="date" type="string">2025 06 04 </i>
  <i name="time" type="string">10:18:39 </i>
 </generator>
 <incar>
  <i type="int" name="ISTART">     0</i>
  <i type="string" name="PREC">N</i>
  <i type="string" name="ALGO">N</i>
  <i type="int" name="ICHARG">     2</i>
  <i type="int" name="NELM">   500</i>
  <i type="int" name="IBRION">    -1</i>
  <i name="EDIFF">      0.00001000</i>
  <i name="EDIFFG">     -0.01000000</i>
  <i type="int" name="NSW">     0</i>
  <i type="int" name="ISIF">     3</i>
  <i name="ENCUT">    520.00000000</i>
  <i type="logical" name="LREAL"> F  </i>
  <i type="int" name="ISMEAR">     1</i>
  <i name="SIGMA">      0.10000000</i>
 </incar>
 <primitive_cell>
  <structure name="primitive_cell" >
   <crystal>
    <varray name="basis" >
     <v>       5.60695197       0.00000000       0.00000000 </v>
     <v>       0.00000000       5.60695197       0.00000000 </v>
     <v>       0.00000000       0.00000000       8.24170653 </v>
    </varray>
    <i name="volume">    259.10203137 </i>
    <varray name="rec_basis" >
     <v>       0.17835002       0.00000000       0.00000000 </v>
     <v>       0.00000000       0.17835002       0.00000000 </v>
     <v>       0.00000000       0.00000000       0.12133409 </v>
    </varray>
   </crystal>
   <varray name="positions" >
    <v>       0.00000000       0.00000000       0.00000000 </v>
    <v>       0.00000000       0.00000000       0.50000000 </v>
    <v>       0.00000000       0.50000000       0.00000000 </v>
    <v>       0.00000000       0.50000000       0.50000000 </v>
    <v>       0.50000000       0.00000000       0.00000000 </v>
    <v>       0.50000000       0.00000000       0.50000000 </v>
    <v>       0.50000000       0.50000000       0.00000000 </v>
    <v>       0.50000000       0.50000000       0.50000000 </v>
    <v>       0.25094688       0.25094688       0.25207123 </v>
    <v>       0.25094688       0.25094688       0.74792877 </v>
    <v>       0.25094688       0.74905312       0.25207123 </v>
    <v>       0.25094688       0.74905312       0.74792877 </v>
    <v>       0.74905312       0.25094688       0.25207123 </v>
    <v>       0.74905312       0.25094688       0.74792877 </v>
    <v>       0.74905312       0.74905312       0.25207123 </v>
    <v>       0.74905312       0.74905312       0.74792877 </v>
   </varray>
  </structure>
  <varray name="primitive_index" >
   <v type="int" >        1 </v>
   <v type="int" >        2 </v>
   <v type="int" >        3 </v>
   <v type="int" >        4 </v>
   <v type="int" >        5 </v>
   <v type="int" >        6 </v>
   <v type="int" >        7 </v>
   <v type="int" >        8 </v>
   <v type="int" >        9 </v>
   <v type="int" >       10 </v>
   <v type="int" >       11 </v>
   <v type="int" >       12 </v>
   <v type="int" >       13 </v>
   <v type="int" >       14 </v>
   <v type="int" >       15 </v>
   <v type="int" >       16 </v>
  </varray>
 </primitive_cell>
 <kpoints>
  <generation param="Gamma">
   <v type="int" name="divisions">       6        6        4 </v>
   <v name="usershift">      0.00000000       0.00000000       0.00000000 </v>
   <v name="genvec1">      0.16666667       0.00000000       0.00000000 </v>
   <v name="genvec2">      0.00000000       0.16666667       0.00000000 </v>
   <v name="genvec3">      0.00000000       0.00000000       0.25000000 </v>
   <v name="shift">      0.00000000       0.00000000       0.00000000 </v>
  </generation>
  <varray name="kpointlist" >
   <v>       0.00000000       0.00000000       0.00000000 </v>
   <v>       0.16666667       0.00000000       0.00000000 </v>
   <v>       0.33333333       0.00000000       0.00000000 </v>
   <v>       0.50000000       0.00000000       0.00000000 </v>
   <v>       0.16666667       0.16666667       0.00000000 </v>
   <v>       0.33333333       0.16666667       0.00000000 </v>
   <v>       0.50000000       0.16666667       0.00000000 </v>
   <v>       0.33333333       0.33333333       0.00000000 </v>
   <v>       0.50000000       0.33333333       0.00000000 </v>
   <v>       0.50000000       0.50000000       0.00000000 </v>
   <v>       0.00000000       0.00000000       0.25000000 </v>
   <v>       0.16666667       0.00000000       0.25000000 </v>
   <v>       0.33333333       0.00000000       0.25000000 </v>
   <v>       0.50000000       0.00000000       0.25000000 </v>
   <v>       0.16666667       0.16666667       0.25000000 </v>
   <v>       0.33333333       0.16666667       0.25000000 </v>
   <v>       0.50000000       0.16666667       0.25000000 </v>
   <v>       0.33333333       0.33333333       0.25000000 </v>
   <v>       0.50000000       0.33333333       0.25000000 </v>
   <v>       0.50000000       0.50000000       0.25000000 </v>
   <v>       0.00000000       0.00000000       0.50000000 </v>
   <v>       0.16666667       0.00000000       0.50000000 </v>
   <v>       0.33333333       0.00000000       0.50000000 </v>
   <v>       0.50000000       0.00000000       0.50000000 </v>
   <v>       0.16666667       0.16666667       0.50000000 </v>
   <v>       0.33333333       0.16666667       0.50000000 </v>
   <v>       0.50000000       0.16666667       0.50000000 </v>
   <v>       0.33333333       0.33333333       0.50000000 </v>
   <v>       0.50000000       0.33333333       0.50000000 </v>
   <v>       0.50000000       0.50000000       0.50000000 </v>
  </varray>
  <varray name="weights" >
   <v>       0.00694444 </v>
   <v>       0.02777778 </v>
   <v>       0.02777778 </v>
   <v>       0.01388889 </v>
   <v>       0.02777778 </v>
   <v>       0.05555556 </v>
   <v>       0.02777778 </v>
   <v>       0.02777778 </v>
   <v>       0.02777778 </v>
   <v>       0.00694444 </v>
   <v>       0.01388889 </v>
   <v>       0.05555556 </v>
   <v>       0.05555556 </v>
   <v>       0.02777778 </v>
   <v>       0.05555556 </v>
   <v>       0.11111111 </v>
   <v>       0.05555556 </v>
   <v>       0.05555556 </v>
   <v>       0.05555556 </v>
   <v>       0.01388889 </v>
   <v>       0.00694444 </v>
   <v>       0.02777778 </v>
   <v>       0.02777778 </v>
   <v>       0.01388889 </v>
   <v>       0.02777778 </v>
   <v>       0.05555556 </v>
   <v>       0.02777778 </v>
   <v>       0.02777778 </v>
   <v>       0.02777778 </v>
   <v>       0.00694444 </v>
  </varray>
 </kpoints>
 <parameters>
  <separator name="general" >
   <i type="string" name="SYSTEM">unknown system</i>
   <i type="logical" name="LCOMPAT"> F  </i>
  </separator>
  <separator name="electronic" >
   <i type="string" name="PREC">n</i>
   <i name="ENMAX">    520.00000000</i>
   <i name="ENAUG">    490.69000000</i>
   <i name="EDIFF">      0.00001000</i>
   <i type="int" name="IALGO">    38</i>
   <i type="int" name="IWAVPR">    10</i>
   <i type="int" name="NBANDS">   128</i>
   <i type="int" name="NBANDSLOW">    -1</i>
   <i type="int" name="NBANDSHIGH">    -1</i>
   <i name="NELECT">    121.00000000</i>
   <i type="int" name="TURBO">     0</i>
   <i type="int" name="IRESTART">     0</i>
   <i type="int" name="NREBOOT">     0</i>
   <i type="int" name="NMIN">     0</i>
   <i name="EREF">      0.00000000</i>
   <separator name="electronic smearing" >
    <i type="int" name="ISMEAR">     1</i>
    <i name="SIGMA">      0.10000000</i>
    <i name="KSPACING">      0.50000000</i>
    <i type="logical" name="KGAMMA"> T  </i>
    <i type="logical" name="KBLOWUP"> T  </i>
   </separator>
   <separator name="electronic projectors" >
    <i type="logical" name="LREAL"> F  </i>
    <v name="ROPT">      0.00000000      0.00000000      0.00000000</v>
    <i type="int" name="LMAXPAW">  -100</i>
    <i type="int" name="LMAXMIX">     2</i>
    <i type="logical" name="NLSPLINE"> F  </i>
   </separator>
   <separator name="electronic startup" >
    <i type="int" name="ISTART">     0</i>
    <i type="int" name="ICHARG">     2</i>
    <i type="int" name="INIWAV">     1</i>
   </separator>
   <separator name="electronic spin" >
    <i type="int" name="ISPIN">     1</i>
    <i type="logical" name="LNONCOLLINEAR"> F  </i>
    <v name="MAGMOM">      1.00000000      1.00000000      1.00000000      1.00000000      1.00000000      1.00000000      1.00000000      1.00000000      1.00000000      1.00000000      1.00000000      1.00000000      1.00000000      1.00000000      1.00000000      1.00000000</v>
    <i name="NUPDOWN">     -1.00000000</i>
    <i type="logical" name="LSORBIT"> F  </i>
    <v name="SAXIS">      0.00000000      0.00000000      1.00000000</v>
    <i type="logical" name="LSPIRAL"> F  </i>
    <v name="QSPIRAL">      0.00000000      0.00000000      0.00000000</v>
    <i type="logical" name="LZEROZ"> F  </i>
   </separator>
   <separator name="electronic exchange-correlation" >
    <i type="logical" name="LASPH"> F  </i>
   </separator>
   <separator name="electronic convergence" >
    <i type="int" name="NELM">   500</i>
    <i type="int" name="NELMDL">    -5</i>
    <i type="int" name="NELMIN">     2</i>
    <i name="ENINI">    520.00000000</i>
    <separator name="electronic convergence detail" >
     <i type="logical" name="LDIAG"> T  </i>
     <i type="logical" name="LSUBROT"> F  </i>
     <i name="WEIMIN">      0.00000000</i>
     <i name="EBREAK">      0.00000002</i>
     <i name="DEPER">      0.30000000</i>
     <i type="int" name="NRMM">     4</i>
     <i name="TIME">      0.40000000</i>
    </separator>
   </separator>
   <separator name="electronic mixer" >
    <i name="AMIX">      0.40000000</i>
    <i name="BMIX">      1.00000000</i>
    <i name="AMIN">      0.10000000</i>
    <i name="AMIX_MAG">      1.60000000</i>
    <i name="BMIX_MAG">      1.00000000</i>
    <separator name="electronic mixer details" >
     <i type="int" name="IMIX">     4</i>
     <i type="logical" name="MIXFIRST"> F  </i>
     <i type="int" name="MAXMIX">   -45</i>
     <i name="WC">    100.00000000</i>
     <i type="int" name="INIMIX">     1</i>
     <i type="int" name="MIXPRE">     1</i>
     <i type="int" name="MREMOVE">     5</i>
    </separator>
   </separator>
   <separator name="electronic dipolcorrection" >
    <i type="logical" name="LDIPOL"> F  </i>
    <i type="logical" name="LMONO"> F  </i>
    <i type="int" name="IDIPOL">     0</i>
    <i name="EPSILON">      1.00000000</i>
    <v name="DIPOL">   -100.00000000   -100.00000000   -100.00000000</v>
    <i name="EFIELD">      0.00000000</i>
    <i type="logical" name="LVACPOTAV"> F  </i>
   </separator>
  </separator>
  <separator name="grids" >
   <i type="int" name="NGX">    32</i>
   <i type="int" name="NGY">    32</i>
   <i type="int" name="NGZ">    48</i>
   <i type="int" name="NGXF">    64</i>
   <i type="int" name="NGYF">    64</i>
   <i type="int" name="NGZF">    96</i>
   <i type="logical" name="ADDGRID"> F  </i>
  </separator>
  <separator name="ionic" >
   <i type="int" name="NSW">     0</i>
   <i type="int" name="IBRION">    -1</i>
   <i type="int" name="MDALGO">     0</i>
   <i type="int" name="ISIF">     3</i>
   <i name="PSTRESS">      0.00000000</i>
   <i name="EDIFFG">     -0.01000000</i>
   <i type="int" name="NFREE">     0</i>
   <i name="POTIM">      0.50000000</i>
   <i name="SMASS">     -3.00000000</i>
   <i name="SCALEE">      1.00000000</i>
  </separator>
  <separator name="ionic md" >
   <i name="TEBEG">      0.00010000</i>
   <i name="TEEND">      0.00010000</i>
   <i type="int" name="NBLOCK">     1</i>
   <i type="int" name="KBLOCK">     1</i>
   <i type="int" name="NPACO">   256</i>
   <i name="APACO">     10.00000000</i>
  </separator>
  <separator name="symmetry" >
   <i type="int" name="ISYM">     2</i>
   <i name="SYMPREC">      0.00001000</i>
  </separator>
  <separator name="dos" >
   <i type="int" name="LORBIT">     0</i>
   <v name="RWIGS">     -1.00000000     -1.00000000     -1.00000000</v>
   <i type="int" name="NEDOS">   301</i>
   <i name="EMIN">     10.00000000</i>
   <i name="EMAX">    -10.00000000</i>
   <i name="EFERMI">      0.00000000</i>
  </separator>
  <separator name="writing" >
   <i type="int" name="NWRITE">     2</i>
   <i type="logical" name="LWAVE"> T  </i>
   <i type="logical" name="LDOWNSAMPLE"> F  </i>
   <i type="logical" name="LCHARG"> T  </i>
   <i type="logical" name="LPARD"> F  </i>
   <i type="logical" name="LVTOT"> F  </i>
   <i type="logical" name="LVHAR"> F  </i>
   <i type="logical" name="LELF"> F  </i>
   <i type="logical" name="LOPTICS"> F  </i>
   <v name="STM">      0.00000000      0.00000000      0.00000000      0.00000000      0.00000000      0.00000000      0.00000000</v>
  </separator>
  <separator name="performance" >
   <i type="int" name="NPAR">    64</i>
   <i type="int" name="NSIM">     4</i>
   <i type="int" name="NBLK">    -1</i>
   <i type="logical" name="LPLANE"> T  </i>
   <i type="logical" name="LSCALAPACK"> T  </i>
   <i type="logical" name="LSCAAWARE"> T  </i>
   <i type="logical" name="LSCALU"> F  </i>
   <i type="logical" name="LASYNC"> F  </i>
   <i type="logical" name="LORBITALREAL"> F  </i>
  </separator>
  <separator name="miscellaneous" >
   <i type="int" name="IDIOT">     3</i>
   <i type="int" name="PHON_NSTRUCT">    -1</i>
   <i type="logical" name="LMUSIC"> F  </i>
   <v name="POMASS">     69.72300000     47.88000000     26.98100000</v>
   <v name="DARWINR">      0.00000000      0.00000000      0.00000000</v>
   <v name="DARWINV">      1.00000000      1.00000000      1.00000000</v>
   <i type="logical" name="LCORR"> T  </i>
  </separator>
  <i type="logical" name="GGA_COMPAT"> T  </i>
  <i type="logical" name="LBERRY"> F  </i>
  <i type="int" name="ICORELEVEL">     0</i>
  <i type="logical" name="LDAU"> F  </i>
  <i type="int" name="I_CONSTRAINED_M">     0</i>
  <separator name="electronic exchange-correlation" >
   <i type="string" name="GGA    ">PE</i>
   <i type="string" name="XC_C">1</i>
   <i type="int" name="VOSKOWN">     0</i>
   <i type="logical" name="LHFCALC"> F  </i>
   <i type="string" name="PRECFOCK"></i>
   <i type="logical" name="LSYMGRAD"> F  </i>
   <i type="logical" name="LHFONE"> F  </i>
   <i type="logical" name="LRHFCALC"> F  </i>
   <i type="logical" name="LTHOMAS"> F  </i>
   <i type="logical" name="LMODELHF"> F  </i>
   <i type="logical" name="LFOCKACE"> F  </i>
   <i name="ENCUT4O">     -1.00000000</i>
   <i type="int" name="EXXOEP">     0</i>
   <i type="int" name="FOURORBIT">     0</i>
   <i name="AEXX">      0.00000000</i>
   <i name="HFALPHA">      0.00000000</i>
   <i name="MCALPHA">      0.00000000</i>
   <i name="ALDAX">      1.00000000</i>
   <i name="AGGAX">      1.00000000</i>
   <i name="AMGGAX">      1.00000000</i>
   <i name="ALDAC">      1.00000000</i>
   <i name="AGGAC">      1.00000000</i>
   <i name="AMGGAC">      1.00000000</i>
   <i type="int" name="NKREDX">     1</i>
   <i type="int" name="NKREDY">     1</i>
   <i type="int" name="NKREDZ">     1</i>
   <i type="logical" name="SHIFTRED"> F  </i>
   <i type="logical" name="ODDONLY"> F  </i>
   <i type="logical" name="EVENONLY"> F  </i>
   <i type="int" name="LMAXFOCK">     0</i>
   <i type="int" name="NMAXFOCKAE">     0</i>
   <i type="logical" name="LFOCKAEDFT"> F  </i>
   <i name="HFSCREEN">      0.00000000</i>
   <i name="HFSCREENC">      0.00000000</i>
   <i type="int" name="NBANDSGWLOW">     0</i>
  </separator>
  <separator name="vdW DFT" >
   <i type="logical" name="LUSE_VDW"> F  </i>
   <i type="int" name="IVDW_NL">    -1</i>
   <i type="logical" name="LSPIN_VDW"> F  </i>
   <i name="ZAB_VDW">     -0.84910000</i>
   <i name="GAMMA_VDW">      1.39626340</i>
   <i name="ALPHA_VDW">      0.00000000</i>
   <i name="PARAM1">      0.12340000</i>
   <i name="PARAM2">      1.00000000</i>
   <i name="BPARAM">      6.30000000</i>
   <i name="CPARAM">      0.00930000</i>
  </separator>
  <separator name="model GW" >
   <i type="int" name="MODEL_GW">     0</i>
   <i name="MODEL_EPS0">      9.71632618</i>
   <i name="MODEL_ALPHA">      1.00000000</i>
  </separator>
  <separator name="linear response parameters" >
   <i type="logical" name="LEPSILON"> F  </i>
   <i type="logical" name="LRPA"> F  </i>
   <i type="logical" name="LNABLA"> F  </i>
   <i type="logical" name="LVEL"> F  </i>
   <i name="CSHIFT">      0.10000000</i>
   <i name="OMEGAMAX">     -1.00000000</i>
   <i name="DEG_THRESHOLD">      0.00200000</i>
   <i name="RTIME">     -0.10000000</i>
   <i name="WPLASMAI">      0.00000000</i>
   <v name="DFIELD">      0.00000000      0.00000000      0.00000000</v>
   <v name="WPLASMA">      0.00000000      0.00000000      0.00000000      0.00000000      0.00000000      0.00000000      0.00000000      0.00000000      0.00000000</v>
  </separator>
  <separator name="orbital magnetization" >
   <i type="logical" name="NUCIND"> F  </i>
   <v name="MAGPOS">      0.00000000      0.00000000      0.00000000</v>
   <i type="logical" name="LNICSALL"> T  </i>
   <i type="logical" name="ORBITALMAG"> F  </i>
   <i type="logical" name="LMAGBLOCH"> F  </i>
   <i type="logical" name="LCHIMAG"> F  </i>
   <i type="logical" name="LGAUGE"> T  </i>
   <i type="int" name="MAGATOM">     0</i>
   <v name="MAGDIPOL">      0.00000000      0.00000000      0.00000000</v>
   <v name="AVECCONST">      0.00000000      0.00000000      0.00000000</v>
  </separator>
  <separator name="response functions" >
   <i type="logical" name="LALL_IN_ONE"> F  </i>
   <i type="int" name="IALL_IN_ONE">    -1</i>
   <i type="int" name="NBANDS_WAVE">    -1</i>
   <i type="logical" name="LFINITE_TEMPERATURE"> F  </i>
   <i type="logical" name="LADDER"> F  </i>
   <i type="logical" name="LRPAFORCE"> F  </i>
   <i type="logical" name="LFXC"> F  </i>
   <i type="logical" name="LHARTREE"> T  </i>
   <i type="int" name="IBSE">     2</i>
   <v type="int" name="KPOINT">    -1     0     0     0</v>
   <i type="logical" name="LTCTC"> F  </i>
   <i type="logical" name="LTCTE"> F  </i>
   <i type="logical" name="LTETE"> F  </i>
   <i type="logical" name="LTRIPLET"> F  </i>
   <i type="logical" name="LFXCEPS"> F  </i>
   <i type="logical" name="LFXHEG"> F  </i>
   <i type="int" name="NATURALO">     2</i>
   <i type="logical" name="LHOLEGF"> F  </i>
   <i type="logical" name="L2ORDER"> F  </i>
   <i type="logical" name="LDMP1"> F  </i>
   <i type="logical" name="LMP2LT"> F  </i>
   <i type="logical" name="LSMP2LT"> F  </i>
   <i type="logical" name="LGWLF"> F  </i>
   <i name="ENCUTGW">     -1.60000002</i>
   <i name="ENCUTGWSOFT">     -1.60000002</i>
   <i name="ENCUTLF">     -1.00000000</i>
   <i type="logical" name="ESF_SPLINES"> F  </i>
   <i name="ESF_CONV">      0.01000000</i>
   <i type="int" name="ESF_NINTER">    15</i>
   <i type="int" name="LMAXMP2">    -1</i>
   <i name="SCISSOR">      0.00000000</i>
   <i type="int" name="NOMEGA">     0</i>
   <i type="int" name="NOMEGAR">     0</i>
   <i type="int" name="NBANDSGW">    -1</i>
   <i type="int" name="NBANDSO">    -1</i>
   <i type="int" name="NBANDSV">    -1</i>
   <i type="int" name="NELMGW">     1</i>
   <i type="int" name="NELMHF">     1</i>
   <i type="int" name="DIM">     3</i>
   <i type="int" name="IESPILON">     4</i>
   <i type="int" name="ANTIRES">     0</i>
   <i name="OMEGAMAX">    -30.00000000</i>
   <i name="OMEGAMIN">    -30.00000000</i>
   <i name="OMEGATL">   -200.00000000</i>
   <i type="int" name="OMEGAGRID">     0</i>
   <i name="CSHIFT">     -0.10000000</i>
   <i type="logical" name="LSELFENERGY"> F  </i>
   <i type="logical" name="LSPECTRAL"> F  </i>
   <i type="logical" name="LSPECTRALGW"> F  </i>
   <i type="logical" name="LSINGLES"> F  </i>
   <i type="logical" name="LFERMIGW"> F  </i>
   <i type="logical" name="ODDONLYGW"> F  </i>
   <i type="logical" name="EVENONLYGW"> F  </i>
   <i type="int" name="NKREDLFX">     1</i>
   <i type="int" name="NKREDLFY">     1</i>
   <i type="int" name="NKREDLFZ">     1</i>
   <i type="int" name="MAXMEM">  2800</i>
   <i type="int" name="TELESCOPE">     0</i>
   <i type="int" name="NTAUPAR">    -1</i>
   <i type="int" name="NOMEGAPAR">    -1</i>
   <i name="DAMP_NEWTON">      0.80000001</i>
   <i name="LAMBDA">      1.00000000</i>
  </separator>
  <separator name="External order field" >
   <i name="OFIELD_KAPPA">      0.00000000</i>
   <v name="OFIELD_K">      0.00000000      0.00000000      0.00000000</v>
   <i name="OFIELD_Q6_NEAR">      0.00000000</i>
   <i name="OFIELD_Q6_FAR">      0.00000000</i>
   <i name="OFIELD_A">      0.00000000</i>
  </separator>
  <separator name="optional k-points parameters" >
   <i type="int" name="KPOINTS_OPT_MODE">     1</i>
   <i type="logical" name="LKPOINTS_OPT"> F  </i>
  </separator>
 </parameters>
 <atominfo>
  <atoms>      16 </atoms>
  <types>       3 </types>
  <array name="atoms" >
   <dimension dim="1">ion</dimension>
   <field type="string">element</field>
   <field type="int">atomtype</field>
   <set>
    <rc><c>Ga</c><c>   1</c></rc>
    <rc><c>Ti</c><c>   2</c></rc>
    <rc><c>Ti</c><c>   2</c></rc>
    <rc><c>Ti</c><c>   2</c></rc>
    <rc><c>Ti</c><c>   2</c></rc>
    <rc><c>Ti</c><c>   2</c></rc>
    <rc><c>Ti</c><c>   2</c></rc>
    <rc><c>Ti</c><c>   2</c></rc>
    <rc><c>Al</c><c>   3</c></rc>
    <rc><c>Al</c><c>   3</c></rc>
    <rc><c>Al</c><c>   3</c></rc>
    <rc><c>Al</c><c>   3</c></rc>
    <rc><c>Al</c><c>   3</c></rc>
    <rc><c>Al</c><c>   3</c></rc>
    <rc><c>Al</c><c>   3</c></rc>
    <rc><c>Al</c><c>   3</c></rc>
   </set>
  </array>
  <array name="atomtypes" >
   <dimension dim="1">type</dimension>
   <field type="int">atomspertype</field>
   <field type="string">element</field>
   <field>mass</field>
   <field>valence</field>
   <field type="string">pseudopotential</field>
   <set>
    <rc><c>   1</c><c>Ga</c><c>     69.72300000</c><c>     13.00000000</c><c>  PAW_PBE Ga_d 06Jul2010                </c></rc>
    <rc><c>   7</c><c>Ti</c><c>     47.88000000</c><c>     12.00000000</c><c>  PAW_PBE Ti_sv 26Sep2005               </c></rc>
    <rc><c>   8</c><c>Al</c><c>     26.98100000</c><c>      3.00000000</c><c>  PAW_PBE Al 04Jan2001                  </c></rc>
   </set>
  </array>
 </atominfo>
 <structure name="initialpos" >
  <crystal>
   <varray name="basis" >
    <v>       5.60695197       0.00000000       0.00000000 </v>
    <v>       0.00000000       5.60695197       0.00000000 </v>
    <v>       0.00000000       0.00000000       8.24170653 </v>
   </varray>
   <i name="volume">    259.10203137 </i>
   <varray name="rec_basis" >
    <v>       0.17835002       0.00000000       0.00000000 </v>
    <v>       0.00000000       0.17835002       0.00000000 </v>
    <v>       0.00000000       0.00000000       0.12133409 </v>
   </varray>
  </crystal>
  <varray name="positions" >
   <v>       0.00000000       0.00000000       0.00000000 </v>
   <v>       0.00000000       0.00000000       0.50000000 </v>
   <v>       0.00000000       0.50000000       0.00000000 </v>
   <v>       0.00000000       0.50000000       0.50000000 </v>
   <v>       0.50000000       0.00000000       0.00000000 </v>
   <v>       0.50000000       0.00000000       0.50000000 </v>
   <v>       0.50000000       0.50000000       0.00000000 </v>
   <v>       0.50000000       0.50000000       0.50000000 </v>
   <v>       0.25094688       0.25094688       0.25207123 </v>
   <v>       0.25094688       0.25094688       0.74792877 </v>
   <v>       0.25094688       0.74905312       0.25207123 </v>
   <v>       0.25094688       0.74905312       0.74792877 </v>
   <v>       0.74905312       0.25094688       0.25207123 </v>
   <v>       0.74905312       0.25094688       0.74792877 </v>
   <v>       0.74905312       0.74905312       0.25207123 </v>
   <v>       0.74905312       0.74905312       0.74792877 </v>
  </varray>
 </structure>
 <calculation>
  <scstep>
   <time name="dav">    3.78    3.78</time>
   <time name="total">    3.79    3.79</time>
   <energy>
    <i name="alphaZ">    315.16450473 </i>
    <i name="ewald">  -8824.03663466 </i>
    <i name="hartreedc">  -4336.18656843 </i>
    <i name="XCdc">    269.62011889 </i>
    <i name="pawpsdc">  10984.71331719 </i>
    <i name="pawaedc"> -10925.53584238 </i>
    <i name="eentropy">     -0.00288864 </i>
    <i name="bandstr">   -329.96642658 </i>
    <i name="atom">  13693.72977468 </i>
    <i name="e_fr_energy">    847.49935481 </i>
    <i name="e_wo_entrp">    847.50224345 </i>
    <i name="e_0_energy">    847.50031769 </i>
   </energy>
  </scstep>
  <scstep>
   <time name="dav">    3.86    3.86</time>
   <time name="total">    3.86    3.86</time>
   <energy>
    <i name="e_fr_energy">    -34.31151455 </i>
    <i name="e_wo_entrp">    -34.30781265 </i>
    <i name="e_0_energy">    -34.31028058 </i>
   </energy>
  </scstep>
  <scstep>
   <time name="dav">   10.86   10.86</time>
   <time name="total">   10.86   10.86</time>
   <energy>
    <i name="e_fr_energy">   -103.14444297 </i>
    <i name="e_wo_entrp">   -103.14090129 </i>
    <i name="e_0_energy">   -103.14326241 </i>
   </energy>
  </scstep>
  <scstep>
   <time name="dav">    4.01    4.01</time>
   <time name="total">    4.01    4.01</time>
   <energy>
    <i name="e_fr_energy">   -105.25471203 </i>
    <i name="e_wo_entrp">   -105.25146106 </i>
    <i name="e_0_energy">   -105.25362837 </i>
   </energy>
  </scstep>
  <scstep>
   <time name="dav">    7.72    7.72</time>
   <time name="total">    7.76    7.76</time>
   <energy>
    <i name="e_fr_energy">   -105.30880814 </i>
    <i name="e_wo_entrp">   -105.30558862 </i>
    <i name="e_0_energy">   -105.30773497 </i>
   </energy>
  </scstep>
  <scstep>
   <time name="dav">    6.11    6.11</time>
   <time name="total">    6.15    6.15</time>
   <energy>
    <i name="e_fr_energy">    -96.51375501 </i>
    <i name="e_wo_entrp">    -96.51210593 </i>
    <i name="e_0_energy">    -96.51320532 </i>
   </energy>
  </scstep>
  <scstep>
   <time name="dav">    5.77    5.77</time>
   <time name="total">    5.81    5.81</time>
   <energy>
    <i name="e_fr_energy">    -97.50779629 </i>
    <i name="e_wo_entrp">    -97.51312175 </i>
    <i name="e_0_energy">    -97.50957144 </i>
   </energy>
  </scstep>
  <scstep>
   <time name="dav">    5.31    5.32</time>
   <time name="total">    5.36    5.36</time>
   <energy>
    <i name="e_fr_energy">    -94.26314216 </i>
    <i name="e_wo_entrp">    -94.25439009 </i>
    <i name="e_0_energy">    -94.26022481 </i>
   </energy>
  </scstep>
  <scstep>
   <time name="dav">    5.51    5.51</time>
   <time name="total">    5.55    5.55</time>
   <energy>
    <i name="e_fr_energy">    -94.15886821 </i>
    <i name="e_wo_entrp">    -94.15576158 </i>
    <i name="e_0_energy">    -94.15783267 </i>
   </energy>
  </scstep>
  <scstep>
   <time name="dav">    4.93    4.93</time>
   <time name="total">    4.97    4.97</time>
   <energy>
    <i name="e_fr_energy">    -93.88440623 </i>
    <i name="e_wo_entrp">    -93.88036411 </i>
    <i name="e_0_energy">    -93.88305886 </i>
   </energy>
  </scstep>
  <scstep>
   <time name="dav">    6.58    6.58</time>
   <time name="total">    6.62    6.62</time>
   <energy>
    <i name="e_fr_energy">    -93.86605904 </i>
    <i name="e_wo_entrp">    -93.86343649 </i>
    <i name="e_0_energy">    -93.86518486 </i>
   </energy>
  </scstep>
  <scstep>
   <time name="dav">    6.08    6.08</time>
   <time name="total">    6.12    6.12</time>
   <energy>
    <i name="e_fr_energy">    -93.82440780 </i>
    <i name="e_wo_entrp">    -93.82081058 </i>
    <i name="e_0_energy">    -93.82320873 </i>
   </energy>
  </scstep>
  <scstep>
   <time name="dav">    6.52    6.52</time>
   <time name="total">    6.56    6.56</time>
   <energy>
    <i name="e_fr_energy">    -93.82681660 </i>
    <i name="e_wo_entrp">    -93.82521569 </i>
    <i name="e_0_energy">    -93.82628296 </i>
   </energy>
  </scstep>
  <scstep>
   <time name="dav">    6.70    6.70</time>
   <time name="total">    6.74    6.74</time>
   <energy>
    <i name="e_fr_energy">    -93.82387674 </i>
    <i name="e_wo_entrp">    -93.82109699 </i>
    <i name="e_0_energy">    -93.82295015 </i>
   </energy>
  </scstep>
  <scstep>
   <time name="dav">    6.31    6.31</time>
   <time name="total">    6.35    6.35</time>
   <energy>
    <i name="e_fr_energy">    -93.82325818 </i>
    <i name="e_wo_entrp">    -93.82049275 </i>
    <i name="e_0_energy">    -93.82233637 </i>
   </energy>
  </scstep>
  <scstep>
   <time name="dav">    5.53    5.53</time>
   <time name="total">    5.57    5.57</time>
   <energy>
    <i name="e_fr_energy">    -93.82324851 </i>
    <i name="e_wo_entrp">    -93.82050539 </i>
    <i name="e_0_energy">    -93.82233414 </i>
   </energy>
  </scstep>
  <scstep>
   <time name="dav">    8.04    8.04</time>
   <time name="total">    8.05    8.05</time>
   <energy>
    <i name="alphaZ">    315.16450473 </i>
    <i name="ewald">  -8824.03663466 </i>
    <i name="hartreedc">  -4134.52909474 </i>
    <i name="XCdc">    262.32887375 </i>
    <i name="pawpsdc">  13515.07002098 </i>
    <i name="pawaedc"> -13434.33798304 </i>
    <i name="eentropy">     -0.00274704 </i>
    <i name="bandstr">  -1487.20995380 </i>
    <i name="atom">  13693.72977468 </i>
    <i name="e_fr_energy">    -93.82323913 </i>
    <i name="e_wo_entrp">    -93.82049209 </i>
    <i name="e_0_energy">    -93.82232345 </i>
   </energy>
  </scstep>
  <structure>
   <crystal>
    <varray name="basis" >
     <v>       5.60695197       0.00000000       0.00000000 </v>
     <v>       0.00000000       5.60695197       0.00000000 </v>
     <v>       0.00000000       0.00000000       8.24170653 </v>
    </varray>
    <i name="volume">    259.10203137 </i>
    <varray name="rec_basis" >
     <v>       0.17835002       0.00000000       0.00000000 </v>
     <v>       0.00000000       0.17835002       0.00000000 </v>
     <v>       0.00000000       0.00000000       0.12133409 </v>
    </varray>
   </crystal>
   <varray name="positions" >
    <v>       0.00000000       0.00000000       0.00000000 </v>
    <v>       0.00000000       0.00000000       0.50000000 </v>
    <v>       0.00000000       0.50000000       0.00000000 </v>
    <v>       0.00000000       0.50000000       0.50000000 </v>
    <v>       0.50000000       0.00000000       0.00000000 </v>
    <v>       0.50000000       0.00000000       0.50000000 </v>
    <v>       0.50000000       0.50000000       0.00000000 </v>
    <v>       0.50000000       0.50000000       0.50000000 </v>
    <v>       0.25094688       0.25094688       0.25207123 </v>
    <v>       0.25094688       0.25094688       0.74792877 </v>
    <v>       0.25094688       0.74905312       0.25207123 </v>
    <v>       0.25094688       0.74905312       0.74792877 </v>
    <v>       0.74905312       0.25094688       0.25207123 </v>
    <v>       0.74905312       0.25094688       0.74792877 </v>
    <v>       0.74905312       0.74905312       0.25207123 </v>
    <v>       0.74905312       0.74905312       0.74792877 </v>
   </varray>
  </structure>
  <varray name="forces" >
   <v>      -0.00000000       0.00000000       0.00000000 </v>
   <v>      -0.00000000       0.00000000       0.00000000 </v>
   <v>      -0.00000000       0.00000000       0.00000000 </v>
   <v>      -0.00000000       0.00000000       0.00000000 </v>
   <v>      -0.00000000       0.00000000       0.00000000 </v>
   <v>      -0.00000000       0.00000000       0.00000000 </v>
   <v>      -0.00000000       0.00000000       0.00000000 </v>
   <v>      -0.00000000       0.00000000       0.00000000 </v>
   <v>       0.00156968       0.00156968       0.00760814 </v>
   <v>       0.00156968       0.00156968      -0.00760814 </v>
   <v>       0.00156968      -0.00156968       0.00760814 </v>
   <v>       0.00156968      -0.00156968      -0.00760814 </v>
   <v>      -0.00156968       0.00156968       0.00760814 </v>
   <v>      -0.00156968       0.00156968      -0.00760814 </v>
   <v>      -0.00156968      -0.00156968       0.00760814 </v>
   <v>      -0.00156968      -0.00156968      -0.00760814 </v>
  </varray>
  <varray name="stress" >
   <v>      -0.29565499       0.00000000       0.00000000 </v>
   <v>       0.00000000      -0.29565499       0.00000000 </v>
   <v>      -0.00000000       0.00000000      -0.08365891 </v>
  </varray>
  <energy>
   <i name="e_fr_energy">    -93.82323913 </i>
   <i name="e_wo_entrp">    -93.82049209 </i>
   <i name="e_0_energy">    -93.82232345 </i>
  </energy>
  <time name="totalsc">  108.51  108.52</time>
  <eigenvalues>
   <array>
    <dimension dim="1">band</dimension>
    <dimension dim="2">kpoint</dimension>
    <dimension dim="3">spin</dimension>
    <field>eigene</field>
    <field>occ</field>
    <set>
     <set comment="spin 1">
      <set comment="kpoint 1">
       <r>  -48.4730    1.0000 </r>
       <r>  -48.4482    1.0000 </r>
       <r>  -48.3854    1.0000 </r>
       <r>  -48.3697    1.0000 </r>
       <r>  -48.3621    1.0000 </r>
       <r>  -48.2260    1.0000 </r>
       <r>  -48.1693    1.0000 </r>
       <r>  -24.8746    1.0000 </r>
       <r>  -24.8746    1.0000 </r>
       <r>  -24.8236    1.0000 </r>
       <r>  -24.8079    1.0000 </r>
       <r>  -24.8079    1.0000 </r>
       <r>  -24.7974    1.0000 </r>
       <r>  -24.7871    1.0000 </r>
       <r>  -24.7801    1.0000 </r>
       <r>  -24.7801    1.0000 </r>
       <r>  -24.7657    1.0000 </r>
       <r>  -24.7330    1.0000 </r>
       <r>  -24.7330    1.0000 </r>
       <r>  -24.7186    1.0000 </r>
       <r>  -24.5885    1.0000 </r>
       <r>  -24.5616    1.0000 </r>
       <r>  -24.3788    1.0000 </r>
       <r>  -24.3788    1.0000 </r>
       <r>  -24.2916    1.0000 </r>
       <r>  -24.2916    1.0000 </r>
       <r>  -24.2301    1.0000 </r>
       <r>  -24.2301    1.0000 </r>
       <r>   -6.5567    1.0000 </r>
       <r>   -6.5531    1.0000 </r>
       <r>   -6.5531    1.0000 </r>
       <r>   -6.5499    1.0000 </r>
       <r>   -6.5068    1.0000 </r>
       <r>   -1.3671    1.0000 </r>
       <r>    0.4074    1.0000 </r>
       <r>    1.4238    1.0000 </r>
       <r>    3.4213    1.0000 </r>
       <r>    3.4213    1.0000 </r>
       <r>    3.4480    1.0000 </r>
       <r>    3.4480    1.0000 </r>
       <r>    3.4609    1.0000 </r>
       <r>    3.7541    1.0000 </r>
       <r>    4.8240    1.0000 </r>
       <r>    5.2296    1.0000 </r>
       <r>    5.2320    1.0000 </r>
       <r>    5.6842    1.0000 </r>
       <r>    6.0681    1.0000 </r>
       <r>    6.1338    1.0000 </r>
       <r>    6.1338    1.0000 </r>
       <r>    6.4232    1.0000 </r>
       <r>    6.4232    1.0000 </r>
       <r>    6.5790    1.0000 </r>
       <r>    6.7536    1.0000 </r>
       <r>    6.7536    1.0000 </r>
       <r>    7.1354    1.0000 </r>
       <r>    7.2815    1.0000 </r>
       <r>    7.4769    1.0000 </r>
       <r>    7.6916    1.0000 </r>
       <r>    7.6916    1.0000 </r>
       <r>    7.7684    1.0000 </r>
       <r>    7.7917    1.0000 </r>
       <r>    8.2514    0.6464 </r>
       <r>    8.3275    0.0872 </r>
       <r>    8.3275    0.0872 </r>
       <r>    8.9492   -0.0000 </r>
       <r>    9.3582   -0.0000 </r>
       <r>    9.6276   -0.0000 </r>
       <r>    9.9011   -0.0000 </r>
       <r>   10.0063   -0.0000 </r>
       <r>   10.0520   -0.0000 </r>
       <r>   10.0550   -0.0000 </r>
       <r>   10.1027   -0.0000 </r>
       <r>   10.2266   -0.0000 </r>
       <r>   10.2266   -0.0000 </r>
       <r>   10.5006    0.0000 </r>
       <r>   10.5006    0.0000 </r>
       <r>   10.5247    0.0000 </r>
       <r>   10.7369    0.0000 </r>
       <r>   10.7369    0.0000 </r>
       <r>   10.8983    0.0000 </r>
       <r>   11.2529    0.0000 </r>
       <r>   11.4184    0.0000 </r>
       <r>   11.4184    0.0000 </r>
       <r>   11.6086    0.0000 </r>
       <r>   11.6086    0.0000 </r>
       <r>   11.6223    0.0000 </r>
       <r>   12.2223    0.0000 </r>
       <r>   12.4844    0.0000 </r>
       <r>   12.5261    0.0000 </r>
       <r>   12.5518    0.0000 </r>
       <r>   12.8535    0.0000 </r>
       <r>   12.8535    0.0000 </r>
       <r>   12.9305    0.0000 </r>
       <r>   13.1531    0.0000 </r>
       <r>   13.1999    0.0000 </r>
       <r>   13.1999    0.0000 </r>
       <r>   13.5716    0.0000 </r>
       <r>   13.6034    0.0000 </r>
       <r>   14.1589    0.0000 </r>
       <r>   14.3529    0.0000 </r>
       <r>   15.6229    0.0000 </r>
       <r>   15.6229    0.0000 </r>
       <r>   15.9984    0.0000 </r>
       <r>   16.2539    0.0000 </r>
       <r>   16.3437    0.0000 </r>
       <r>   16.4163    0.0000 </r>
       <r>   16.4163    0.0000 </r>
       <r>   17.2200    0.0000 </r>
       <r>   17.2288    0.0000 </r>
       <r>   17.5276    0.0000 </r>
       <r>   17.5276    0.0000 </r>
       <r>   18.7058    0.0000 </r>
       <r>   18.7380    0.0000 </r>
       <r>   18.7380    0.0000 </r>
       <r>   19.1510    0.0000 </r>
       <r>   19.2145    0.0000 </r>
       <r>   19.8397    0.0000 </r>
       <r>   19.8397    0.0000 </r>
       <r>   20.3843    0.0000 </r>
       <r>   20.3843    0.0000 </r>
       <r>   20.7337    0.0000 </r>
       <r>   20.7884    0.0000 </r>
       <r>   20.8335    0.0000 </r>
       <r>   20.8335    0.0000 </r>
       <r>   20.8507    0.0000 </r>
       <r>   21.3663    0.0000 </r>
       <r>   21.4129    0.0000 </r>
       <r>   21.4129    0.0000 </r>
      </set>
      <set comment="kpoint 2">
       <r>  -48.4706    1.0000 </r>
       <r>  -48.4483    1.0000 </r>
       <r>  -48.3828    1.0000 </r>
       <r>  -48.3720    1.0000 </r>
       <r>  -48.3623    1.0000 </r>
       <r>  -48.2270    1.0000 </r>
       <r>  -48.1708    1.0000 </r>
       <r>  -24.8729    1.0000 </r>
       <r>  -24.8461    1.0000 </r>
       <r>  -24.8211    1.0000 </r>
       <r>  -24.8036    1.0000 </r>
       <r>  -24.7977    1.0000 </r>
       <r>  -24.7848    1.0000 </r>
       <r>  -24.7817    1.0000 </r>
       <r>  -24.7772    1.0000 </r>
       <r>  -24.7759    1.0000 </r>
       <r>  -24.7660    1.0000 </r>
       <r>  -24.7373    1.0000 </r>
       <r>  -24.7208    1.0000 </r>
       <r>  -24.7036    1.0000 </r>
       <r>  -24.5891    1.0000 </r>
       <r>  -24.5631    1.0000 </r>
       <r>  -24.4122    1.0000 </r>
       <r>  -24.3789    1.0000 </r>
       <r>  -24.3249    1.0000 </r>
       <r>  -24.2897    1.0000 </r>
       <r>  -24.2617    1.0000 </r>
       <r>  -24.2321    1.0000 </r>
       <r>   -6.5561    1.0000 </r>
       <r>   -6.5531    1.0000 </r>
       <r>   -6.5528    1.0000 </r>
       <r>   -6.5476    1.0000 </r>
       <r>   -6.5064    1.0000 </r>
       <r>   -1.2394    1.0000 </r>
       <r>    0.5136    1.0000 </r>
       <r>    1.3626    1.0000 </r>
       <r>    2.4788    1.0000 </r>
       <r>    2.9018    1.0000 </r>
       <r>    3.4985    1.0000 </r>
       <r>    3.5603    1.0000 </r>
       <r>    3.7108    1.0000 </r>
       <r>    4.8476    1.0000 </r>
       <r>    5.0473    1.0000 </r>
       <r>    5.0776    1.0000 </r>
       <r>    5.2387    1.0000 </r>
       <r>    5.6907    1.0000 </r>
       <r>    5.8212    1.0000 </r>
       <r>    5.9550    1.0000 </r>
       <r>    6.1061    1.0000 </r>
       <r>    6.2966    1.0000 </r>
       <r>    6.5934    1.0000 </r>
       <r>    6.7520    1.0000 </r>
       <r>    6.7647    1.0000 </r>
       <r>    6.7889    1.0000 </r>
       <r>    6.8821    1.0000 </r>
       <r>    7.2793    1.0000 </r>
       <r>    7.4227    1.0000 </r>
       <r>    7.5677    1.0000 </r>
       <r>    7.7765    1.0000 </r>
       <r>    7.8245    1.0000 </r>
       <r>    8.0782    1.0106 </r>
       <r>    8.1910    0.9849 </r>
       <r>    8.4297   -0.0227 </r>
       <r>    8.7668   -0.0000 </r>
       <r>    9.0391   -0.0000 </r>
       <r>    9.4413   -0.0000 </r>
       <r>    9.5498   -0.0000 </r>
       <r>    9.7558   -0.0000 </r>
       <r>    9.9536   -0.0000 </r>
       <r>   10.0347   -0.0000 </r>
       <r>   10.0389   -0.0000 </r>
       <r>   10.1498   -0.0000 </r>
       <r>   10.2428   -0.0000 </r>
       <r>   10.2434   -0.0000 </r>
       <r>   10.4986    0.0000 </r>
       <r>   10.5059    0.0000 </r>
       <r>   10.5186    0.0000 </r>
       <r>   10.5528    0.0000 </r>
       <r>   10.7130    0.0000 </r>
       <r>   10.7596    0.0000 </r>
       <r>   10.7642    0.0000 </r>
       <r>   11.3696    0.0000 </r>
       <r>   11.4744    0.0000 </r>
       <r>   11.4924    0.0000 </r>
       <r>   11.6245    0.0000 </r>
       <r>   11.7083    0.0000 </r>
       <r>   12.1561    0.0000 </r>
       <r>   12.2810    0.0000 </r>
       <r>   12.3869    0.0000 </r>
       <r>   12.6639    0.0000 </r>
       <r>   12.9388    0.0000 </r>
       <r>   13.1167    0.0000 </r>
       <r>   13.1308    0.0000 </r>
       <r>   13.2420    0.0000 </r>
       <r>   13.5235    0.0000 </r>
       <r>   13.5975    0.0000 </r>
       <r>   13.7030    0.0000 </r>
       <r>   13.8114    0.0000 </r>
       <r>   14.3292    0.0000 </r>
       <r>   14.4567    0.0000 </r>
       <r>   14.9362    0.0000 </r>
       <r>   15.4995    0.0000 </r>
       <r>   15.5926    0.0000 </r>
       <r>   16.2548    0.0000 </r>
       <r>   16.2747    0.0000 </r>
       <r>   16.5203    0.0000 </r>
       <r>   16.5867    0.0000 </r>
       <r>   17.2555    0.0000 </r>
       <r>   17.3149    0.0000 </r>
       <r>   17.3217    0.0000 </r>
       <r>   17.8130    0.0000 </r>
       <r>   18.5636    0.0000 </r>
       <r>   18.6219    0.0000 </r>
       <r>   18.7909    0.0000 </r>
       <r>   18.8250    0.0000 </r>
       <r>   19.3777    0.0000 </r>
       <r>   19.4940    0.0000 </r>
       <r>   19.5574    0.0000 </r>
       <r>   19.6725    0.0000 </r>
       <r>   19.9759    0.0000 </r>
       <r>   20.0545    0.0000 </r>
       <r>   20.1556    0.0000 </r>
       <r>   20.2349    0.0000 </r>
       <r>   20.4953    0.0000 </r>
       <r>   20.6606    0.0000 </r>
       <r>   20.9134    0.0000 </r>
       <r>   20.9924    0.0000 </r>
       <r>   21.5572    0.0000 </r>
      </set>
      <set comment="kpoint 3">
       <r>  -48.4654    1.0000 </r>
       <r>  -48.4486    1.0000 </r>
       <r>  -48.3770    1.0000 </r>
       <r>  -48.3763    1.0000 </r>
       <r>  -48.3640    1.0000 </r>
       <r>  -48.2289    1.0000 </r>
       <r>  -48.1740    1.0000 </r>
       <r>  -24.8691    1.0000 </r>
       <r>  -24.8155    1.0000 </r>
       <r>  -24.7996    1.0000 </r>
       <r>  -24.7986    1.0000 </r>
       <r>  -24.7926    1.0000 </r>
       <r>  -24.7853    1.0000 </r>
       <r>  -24.7788    1.0000 </r>
       <r>  -24.7677    1.0000 </r>
       <r>  -24.7483    1.0000 </r>
       <r>  -24.7371    1.0000 </r>
       <r>  -24.7256    1.0000 </r>
       <r>  -24.6899    1.0000 </r>
       <r>  -24.6280    1.0000 </r>
       <r>  -24.5902    1.0000 </r>
       <r>  -24.5664    1.0000 </r>
       <r>  -24.5027    1.0000 </r>
       <r>  -24.4114    1.0000 </r>
       <r>  -24.3792    1.0000 </r>
       <r>  -24.3439    1.0000 </r>
       <r>  -24.2856    1.0000 </r>
       <r>  -24.2364    1.0000 </r>
       <r>   -6.5556    1.0000 </r>
       <r>   -6.5530    1.0000 </r>
       <r>   -6.5521    1.0000 </r>
       <r>   -6.5424    1.0000 </r>
       <r>   -6.5057    1.0000 </r>
       <r>   -0.8807    1.0000 </r>
       <r>    0.7941    1.0000 </r>
       <r>    0.8263    1.0000 </r>
       <r>    2.0898    1.0000 </r>
       <r>    2.3187    1.0000 </r>
       <r>    3.7093    1.0000 </r>
       <r>    3.8879    1.0000 </r>
       <r>    4.0557    1.0000 </r>
       <r>    4.4716    1.0000 </r>
       <r>    4.7039    1.0000 </r>
       <r>    5.1473    1.0000 </r>
       <r>    5.2297    1.0000 </r>
       <r>    5.6448    1.0000 </r>
       <r>    5.8863    1.0000 </r>
       <r>    5.9465    1.0000 </r>
       <r>    6.0263    1.0000 </r>
       <r>    6.6072    1.0000 </r>
       <r>    6.6754    1.0000 </r>
       <r>    6.8153    1.0000 </r>
       <r>    6.9529    1.0000 </r>
       <r>    7.0207    1.0000 </r>
       <r>    7.2913    1.0000 </r>
       <r>    7.2933    1.0000 </r>
       <r>    7.5571    1.0000 </r>
       <r>    7.7042    1.0000 </r>
       <r>    7.7770    1.0000 </r>
       <r>    7.8857    1.0000 </r>
       <r>    8.1061    1.0217 </r>
       <r>    8.4856   -0.0045 </r>
       <r>    8.6476   -0.0000 </r>
       <r>    8.8568   -0.0000 </r>
       <r>    9.0901   -0.0000 </r>
       <r>    9.2160   -0.0000 </r>
       <r>    9.2899   -0.0000 </r>
       <r>    9.4483   -0.0000 </r>
       <r>    9.6160   -0.0000 </r>
       <r>    9.9097   -0.0000 </r>
       <r>   10.0233   -0.0000 </r>
       <r>   10.1539   -0.0000 </r>
       <r>   10.1591   -0.0000 </r>
       <r>   10.2369   -0.0000 </r>
       <r>   10.3048    0.0000 </r>
       <r>   10.3901    0.0000 </r>
       <r>   10.4997    0.0000 </r>
       <r>   10.5649    0.0000 </r>
       <r>   10.6364    0.0000 </r>
       <r>   10.6500    0.0000 </r>
       <r>   11.1498    0.0000 </r>
       <r>   11.1586    0.0000 </r>
       <r>   11.1676    0.0000 </r>
       <r>   11.2136    0.0000 </r>
       <r>   11.5623    0.0000 </r>
       <r>   11.7124    0.0000 </r>
       <r>   12.1354    0.0000 </r>
       <r>   12.2078    0.0000 </r>
       <r>   12.2590    0.0000 </r>
       <r>   12.9616    0.0000 </r>
       <r>   13.1902    0.0000 </r>
       <r>   13.3511    0.0000 </r>
       <r>   13.4163    0.0000 </r>
       <r>   13.7459    0.0000 </r>
       <r>   13.8921    0.0000 </r>
       <r>   13.9895    0.0000 </r>
       <r>   14.1374    0.0000 </r>
       <r>   14.2710    0.0000 </r>
       <r>   14.3784    0.0000 </r>
       <r>   14.6924    0.0000 </r>
       <r>   14.9364    0.0000 </r>
       <r>   14.9872    0.0000 </r>
       <r>   15.5004    0.0000 </r>
       <r>   15.9116    0.0000 </r>
       <r>   16.4629    0.0000 </r>
       <r>   16.5145    0.0000 </r>
       <r>   16.5569    0.0000 </r>
       <r>   17.1887    0.0000 </r>
       <r>   17.4026    0.0000 </r>
       <r>   17.4250    0.0000 </r>
       <r>   17.5235    0.0000 </r>
       <r>   17.7147    0.0000 </r>
       <r>   17.8485    0.0000 </r>
       <r>   18.0781    0.0000 </r>
       <r>   18.1626    0.0000 </r>
       <r>   18.6039    0.0000 </r>
       <r>   18.9252    0.0000 </r>
       <r>   19.0031    0.0000 </r>
       <r>   19.2162    0.0000 </r>
       <r>   19.2809    0.0000 </r>
       <r>   19.3791    0.0000 </r>
       <r>   19.8786    0.0000 </r>
       <r>   20.3588    0.0000 </r>
       <r>   20.5957    0.0000 </r>
       <r>   20.6035    0.0000 </r>
       <r>   20.6485    0.0000 </r>
       <r>   21.1915    0.0000 </r>
       <r>   21.3045    0.0000 </r>
      </set>
      <set comment="kpoint 4">
       <r>  -48.4624    1.0000 </r>
       <r>  -48.4489    1.0000 </r>
       <r>  -48.3797    1.0000 </r>
       <r>  -48.3699    1.0000 </r>
       <r>  -48.3679    1.0000 </r>
       <r>  -48.2298    1.0000 </r>
       <r>  -48.1756    1.0000 </r>
       <r>  -24.8671    1.0000 </r>
       <r>  -24.8121    1.0000 </r>
       <r>  -24.7995    1.0000 </r>
       <r>  -24.7934    1.0000 </r>
       <r>  -24.7873    1.0000 </r>
       <r>  -24.7840    1.0000 </r>
       <r>  -24.7723    1.0000 </r>
       <r>  -24.7721    1.0000 </r>
       <r>  -24.7568    1.0000 </r>
       <r>  -24.7282    1.0000 </r>
       <r>  -24.6285    1.0000 </r>
       <r>  -24.6195    1.0000 </r>
       <r>  -24.5923    1.0000 </r>
       <r>  -24.5911    1.0000 </r>
       <r>  -24.5907    1.0000 </r>
       <r>  -24.5682    1.0000 </r>
       <r>  -24.4785    1.0000 </r>
       <r>  -24.4148    1.0000 </r>
       <r>  -24.3794    1.0000 </r>
       <r>  -24.2832    1.0000 </r>
       <r>  -24.2389    1.0000 </r>
       <r>   -6.5555    1.0000 </r>
       <r>   -6.5530    1.0000 </r>
       <r>   -6.5518    1.0000 </r>
       <r>   -6.5397    1.0000 </r>
       <r>   -6.5053    1.0000 </r>
       <r>   -0.5373    1.0000 </r>
       <r>    0.2811    1.0000 </r>
       <r>    1.2208    1.0000 </r>
       <r>    1.5142    1.0000 </r>
       <r>    2.4940    1.0000 </r>
       <r>    3.8948    1.0000 </r>
       <r>    3.9060    1.0000 </r>
       <r>    4.2916    1.0000 </r>
       <r>    4.4417    1.0000 </r>
       <r>    4.5960    1.0000 </r>
       <r>    4.7929    1.0000 </r>
       <r>    4.8457    1.0000 </r>
       <r>    5.3544    1.0000 </r>
       <r>    5.7591    1.0000 </r>
       <r>    5.9767    1.0000 </r>
       <r>    6.6459    1.0000 </r>
       <r>    6.6630    1.0000 </r>
       <r>    6.7364    1.0000 </r>
       <r>    7.0852    1.0000 </r>
       <r>    7.0990    1.0000 </r>
       <r>    7.2301    1.0000 </r>
       <r>    7.3200    1.0000 </r>
       <r>    7.4831    1.0000 </r>
       <r>    7.6794    1.0000 </r>
       <r>    7.8345    1.0000 </r>
       <r>    7.9470    1.0000 </r>
       <r>    7.9784    1.0002 </r>
       <r>    8.2959    0.2817 </r>
       <r>    8.4707   -0.0076 </r>
       <r>    8.4931   -0.0034 </r>
       <r>    8.8912   -0.0000 </r>
       <r>    8.8966   -0.0000 </r>
       <r>    9.0514   -0.0000 </r>
       <r>    9.1030   -0.0000 </r>
       <r>    9.1927   -0.0000 </r>
       <r>    9.5446   -0.0000 </r>
       <r>    9.6245   -0.0000 </r>
       <r>    9.9297   -0.0000 </r>
       <r>   10.0981   -0.0000 </r>
       <r>   10.1349   -0.0000 </r>
       <r>   10.1729   -0.0000 </r>
       <r>   10.3477    0.0000 </r>
       <r>   10.4918    0.0000 </r>
       <r>   10.6151    0.0000 </r>
       <r>   10.6416    0.0000 </r>
       <r>   10.7388    0.0000 </r>
       <r>   10.7716    0.0000 </r>
       <r>   10.9345    0.0000 </r>
       <r>   10.9521    0.0000 </r>
       <r>   11.0030    0.0000 </r>
       <r>   11.1249    0.0000 </r>
       <r>   11.4043    0.0000 </r>
       <r>   11.8281    0.0000 </r>
       <r>   11.8509    0.0000 </r>
       <r>   12.2889    0.0000 </r>
       <r>   12.3268    0.0000 </r>
       <r>   12.7766    0.0000 </r>
       <r>   13.3126    0.0000 </r>
       <r>   13.3698    0.0000 </r>
       <r>   13.5026    0.0000 </r>
       <r>   14.0701    0.0000 </r>
       <r>   14.4677    0.0000 </r>
       <r>   14.5794    0.0000 </r>
       <r>   14.6175    0.0000 </r>
       <r>   14.7521    0.0000 </r>
       <r>   14.8040    0.0000 </r>
       <r>   14.8257    0.0000 </r>
       <r>   14.9946    0.0000 </r>
       <r>   15.4158    0.0000 </r>
       <r>   15.4223    0.0000 </r>
       <r>   15.7052    0.0000 </r>
       <r>   15.7416    0.0000 </r>
       <r>   16.1007    0.0000 </r>
       <r>   16.2317    0.0000 </r>
       <r>   16.2987    0.0000 </r>
       <r>   16.5505    0.0000 </r>
       <r>   16.6891    0.0000 </r>
       <r>   17.3675    0.0000 </r>
       <r>   17.9489    0.0000 </r>
       <r>   17.9966    0.0000 </r>
       <r>   18.2294    0.0000 </r>
       <r>   18.3121    0.0000 </r>
       <r>   18.4406    0.0000 </r>
       <r>   18.8955    0.0000 </r>
       <r>   19.1268    0.0000 </r>
       <r>   19.1880    0.0000 </r>
       <r>   19.1931    0.0000 </r>
       <r>   19.2110    0.0000 </r>
       <r>   19.3179    0.0000 </r>
       <r>   19.5935    0.0000 </r>
       <r>   19.7120    0.0000 </r>
       <r>   21.2481    0.0000 </r>
       <r>   21.2774    0.0000 </r>
       <r>   21.3728    0.0000 </r>
       <r>   21.4131    0.0000 </r>
      </set>
      <set comment="kpoint 5">
       <r>  -48.4681    1.0000 </r>
       <r>  -48.4484    1.0000 </r>
       <r>  -48.3803    1.0000 </r>
       <r>  -48.3744    1.0000 </r>
       <r>  -48.3623    1.0000 </r>
       <r>  -48.2281    1.0000 </r>
       <r>  -48.1723    1.0000 </r>
       <r>  -24.8448    1.0000 </r>
       <r>  -24.8427    1.0000 </r>
       <r>  -24.8186    1.0000 </r>
       <r>  -24.7979    1.0000 </r>
       <r>  -24.7825    1.0000 </r>
       <r>  -24.7816    1.0000 </r>
       <r>  -24.7772    1.0000 </r>
       <r>  -24.7723    1.0000 </r>
       <r>  -24.7713    1.0000 </r>
       <r>  -24.7661    1.0000 </r>
       <r>  -24.7232    1.0000 </r>
       <r>  -24.7096    1.0000 </r>
       <r>  -24.7059    1.0000 </r>
       <r>  -24.5899    1.0000 </r>
       <r>  -24.5646    1.0000 </r>
       <r>  -24.4134    1.0000 </r>
       <r>  -24.4114    1.0000 </r>
       <r>  -24.3245    1.0000 </r>
       <r>  -24.3214    1.0000 </r>
       <r>  -24.2638    1.0000 </r>
       <r>  -24.2636    1.0000 </r>
       <r>   -6.5553    1.0000 </r>
       <r>   -6.5528    1.0000 </r>
       <r>   -6.5528    1.0000 </r>
       <r>   -6.5456    1.0000 </r>
       <r>   -6.5061    1.0000 </r>
       <r>   -1.1131    1.0000 </r>
       <r>    0.6198    1.0000 </r>
       <r>    1.3527    1.0000 </r>
       <r>    2.3771    1.0000 </r>
       <r>    2.7560    1.0000 </r>
       <r>    2.9370    1.0000 </r>
       <r>    3.0898    1.0000 </r>
       <r>    4.5625    1.0000 </r>
       <r>    4.7244    1.0000 </r>
       <r>    5.0245    1.0000 </r>
       <r>    5.1868    1.0000 </r>
       <r>    5.3781    1.0000 </r>
       <r>    5.7162    1.0000 </r>
       <r>    5.8484    1.0000 </r>
       <r>    5.8569    1.0000 </r>
       <r>    6.1120    1.0000 </r>
       <r>    6.3228    1.0000 </r>
       <r>    6.4333    1.0000 </r>
       <r>    6.7643    1.0000 </r>
       <r>    6.8449    1.0000 </r>
       <r>    6.9165    1.0000 </r>
       <r>    7.2479    1.0000 </r>
       <r>    7.3443    1.0000 </r>
       <r>    7.4307    1.0000 </r>
       <r>    7.6257    1.0000 </r>
       <r>    7.8178    1.0000 </r>
       <r>    7.9442    1.0000 </r>
       <r>    8.0679    1.0077 </r>
       <r>    8.1705    1.0235 </r>
       <r>    8.4341   -0.0207 </r>
       <r>    8.9400   -0.0000 </r>
       <r>    9.1540   -0.0000 </r>
       <r>    9.4004   -0.0000 </r>
       <r>    9.5008   -0.0000 </r>
       <r>    9.7850   -0.0000 </r>
       <r>    9.8714   -0.0000 </r>
       <r>    9.9171   -0.0000 </r>
       <r>   10.0086   -0.0000 </r>
       <r>   10.0284   -0.0000 </r>
       <r>   10.1810   -0.0000 </r>
       <r>   10.2281   -0.0000 </r>
       <r>   10.2927    0.0000 </r>
       <r>   10.2943    0.0000 </r>
       <r>   10.4450    0.0000 </r>
       <r>   10.4506    0.0000 </r>
       <r>   10.6563    0.0000 </r>
       <r>   10.8713    0.0000 </r>
       <r>   10.8834    0.0000 </r>
       <r>   11.1498    0.0000 </r>
       <r>   11.3495    0.0000 </r>
       <r>   11.5136    0.0000 </r>
       <r>   11.6569    0.0000 </r>
       <r>   11.7756    0.0000 </r>
       <r>   12.1464    0.0000 </r>
       <r>   12.4329    0.0000 </r>
       <r>   12.4756    0.0000 </r>
       <r>   12.7050    0.0000 </r>
       <r>   12.7792    0.0000 </r>
       <r>   12.9417    0.0000 </r>
       <r>   13.2356    0.0000 </r>
       <r>   13.3247    0.0000 </r>
       <r>   13.7974    0.0000 </r>
       <r>   13.9728    0.0000 </r>
       <r>   13.9821    0.0000 </r>
       <r>   14.0068    0.0000 </r>
       <r>   14.4698    0.0000 </r>
       <r>   14.6380    0.0000 </r>
       <r>   14.6753    0.0000 </r>
       <r>   15.2698    0.0000 </r>
       <r>   15.6393    0.0000 </r>
       <r>   16.0602    0.0000 </r>
       <r>   16.3522    0.0000 </r>
       <r>   16.4193    0.0000 </r>
       <r>   16.5167    0.0000 </r>
       <r>   16.9670    0.0000 </r>
       <r>   16.9980    0.0000 </r>
       <r>   17.3517    0.0000 </r>
       <r>   17.6811    0.0000 </r>
       <r>   18.2071    0.0000 </r>
       <r>   18.3090    0.0000 </r>
       <r>   18.3337    0.0000 </r>
       <r>   18.4281    0.0000 </r>
       <r>   18.8606    0.0000 </r>
       <r>   19.2626    0.0000 </r>
       <r>   19.5914    0.0000 </r>
       <r>   19.7619    0.0000 </r>
       <r>   19.7912    0.0000 </r>
       <r>   20.0069    0.0000 </r>
       <r>   20.1003    0.0000 </r>
       <r>   20.6328    0.0000 </r>
       <r>   21.0440    0.0000 </r>
       <r>   21.1387    0.0000 </r>
       <r>   21.1528    0.0000 </r>
       <r>   21.5525    0.0000 </r>
       <r>   21.5865    0.0000 </r>
      </set>
      <set comment="kpoint 6">
       <r>  -48.4626    1.0000 </r>
       <r>  -48.4486    1.0000 </r>
       <r>  -48.3798    1.0000 </r>
       <r>  -48.3741    1.0000 </r>
       <r>  -48.3634    1.0000 </r>
       <r>  -48.2305    1.0000 </r>
       <r>  -48.1754    1.0000 </r>
       <r>  -24.8385    1.0000 </r>
       <r>  -24.8128    1.0000 </r>
       <r>  -24.7986    1.0000 </r>
       <r>  -24.7980    1.0000 </r>
       <r>  -24.7836    1.0000 </r>
       <r>  -24.7770    1.0000 </r>
       <r>  -24.7673    1.0000 </r>
       <r>  -24.7612    1.0000 </r>
       <r>  -24.7393    1.0000 </r>
       <r>  -24.7283    1.0000 </r>
       <r>  -24.7185    1.0000 </r>
       <r>  -24.6861    1.0000 </r>
       <r>  -24.6314    1.0000 </r>
       <r>  -24.5913    1.0000 </r>
       <r>  -24.5677    1.0000 </r>
       <r>  -24.5030    1.0000 </r>
       <r>  -24.4127    1.0000 </r>
       <r>  -24.4098    1.0000 </r>
       <r>  -24.3460    1.0000 </r>
       <r>  -24.3185    1.0000 </r>
       <r>  -24.2682    1.0000 </r>
       <r>   -6.5543    1.0000 </r>
       <r>   -6.5527    1.0000 </r>
       <r>   -6.5521    1.0000 </r>
       <r>   -6.5408    1.0000 </r>
       <r>   -6.5054    1.0000 </r>
       <r>   -0.7595    1.0000 </r>
       <r>    0.9006    1.0000 </r>
       <r>    0.9324    1.0000 </r>
       <r>    2.1747    1.0000 </r>
       <r>    2.1917    1.0000 </r>
       <r>    3.0264    1.0000 </r>
       <r>    3.3424    1.0000 </r>
       <r>    3.8495    1.0000 </r>
       <r>    4.5071    1.0000 </r>
       <r>    4.5604    1.0000 </r>
       <r>    5.2974    1.0000 </r>
       <r>    5.6183    1.0000 </r>
       <r>    5.9315    1.0000 </r>
       <r>    6.0574    1.0000 </r>
       <r>    6.2030    1.0000 </r>
       <r>    6.3543    1.0000 </r>
       <r>    6.5334    1.0000 </r>
       <r>    6.6538    1.0000 </r>
       <r>    6.9761    1.0000 </r>
       <r>    7.0104    1.0000 </r>
       <r>    7.0856    1.0000 </r>
       <r>    7.2719    1.0000 </r>
       <r>    7.5637    1.0000 </r>
       <r>    7.6014    1.0000 </r>
       <r>    7.8058    1.0000 </r>
       <r>    7.8931    1.0000 </r>
       <r>    7.9292    1.0000 </r>
       <r>    8.1004    1.0191 </r>
       <r>    8.3803   -0.0332 </r>
       <r>    8.6250   -0.0000 </r>
       <r>    8.9430   -0.0000 </r>
       <r>    9.1173   -0.0000 </r>
       <r>    9.2169   -0.0000 </r>
       <r>    9.4258   -0.0000 </r>
       <r>    9.4642   -0.0000 </r>
       <r>    9.5124   -0.0000 </r>
       <r>    9.6874   -0.0000 </r>
       <r>    9.8038   -0.0000 </r>
       <r>    9.9960   -0.0000 </r>
       <r>   10.0044   -0.0000 </r>
       <r>   10.1674   -0.0000 </r>
       <r>   10.2128   -0.0000 </r>
       <r>   10.2564   -0.0000 </r>
       <r>   10.3176    0.0000 </r>
       <r>   10.3470    0.0000 </r>
       <r>   10.6356    0.0000 </r>
       <r>   10.8352    0.0000 </r>
       <r>   10.9282    0.0000 </r>
       <r>   10.9976    0.0000 </r>
       <r>   11.3026    0.0000 </r>
       <r>   11.4428    0.0000 </r>
       <r>   11.7717    0.0000 </r>
       <r>   12.0039    0.0000 </r>
       <r>   12.0085    0.0000 </r>
       <r>   12.2752    0.0000 </r>
       <r>   12.3321    0.0000 </r>
       <r>   13.0541    0.0000 </r>
       <r>   13.1515    0.0000 </r>
       <r>   13.1705    0.0000 </r>
       <r>   13.2939    0.0000 </r>
       <r>   13.6031    0.0000 </r>
       <r>   13.6822    0.0000 </r>
       <r>   14.2419    0.0000 </r>
       <r>   14.2761    0.0000 </r>
       <r>   14.2866    0.0000 </r>
       <r>   14.4703    0.0000 </r>
       <r>   14.6006    0.0000 </r>
       <r>   15.0940    0.0000 </r>
       <r>   15.3189    0.0000 </r>
       <r>   15.8276    0.0000 </r>
       <r>   16.1029    0.0000 </r>
       <r>   16.1202    0.0000 </r>
       <r>   16.2002    0.0000 </r>
       <r>   16.4051    0.0000 </r>
       <r>   16.6649    0.0000 </r>
       <r>   16.9768    0.0000 </r>
       <r>   17.0558    0.0000 </r>
       <r>   17.2715    0.0000 </r>
       <r>   17.3706    0.0000 </r>
       <r>   17.4883    0.0000 </r>
       <r>   17.6996    0.0000 </r>
       <r>   17.9390    0.0000 </r>
       <r>   18.6176    0.0000 </r>
       <r>   18.9909    0.0000 </r>
       <r>   19.2262    0.0000 </r>
       <r>   19.2883    0.0000 </r>
       <r>   19.8176    0.0000 </r>
       <r>   20.0344    0.0000 </r>
       <r>   20.2479    0.0000 </r>
       <r>   20.4170    0.0000 </r>
       <r>   20.6873    0.0000 </r>
       <r>   20.8525    0.0000 </r>
       <r>   21.2401    0.0000 </r>
       <r>   21.3154    0.0000 </r>
       <r>   21.6748    0.0000 </r>
      </set>
      <set comment="kpoint 7">
       <r>  -48.4595    1.0000 </r>
       <r>  -48.4489    1.0000 </r>
       <r>  -48.3827    1.0000 </r>
       <r>  -48.3683    1.0000 </r>
       <r>  -48.3667    1.0000 </r>
       <r>  -48.2316    1.0000 </r>
       <r>  -48.1769    1.0000 </r>
       <r>  -24.8353    1.0000 </r>
       <r>  -24.8093    1.0000 </r>
       <r>  -24.7994    1.0000 </r>
       <r>  -24.7950    1.0000 </r>
       <r>  -24.7845    1.0000 </r>
       <r>  -24.7711    1.0000 </r>
       <r>  -24.7709    1.0000 </r>
       <r>  -24.7529    1.0000 </r>
       <r>  -24.7311    1.0000 </r>
       <r>  -24.7267    1.0000 </r>
       <r>  -24.6298    1.0000 </r>
       <r>  -24.6195    1.0000 </r>
       <r>  -24.5920    1.0000 </r>
       <r>  -24.5911    1.0000 </r>
       <r>  -24.5891    1.0000 </r>
       <r>  -24.5694    1.0000 </r>
       <r>  -24.4805    1.0000 </r>
       <r>  -24.4161    1.0000 </r>
       <r>  -24.4128    1.0000 </r>
       <r>  -24.3161    1.0000 </r>
       <r>  -24.2708    1.0000 </r>
       <r>   -6.5541    1.0000 </r>
       <r>   -6.5526    1.0000 </r>
       <r>   -6.5518    1.0000 </r>
       <r>   -6.5382    1.0000 </r>
       <r>   -6.5051    1.0000 </r>
       <r>   -0.4263    1.0000 </r>
       <r>    0.4129    1.0000 </r>
       <r>    1.3275    1.0000 </r>
       <r>    1.6176    1.0000 </r>
       <r>    2.3414    1.0000 </r>
       <r>    3.3480    1.0000 </r>
       <r>    3.4637    1.0000 </r>
       <r>    3.8246    1.0000 </r>
       <r>    3.8755    1.0000 </r>
       <r>    4.0905    1.0000 </r>
       <r>    5.5178    1.0000 </r>
       <r>    5.7609    1.0000 </r>
       <r>    5.8224    1.0000 </r>
       <r>    6.0902    1.0000 </r>
       <r>    6.2599    1.0000 </r>
       <r>    6.3792    1.0000 </r>
       <r>    6.7744    1.0000 </r>
       <r>    6.8194    1.0000 </r>
       <r>    7.1272    1.0000 </r>
       <r>    7.2661    1.0000 </r>
       <r>    7.2896    1.0000 </r>
       <r>    7.4518    1.0000 </r>
       <r>    7.5561    1.0000 </r>
       <r>    7.6529    1.0000 </r>
       <r>    7.9334    1.0000 </r>
       <r>    8.0342    1.0022 </r>
       <r>    8.0741    1.0094 </r>
       <r>    8.3080    0.1961 </r>
       <r>    8.3931   -0.0354 </r>
       <r>    8.4347   -0.0205 </r>
       <r>    8.8589   -0.0000 </r>
       <r>    8.9034   -0.0000 </r>
       <r>    9.2237   -0.0000 </r>
       <r>    9.2282   -0.0000 </r>
       <r>    9.3634   -0.0000 </r>
       <r>    9.3813   -0.0000 </r>
       <r>    9.5203   -0.0000 </r>
       <r>    9.6174   -0.0000 </r>
       <r>    9.8445   -0.0000 </r>
       <r>    9.9608   -0.0000 </r>
       <r>   10.1677   -0.0000 </r>
       <r>   10.1990   -0.0000 </r>
       <r>   10.1992   -0.0000 </r>
       <r>   10.3789    0.0000 </r>
       <r>   10.5840    0.0000 </r>
       <r>   10.6111    0.0000 </r>
       <r>   10.6598    0.0000 </r>
       <r>   10.7919    0.0000 </r>
       <r>   11.0404    0.0000 </r>
       <r>   11.3021    0.0000 </r>
       <r>   11.3967    0.0000 </r>
       <r>   11.7628    0.0000 </r>
       <r>   11.9029    0.0000 </r>
       <r>   12.0691    0.0000 </r>
       <r>   12.0711    0.0000 </r>
       <r>   12.4109    0.0000 </r>
       <r>   12.8336    0.0000 </r>
       <r>   13.2926    0.0000 </r>
       <r>   13.4332    0.0000 </r>
       <r>   13.7035    0.0000 </r>
       <r>   13.8845    0.0000 </r>
       <r>   13.9159    0.0000 </r>
       <r>   14.3333    0.0000 </r>
       <r>   14.3341    0.0000 </r>
       <r>   14.5689    0.0000 </r>
       <r>   14.6028    0.0000 </r>
       <r>   14.7029    0.0000 </r>
       <r>   14.8928    0.0000 </r>
       <r>   15.1629    0.0000 </r>
       <r>   15.4959    0.0000 </r>
       <r>   15.8083    0.0000 </r>
       <r>   15.9195    0.0000 </r>
       <r>   16.4691    0.0000 </r>
       <r>   16.5422    0.0000 </r>
       <r>   16.5589    0.0000 </r>
       <r>   16.9921    0.0000 </r>
       <r>   17.0760    0.0000 </r>
       <r>   17.0928    0.0000 </r>
       <r>   17.2246    0.0000 </r>
       <r>   17.2344    0.0000 </r>
       <r>   17.4435    0.0000 </r>
       <r>   18.0043    0.0000 </r>
       <r>   18.3209    0.0000 </r>
       <r>   18.6518    0.0000 </r>
       <r>   19.0337    0.0000 </r>
       <r>   19.1026    0.0000 </r>
       <r>   19.1097    0.0000 </r>
       <r>   19.8979    0.0000 </r>
       <r>   20.1639    0.0000 </r>
       <r>   20.3352    0.0000 </r>
       <r>   20.6831    0.0000 </r>
       <r>   20.9248    0.0000 </r>
       <r>   21.0501    0.0000 </r>
       <r>   21.2855    0.0000 </r>
       <r>   21.6074    0.0000 </r>
      </set>
      <set comment="kpoint 8">
       <r>  -48.4565    1.0000 </r>
       <r>  -48.4487    1.0000 </r>
       <r>  -48.3859    1.0000 </r>
       <r>  -48.3691    1.0000 </r>
       <r>  -48.3627    1.0000 </r>
       <r>  -48.2336    1.0000 </r>
       <r>  -48.1781    1.0000 </r>
       <r>  -24.8068    1.0000 </r>
       <r>  -24.7988    1.0000 </r>
       <r>  -24.7982    1.0000 </r>
       <r>  -24.7846    1.0000 </r>
       <r>  -24.7727    1.0000 </r>
       <r>  -24.7669    1.0000 </r>
       <r>  -24.7477    1.0000 </r>
       <r>  -24.7417    1.0000 </r>
       <r>  -24.7342    1.0000 </r>
       <r>  -24.6791    1.0000 </r>
       <r>  -24.6740    1.0000 </r>
       <r>  -24.6460    1.0000 </r>
       <r>  -24.6351    1.0000 </r>
       <r>  -24.5936    1.0000 </r>
       <r>  -24.5704    1.0000 </r>
       <r>  -24.5065    1.0000 </r>
       <r>  -24.5004    1.0000 </r>
       <r>  -24.4097    1.0000 </r>
       <r>  -24.4025    1.0000 </r>
       <r>  -24.3504    1.0000 </r>
       <r>  -24.3500    1.0000 </r>
       <r>   -6.5526    1.0000 </r>
       <r>   -6.5520    1.0000 </r>
       <r>   -6.5520    1.0000 </r>
       <r>   -6.5368    1.0000 </r>
       <r>   -6.5048    1.0000 </r>
       <r>   -0.4260    1.0000 </r>
       <r>    1.0723    1.0000 </r>
       <r>    1.2444    1.0000 </r>
       <r>    1.6170    1.0000 </r>
       <r>    2.3923    1.0000 </r>
       <r>    2.6441    1.0000 </r>
       <r>    2.7791    1.0000 </r>
       <r>    3.2952    1.0000 </r>
       <r>    3.7217    1.0000 </r>
       <r>    4.7850    1.0000 </r>
       <r>    4.9605    1.0000 </r>
       <r>    5.8179    1.0000 </r>
       <r>    6.3911    1.0000 </r>
       <r>    6.5815    1.0000 </r>
       <r>    6.6281    1.0000 </r>
       <r>    6.8478    1.0000 </r>
       <r>    6.9728    1.0000 </r>
       <r>    6.9803    1.0000 </r>
       <r>    7.1426    1.0000 </r>
       <r>    7.1967    1.0000 </r>
       <r>    7.3114    1.0000 </r>
       <r>    7.3489    1.0000 </r>
       <r>    7.6461    1.0000 </r>
       <r>    7.8108    1.0000 </r>
       <r>    7.9191    1.0000 </r>
       <r>    7.9414    1.0000 </r>
       <r>    8.0835    1.0124 </r>
       <r>    8.3166    0.1434 </r>
       <r>    8.3697   -0.0259 </r>
       <r>    8.6372   -0.0000 </r>
       <r>    8.7801   -0.0000 </r>
       <r>    9.0734   -0.0000 </r>
       <r>    9.2285   -0.0000 </r>
       <r>    9.2477   -0.0000 </r>
       <r>    9.4365   -0.0000 </r>
       <r>    9.5732   -0.0000 </r>
       <r>    9.5983   -0.0000 </r>
       <r>    9.6188   -0.0000 </r>
       <r>    9.7583   -0.0000 </r>
       <r>    9.8637   -0.0000 </r>
       <r>    9.9408   -0.0000 </r>
       <r>    9.9601   -0.0000 </r>
       <r>    9.9906   -0.0000 </r>
       <r>   10.0556   -0.0000 </r>
       <r>   10.1297   -0.0000 </r>
       <r>   10.3328    0.0000 </r>
       <r>   10.6129    0.0000 </r>
       <r>   10.7799    0.0000 </r>
       <r>   11.0820    0.0000 </r>
       <r>   11.3413    0.0000 </r>
       <r>   11.7029    0.0000 </r>
       <r>   11.7773    0.0000 </r>
       <r>   12.1765    0.0000 </r>
       <r>   12.1977    0.0000 </r>
       <r>   12.5040    0.0000 </r>
       <r>   12.7053    0.0000 </r>
       <r>   12.8099    0.0000 </r>
       <r>   12.9546    0.0000 </r>
       <r>   13.3091    0.0000 </r>
       <r>   13.4210    0.0000 </r>
       <r>   13.6464    0.0000 </r>
       <r>   13.7177    0.0000 </r>
       <r>   14.1008    0.0000 </r>
       <r>   14.3402    0.0000 </r>
       <r>   14.3451    0.0000 </r>
       <r>   14.5956    0.0000 </r>
       <r>   14.6767    0.0000 </r>
       <r>   14.7980    0.0000 </r>
       <r>   15.2527    0.0000 </r>
       <r>   15.4287    0.0000 </r>
       <r>   15.5475    0.0000 </r>
       <r>   15.6021    0.0000 </r>
       <r>   15.7078    0.0000 </r>
       <r>   15.7689    0.0000 </r>
       <r>   16.3802    0.0000 </r>
       <r>   16.7876    0.0000 </r>
       <r>   17.1380    0.0000 </r>
       <r>   17.1622    0.0000 </r>
       <r>   17.7089    0.0000 </r>
       <r>   17.7108    0.0000 </r>
       <r>   17.8706    0.0000 </r>
       <r>   18.3282    0.0000 </r>
       <r>   18.8502    0.0000 </r>
       <r>   19.2162    0.0000 </r>
       <r>   19.3411    0.0000 </r>
       <r>   19.4415    0.0000 </r>
       <r>   19.9975    0.0000 </r>
       <r>   20.1087    0.0000 </r>
       <r>   20.1255    0.0000 </r>
       <r>   20.4344    0.0000 </r>
       <r>   20.5043    0.0000 </r>
       <r>   20.6764    0.0000 </r>
       <r>   21.1007    0.0000 </r>
       <r>   21.1981    0.0000 </r>
       <r>   21.6112    0.0000 </r>
      </set>
      <set comment="kpoint 9">
       <r>  -48.4528    1.0000 </r>
       <r>  -48.4489    1.0000 </r>
       <r>  -48.3894    1.0000 </r>
       <r>  -48.3647    1.0000 </r>
       <r>  -48.3642    1.0000 </r>
       <r>  -48.2352    1.0000 </r>
       <r>  -48.1795    1.0000 </r>
       <r>  -24.8030    1.0000 </r>
       <r>  -24.7993    1.0000 </r>
       <r>  -24.7970    1.0000 </r>
       <r>  -24.7804    1.0000 </r>
       <r>  -24.7686    1.0000 </r>
       <r>  -24.7686    1.0000 </r>
       <r>  -24.7480    1.0000 </r>
       <r>  -24.7376    1.0000 </r>
       <r>  -24.6692    1.0000 </r>
       <r>  -24.6485    1.0000 </r>
       <r>  -24.6325    1.0000 </r>
       <r>  -24.6195    1.0000 </r>
       <r>  -24.5947    1.0000 </r>
       <r>  -24.5884    1.0000 </r>
       <r>  -24.5847    1.0000 </r>
       <r>  -24.5718    1.0000 </r>
       <r>  -24.5036    1.0000 </r>
       <r>  -24.4848    1.0000 </r>
       <r>  -24.4202    1.0000 </r>
       <r>  -24.4020    1.0000 </r>
       <r>  -24.3528    1.0000 </r>
       <r>   -6.5520    1.0000 </r>
       <r>   -6.5520    1.0000 </r>
       <r>   -6.5517    1.0000 </r>
       <r>   -6.5345    1.0000 </r>
       <r>   -6.5045    1.0000 </r>
       <r>   -0.1317    1.0000 </r>
       <r>    0.8021    1.0000 </r>
       <r>    1.6367    1.0000 </r>
       <r>    1.7496    1.0000 </r>
       <r>    1.9231    1.0000 </r>
       <r>    2.3085    1.0000 </r>
       <r>    3.0100    1.0000 </r>
       <r>    3.0833    1.0000 </r>
       <r>    3.4844    1.0000 </r>
       <r>    4.4122    1.0000 </r>
       <r>    5.0745    1.0000 </r>
       <r>    5.7201    1.0000 </r>
       <r>    6.5749    1.0000 </r>
       <r>    6.7113    1.0000 </r>
       <r>    6.8951    1.0000 </r>
       <r>    7.0471    1.0000 </r>
       <r>    7.0772    1.0000 </r>
       <r>    7.1378    1.0000 </r>
       <r>    7.1842    1.0000 </r>
       <r>    7.4468    1.0000 </r>
       <r>    7.5432    1.0000 </r>
       <r>    7.6233    1.0000 </r>
       <r>    7.7274    1.0000 </r>
       <r>    7.7574    1.0000 </r>
       <r>    8.0467    1.0036 </r>
       <r>    8.1627    1.0305 </r>
       <r>    8.2351    0.7695 </r>
       <r>    8.2928    0.3048 </r>
       <r>    8.3990   -0.0347 </r>
       <r>    8.5127   -0.0015 </r>
       <r>    8.8209   -0.0000 </r>
       <r>    8.9721   -0.0000 </r>
       <r>    9.0123   -0.0000 </r>
       <r>    9.2551   -0.0000 </r>
       <r>    9.3313   -0.0000 </r>
       <r>    9.4186   -0.0000 </r>
       <r>    9.5768   -0.0000 </r>
       <r>    9.6237   -0.0000 </r>
       <r>    9.7115   -0.0000 </r>
       <r>    9.7580   -0.0000 </r>
       <r>    9.8080   -0.0000 </r>
       <r>    9.8111   -0.0000 </r>
       <r>    9.8827   -0.0000 </r>
       <r>    9.9993   -0.0000 </r>
       <r>   10.1630   -0.0000 </r>
       <r>   10.2370   -0.0000 </r>
       <r>   10.2561   -0.0000 </r>
       <r>   10.8234    0.0000 </r>
       <r>   11.3358    0.0000 </r>
       <r>   11.4488    0.0000 </r>
       <r>   11.7004    0.0000 </r>
       <r>   11.7080    0.0000 </r>
       <r>   11.9934    0.0000 </r>
       <r>   12.2037    0.0000 </r>
       <r>   12.3658    0.0000 </r>
       <r>   12.7900    0.0000 </r>
       <r>   13.0537    0.0000 </r>
       <r>   13.2308    0.0000 </r>
       <r>   13.5992    0.0000 </r>
       <r>   13.6319    0.0000 </r>
       <r>   13.8428    0.0000 </r>
       <r>   13.8931    0.0000 </r>
       <r>   13.9524    0.0000 </r>
       <r>   13.9955    0.0000 </r>
       <r>   14.1606    0.0000 </r>
       <r>   14.1910    0.0000 </r>
       <r>   14.4905    0.0000 </r>
       <r>   14.7772    0.0000 </r>
       <r>   14.8808    0.0000 </r>
       <r>   14.9415    0.0000 </r>
       <r>   15.2078    0.0000 </r>
       <r>   15.3499    0.0000 </r>
       <r>   15.4712    0.0000 </r>
       <r>   15.8593    0.0000 </r>
       <r>   16.4383    0.0000 </r>
       <r>   16.8835    0.0000 </r>
       <r>   17.6179    0.0000 </r>
       <r>   17.6374    0.0000 </r>
       <r>   17.9683    0.0000 </r>
       <r>   18.4006    0.0000 </r>
       <r>   18.4024    0.0000 </r>
       <r>   18.5793    0.0000 </r>
       <r>   18.7143    0.0000 </r>
       <r>   18.8640    0.0000 </r>
       <r>   19.2431    0.0000 </r>
       <r>   19.2491    0.0000 </r>
       <r>   19.2775    0.0000 </r>
       <r>   19.3039    0.0000 </r>
       <r>   20.1913    0.0000 </r>
       <r>   20.2884    0.0000 </r>
       <r>   20.6006    0.0000 </r>
       <r>   20.6657    0.0000 </r>
       <r>   21.0235    0.0000 </r>
       <r>   21.0669    0.0000 </r>
       <r>   21.8950    0.0000 </r>
      </set>
      <set comment="kpoint 10">
       <r>  -48.4489    1.0000 </r>
       <r>  -48.4489    1.0000 </r>
       <r>  -48.3934    1.0000 </r>
       <r>  -48.3629    1.0000 </r>
       <r>  -48.3629    1.0000 </r>
       <r>  -48.2371    1.0000 </r>
       <r>  -48.1808    1.0000 </r>
       <r>  -24.7993    1.0000 </r>
       <r>  -24.7993    1.0000 </r>
       <r>  -24.7977    1.0000 </r>
       <r>  -24.7786    1.0000 </r>
       <r>  -24.7673    1.0000 </r>
       <r>  -24.7673    1.0000 </r>
       <r>  -24.7414    1.0000 </r>
       <r>  -24.6339    1.0000 </r>
       <r>  -24.6339    1.0000 </r>
       <r>  -24.6270    1.0000 </r>
       <r>  -24.6119    1.0000 </r>
       <r>  -24.5960    1.0000 </r>
       <r>  -24.5950    1.0000 </r>
       <r>  -24.5905    1.0000 </r>
       <r>  -24.5797    1.0000 </r>
       <r>  -24.5753    1.0000 </r>
       <r>  -24.5730    1.0000 </r>
       <r>  -24.4878    1.0000 </r>
       <r>  -24.4878    1.0000 </r>
       <r>  -24.4190    1.0000 </r>
       <r>  -24.4190    1.0000 </r>
       <r>   -6.5517    1.0000 </r>
       <r>   -6.5517    1.0000 </r>
       <r>   -6.5512    1.0000 </r>
       <r>   -6.5323    1.0000 </r>
       <r>   -6.5043    1.0000 </r>
       <r>    0.0992    1.0000 </r>
       <r>    1.3561    1.0000 </r>
       <r>    1.3561    1.0000 </r>
       <r>    1.5316    1.0000 </r>
       <r>    1.9752    1.0000 </r>
       <r>    2.3674    1.0000 </r>
       <r>    2.4778    1.0000 </r>
       <r>    2.4778    1.0000 </r>
       <r>    3.6888    1.0000 </r>
       <r>    4.7100    1.0000 </r>
       <r>    4.7100    1.0000 </r>
       <r>    5.3573    1.0000 </r>
       <r>    6.7787    1.0000 </r>
       <r>    6.9985    1.0000 </r>
       <r>    6.9985    1.0000 </r>
       <r>    7.2082    1.0000 </r>
       <r>    7.4107    1.0000 </r>
       <r>    7.4107    1.0000 </r>
       <r>    7.6071    1.0000 </r>
       <r>    7.6505    1.0000 </r>
       <r>    7.6634    1.0000 </r>
       <r>    7.7451    1.0000 </r>
       <r>    7.7794    1.0000 </r>
       <r>    7.7794    1.0000 </r>
       <r>    8.1112    1.0241 </r>
       <r>    8.1765    1.0155 </r>
       <r>    8.1765    1.0155 </r>
       <r>    8.4120   -0.0306 </r>
       <r>    8.5039   -0.0022 </r>
       <r>    8.6892   -0.0000 </r>
       <r>    8.6892   -0.0000 </r>
       <r>    8.9367   -0.0000 </r>
       <r>    9.0452   -0.0000 </r>
       <r>    9.0869   -0.0000 </r>
       <r>    9.3988   -0.0000 </r>
       <r>    9.3988   -0.0000 </r>
       <r>    9.5171   -0.0000 </r>
       <r>    9.5171   -0.0000 </r>
       <r>    9.5363   -0.0000 </r>
       <r>    9.5387   -0.0000 </r>
       <r>    9.7329   -0.0000 </r>
       <r>    9.7914   -0.0000 </r>
       <r>    9.7914   -0.0000 </r>
       <r>    9.9310   -0.0000 </r>
       <r>    9.9310   -0.0000 </r>
       <r>   10.0192   -0.0000 </r>
       <r>   10.0338   -0.0000 </r>
       <r>   10.8976    0.0000 </r>
       <r>   11.6034    0.0000 </r>
       <r>   11.7643    0.0000 </r>
       <r>   11.7643    0.0000 </r>
       <r>   11.8144    0.0000 </r>
       <r>   11.8144    0.0000 </r>
       <r>   11.8646    0.0000 </r>
       <r>   12.2144    0.0000 </r>
       <r>   13.3362    0.0000 </r>
       <r>   13.4937    0.0000 </r>
       <r>   13.6519    0.0000 </r>
       <r>   13.6519    0.0000 </r>
       <r>   13.7109    0.0000 </r>
       <r>   13.7276    0.0000 </r>
       <r>   13.7276    0.0000 </r>
       <r>   13.8479    0.0000 </r>
       <r>   13.8532    0.0000 </r>
       <r>   13.8621    0.0000 </r>
       <r>   13.9631    0.0000 </r>
       <r>   13.9882    0.0000 </r>
       <r>   13.9882    0.0000 </r>
       <r>   14.3481    0.0000 </r>
       <r>   14.5202    0.0000 </r>
       <r>   14.5202    0.0000 </r>
       <r>   15.7380    0.0000 </r>
       <r>   16.0101    0.0000 </r>
       <r>   16.0101    0.0000 </r>
       <r>   16.5717    0.0000 </r>
       <r>   17.0612    0.0000 </r>
       <r>   17.1013    0.0000 </r>
       <r>   17.5229    0.0000 </r>
       <r>   18.0106    0.0000 </r>
       <r>   18.0106    0.0000 </r>
       <r>   19.1169    0.0000 </r>
       <r>   19.1169    0.0000 </r>
       <r>   19.2873    0.0000 </r>
       <r>   19.7634    0.0000 </r>
       <r>   19.9389    0.0000 </r>
       <r>   19.9389    0.0000 </r>
       <r>   19.9893    0.0000 </r>
       <r>   20.0204    0.0000 </r>
       <r>   20.0204    0.0000 </r>
       <r>   20.1227    0.0000 </r>
       <r>   20.2873    0.0000 </r>
       <r>   20.2873    0.0000 </r>
       <r>   20.3887    0.0000 </r>
       <r>   21.1475    0.0000 </r>
       <r>   21.2146    0.0000 </r>
      </set>
      <set comment="kpoint 11">
       <r>  -48.4730    1.0000 </r>
       <r>  -48.4482    1.0000 </r>
       <r>  -48.3854    1.0000 </r>
       <r>  -48.3697    1.0000 </r>
       <r>  -48.3621    1.0000 </r>
       <r>  -48.2260    1.0000 </r>
       <r>  -48.1693    1.0000 </r>
       <r>  -24.8746    1.0000 </r>
       <r>  -24.8746    1.0000 </r>
       <r>  -24.8229    1.0000 </r>
       <r>  -24.8079    1.0000 </r>
       <r>  -24.8079    1.0000 </r>
       <r>  -24.7970    1.0000 </r>
       <r>  -24.7877    1.0000 </r>
       <r>  -24.7801    1.0000 </r>
       <r>  -24.7801    1.0000 </r>
       <r>  -24.7661    1.0000 </r>
[...]
       <r>    5.6164    1.0000 </r>
       <r>    6.0938    1.0000 </r>
       <r>    6.2725    1.0000 </r>
       <r>    6.2725    1.0000 </r>
       <r>    6.3317    1.0000 </r>
       <r>    7.5605    1.0000 </r>
       <r>    7.5605    1.0000 </r>
       <r>    7.8602    1.0000 </r>
       <r>    7.8658    1.0000 </r>
       <r>    7.9000    1.0000 </r>
       <r>    8.0493    1.0040 </r>
       <r>    8.0493    1.0040 </r>
       <r>    8.1083    1.0227 </r>
       <r>    8.1520    1.0350 </r>
       <r>    8.1520    1.0350 </r>
       <r>    8.2135    0.8991 </r>
       <r>    8.2151    0.8911 </r>
       <r>    8.4325   -0.0214 </r>
       <r>    8.4331   -0.0212 </r>
       <r>    8.5467   -0.0003 </r>
       <r>    8.5467   -0.0003 </r>
       <r>    8.7268   -0.0000 </r>
       <r>    8.7268   -0.0000 </r>
       <r>    8.9362   -0.0000 </r>
       <r>    8.9633   -0.0000 </r>
       <r>    9.0208   -0.0000 </r>
       <r>    9.8047   -0.0000 </r>
       <r>    9.8047   -0.0000 </r>
       <r>    9.8936   -0.0000 </r>
       <r>    9.9194   -0.0000 </r>
       <r>    9.9194   -0.0000 </r>
       <r>   10.0158   -0.0000 </r>
       <r>   10.0343   -0.0000 </r>
       <r>   10.0692   -0.0000 </r>
       <r>   10.0692   -0.0000 </r>
       <r>   10.7221    0.0000 </r>
       <r>   11.3660    0.0000 </r>
       <r>   11.4970    0.0000 </r>
       <r>   11.4970    0.0000 </r>
       <r>   11.5346    0.0000 </r>
       <r>   11.6032    0.0000 </r>
       <r>   12.3487    0.0000 </r>
       <r>   12.3487    0.0000 </r>
       <r>   12.6587    0.0000 </r>
       <r>   12.6587    0.0000 </r>
       <r>   12.6961    0.0000 </r>
       <r>   12.7285    0.0000 </r>
       <r>   12.7392    0.0000 </r>
       <r>   12.7529    0.0000 </r>
       <r>   13.4760    0.0000 </r>
       <r>   13.5926    0.0000 </r>
       <r>   13.8295    0.0000 </r>
       <r>   13.8295    0.0000 </r>
       <r>   14.0538    0.0000 </r>
       <r>   14.0612    0.0000 </r>
       <r>   14.0612    0.0000 </r>
       <r>   15.0671    0.0000 </r>
       <r>   16.1674    0.0000 </r>
       <r>   16.2892    0.0000 </r>
       <r>   16.2892    0.0000 </r>
       <r>   16.8350    0.0000 </r>
       <r>   16.8350    0.0000 </r>
       <r>   16.9270    0.0000 </r>
       <r>   17.2020    0.0000 </r>
       <r>   17.2698    0.0000 </r>
       <r>   17.3641    0.0000 </r>
       <r>   17.4541    0.0000 </r>
       <r>   17.4541    0.0000 </r>
       <r>   17.4824    0.0000 </r>
       <r>   17.8947    0.0000 </r>
       <r>   18.1047    0.0000 </r>
       <r>   18.1047    0.0000 </r>
       <r>   18.6254    0.0000 </r>
       <r>   18.6254    0.0000 </r>
       <r>   18.6627    0.0000 </r>
       <r>   18.6631    0.0000 </r>
       <r>   18.6631    0.0000 </r>
       <r>   18.7029    0.0000 </r>
       <r>   18.7120    0.0000 </r>
       <r>   18.7328    0.0000 </r>
       <r>   20.4040    0.0000 </r>
       <r>   20.7219    0.0000 </r>
       <r>   20.7219    0.0000 </r>
       <r>   20.8333    0.0000 </r>
      </set>
     </set>
    </set>
   </array>
  </eigenvalues>
  <separator name="orbital magnetization" >
   <v name="MAGDIPOLOUT">      0.00000000      0.00000000      0.00000000</v>
  </separator>
  <dos>
   <i name="efermi">      8.26902877 </i>
   <total>
    <array>
     <dimension dim="1">gridpoints</dimension>
     <dimension dim="2">spin</dimension>
     <field>energy</field>
     <field>total</field>
     <field>integrated</field>
     <set>
      <set comment="spin 1">
       <r>   -51.9914     0.0000     0.0000 </r>
       <r>   -51.7333     0.0000     0.0000 </r>
       <r>   -51.4753     0.0000     0.0000 </r>
       <r>   -51.2173     0.0000     0.0000 </r>
       <r>   -50.9593     0.0000     0.0000 </r>
       <r>   -50.7013     0.0000     0.0000 </r>
       <r>   -50.4433     0.0000     0.0000 </r>
       <r>   -50.1853     0.0000     0.0000 </r>
       <r>   -49.9272     0.0000     0.0000 </r>
       <r>   -49.6692     0.0000     0.0000 </r>
       <r>   -49.4112    -0.0000    -0.0000 </r>
       <r>   -49.1532    -0.0000    -0.0000 </r>
       <r>   -48.8952    -0.0000    -0.0000 </r>
       <r>   -48.6372    -0.2311    -0.0596 </r>
       <r>   -48.3791    25.4399     6.5043 </r>
       <r>   -48.1211    28.4893    13.8550 </r>
       <r>   -47.8631     0.5625    14.0001 </r>
       <r>   -47.6051    -0.0004    14.0000 </r>
       <r>   -47.3471     0.0000    14.0000 </r>
       <r>   -47.0891     0.0000    14.0000 </r>
       <r>   -46.8310     0.0000    14.0000 </r>
       <r>   -46.5730     0.0000    14.0000 </r>
       <r>   -46.3150     0.0000    14.0000 </r>
       <r>   -46.0570     0.0000    14.0000 </r>
       <r>   -45.7990     0.0000    14.0000 </r>
       <r>   -45.5410     0.0000    14.0000 </r>
       <r>   -45.2830     0.0000    14.0000 </r>
       <r>   -45.0249     0.0000    14.0000 </r>
       <r>   -44.7669     0.0000    14.0000 </r>
       <r>   -44.5089     0.0000    14.0000 </r>
       <r>   -44.2509     0.0000    14.0000 </r>
       <r>   -43.9929     0.0000    14.0000 </r>
       <r>   -43.7349     0.0000    14.0000 </r>
       <r>   -43.4768     0.0000    14.0000 </r>
       <r>   -43.2188     0.0000    14.0000 </r>
       <r>   -42.9608     0.0000    14.0000 </r>
       <r>   -42.7028     0.0000    14.0000 </r>
       <r>   -42.4448     0.0000    14.0000 </r>
       <r>   -42.1868     0.0000    14.0000 </r>
       <r>   -41.9287     0.0000    14.0000 </r>
       <r>   -41.6707     0.0000    14.0000 </r>
       <r>   -41.4127     0.0000    14.0000 </r>
       <r>   -41.1547     0.0000    14.0000 </r>
       <r>   -40.8967     0.0000    14.0000 </r>
       <r>   -40.6387     0.0000    14.0000 </r>
       <r>   -40.3807     0.0000    14.0000 </r>
       <r>   -40.1226     0.0000    14.0000 </r>
       <r>   -39.8646     0.0000    14.0000 </r>
       <r>   -39.6066     0.0000    14.0000 </r>
       <r>   -39.3486     0.0000    14.0000 </r>
       <r>   -39.0906     0.0000    14.0000 </r>
       <r>   -38.8326     0.0000    14.0000 </r>
       <r>   -38.5745     0.0000    14.0000 </r>
       <r>   -38.3165     0.0000    14.0000 </r>
       <r>   -38.0585     0.0000    14.0000 </r>
       <r>   -37.8005     0.0000    14.0000 </r>
       <r>   -37.5425     0.0000    14.0000 </r>
       <r>   -37.2845     0.0000    14.0000 </r>
       <r>   -37.0264     0.0000    14.0000 </r>
       <r>   -36.7684     0.0000    14.0000 </r>
       <r>   -36.5104     0.0000    14.0000 </r>
       <r>   -36.2524     0.0000    14.0000 </r>
       <r>   -35.9944     0.0000    14.0000 </r>
       <r>   -35.7364     0.0000    14.0000 </r>
       <r>   -35.4784     0.0000    14.0000 </r>
       <r>   -35.2203     0.0000    14.0000 </r>
       <r>   -34.9623     0.0000    14.0000 </r>
       <r>   -34.7043     0.0000    14.0000 </r>
       <r>   -34.4463     0.0000    14.0000 </r>
       <r>   -34.1883     0.0000    14.0000 </r>
       <r>   -33.9303     0.0000    14.0000 </r>
       <r>   -33.6722     0.0000    14.0000 </r>
       <r>   -33.4142     0.0000    14.0000 </r>
       <r>   -33.1562     0.0000    14.0000 </r>
       <r>   -32.8982     0.0000    14.0000 </r>
       <r>   -32.6402     0.0000    14.0000 </r>
       <r>   -32.3822     0.0000    14.0000 </r>
       <r>   -32.1241     0.0000    14.0000 </r>
       <r>   -31.8661     0.0000    14.0000 </r>
       <r>   -31.6081     0.0000    14.0000 </r>
       <r>   -31.3501     0.0000    14.0000 </r>
       <r>   -31.0921     0.0000    14.0000 </r>
       <r>   -30.8341     0.0000    14.0000 </r>
       <r>   -30.5761     0.0000    14.0000 </r>
       <r>   -30.3180     0.0000    14.0000 </r>
       <r>   -30.0600     0.0000    14.0000 </r>
       <r>   -29.8020     0.0000    14.0000 </r>
       <r>   -29.5440     0.0000    14.0000 </r>
       <r>   -29.2860     0.0000    14.0000 </r>
       <r>   -29.0280     0.0000    14.0000 </r>
       <r>   -28.7699     0.0000    14.0000 </r>
       <r>   -28.5119     0.0000    14.0000 </r>
       <r>   -28.2539     0.0000    14.0000 </r>
       <r>   -27.9959     0.0000    14.0000 </r>
       <r>   -27.7379     0.0000    14.0000 </r>
       <r>   -27.4799     0.0000    14.0000 </r>
       <r>   -27.2218     0.0000    14.0000 </r>
       <r>   -26.9638     0.0000    14.0000 </r>
       <r>   -26.7058     0.0000    14.0000 </r>
       <r>   -26.4478     0.0000    14.0000 </r>
       <r>   -26.1898     0.0000    14.0000 </r>
       <r>   -25.9318    -0.0000    14.0000 </r>
       <r>   -25.6738    -0.0000    14.0000 </r>
       <r>   -25.4157    -0.0000    14.0000 </r>
       <r>   -25.1577    -0.0008    13.9998 </r>
       <r>   -24.8997    -0.8084    13.7912 </r>
       <r>   -24.6417    95.0713    38.3211 </r>
       <r>   -24.3837    44.5304    49.8106 </r>
       <r>   -24.1257    24.3634    56.0968 </r>
       <r>   -23.8676    -0.3751    56.0000 </r>
       <r>   -23.6096    -0.0000    56.0000 </r>
       <r>   -23.3516     0.0000    56.0000 </r>
       <r>   -23.0936     0.0000    56.0000 </r>
       <r>   -22.8356     0.0000    56.0000 </r>
       <r>   -22.5776     0.0000    56.0000 </r>
       <r>   -22.3195     0.0000    56.0000 </r>
       <r>   -22.0615     0.0000    56.0000 </r>
       <r>   -21.8035     0.0000    56.0000 </r>
       <r>   -21.5455     0.0000    56.0000 </r>
       <r>   -21.2875     0.0000    56.0000 </r>
       <r>   -21.0295     0.0000    56.0000 </r>
       <r>   -20.7715     0.0000    56.0000 </r>
       <r>   -20.5134     0.0000    56.0000 </r>
       <r>   -20.2554     0.0000    56.0000 </r>
       <r>   -19.9974     0.0000    56.0000 </r>
       <r>   -19.7394     0.0000    56.0000 </r>
       <r>   -19.4814     0.0000    56.0000 </r>
       <r>   -19.2234     0.0000    56.0000 </r>
       <r>   -18.9653     0.0000    56.0000 </r>
       <r>   -18.7073     0.0000    56.0000 </r>
       <r>   -18.4493     0.0000    56.0000 </r>
       <r>   -18.1913     0.0000    56.0000 </r>
       <r>   -17.9333     0.0000    56.0000 </r>
       <r>   -17.6753     0.0000    56.0000 </r>
       <r>   -17.4172     0.0000    56.0000 </r>
       <r>   -17.1592     0.0000    56.0000 </r>
       <r>   -16.9012     0.0000    56.0000 </r>
       <r>   -16.6432     0.0000    56.0000 </r>
       <r>   -16.3852     0.0000    56.0000 </r>
       <r>   -16.1272     0.0000    56.0000 </r>
       <r>   -15.8692     0.0000    56.0000 </r>
       <r>   -15.6111     0.0000    56.0000 </r>
       <r>   -15.3531     0.0000    56.0000 </r>
       <r>   -15.0951     0.0000    56.0000 </r>
       <r>   -14.8371     0.0000    56.0000 </r>
       <r>   -14.5791     0.0000    56.0000 </r>
       <r>   -14.3211     0.0000    56.0000 </r>
       <r>   -14.0630     0.0000    56.0000 </r>
       <r>   -13.8050     0.0000    56.0000 </r>
       <r>   -13.5470     0.0000    56.0000 </r>
       <r>   -13.2890     0.0000    56.0000 </r>
       <r>   -13.0310     0.0000    56.0000 </r>
       <r>   -12.7730     0.0000    56.0000 </r>
       <r>   -12.5149     0.0000    56.0000 </r>
       <r>   -12.2569     0.0000    56.0000 </r>
       <r>   -11.9989     0.0000    56.0000 </r>
       <r>   -11.7409     0.0000    56.0000 </r>
       <r>   -11.4829     0.0000    56.0000 </r>
       <r>   -11.2249     0.0000    56.0000 </r>
       <r>   -10.9669     0.0000    56.0000 </r>
       <r>   -10.7088     0.0000    56.0000 </r>
       <r>   -10.4508     0.0000    56.0000 </r>
       <r>   -10.1928     0.0000    56.0000 </r>
       <r>    -9.9348     0.0000    56.0000 </r>
       <r>    -9.6768     0.0000    56.0000 </r>
       <r>    -9.4188     0.0000    56.0000 </r>
       <r>    -9.1607     0.0000    56.0000 </r>
       <r>    -8.9027     0.0000    56.0000 </r>
       <r>    -8.6447     0.0000    56.0000 </r>
       <r>    -8.3867     0.0000    56.0000 </r>
       <r>    -8.1287     0.0000    56.0000 </r>
       <r>    -7.8707     0.0000    56.0000 </r>
       <r>    -7.6126    -0.0000    56.0000 </r>
       <r>    -7.3546    -0.0000    56.0000 </r>
       <r>    -7.0966    -0.0000    56.0000 </r>
       <r>    -6.8386    -0.0057    55.9985 </r>
       <r>    -6.5806     8.0981    58.0880 </r>
       <r>    -6.3226    30.8635    66.0512 </r>
       <r>    -6.0646    -0.1986    66.0000 </r>
       <r>    -5.8065    -0.0000    66.0000 </r>
       <r>    -5.5485     0.0000    66.0000 </r>
       <r>    -5.2905     0.0000    66.0000 </r>
       <r>    -5.0325     0.0000    66.0000 </r>
       <r>    -4.7745     0.0000    66.0000 </r>
       <r>    -4.5165     0.0000    66.0000 </r>
       <r>    -4.2584     0.0000    66.0000 </r>
       <r>    -4.0004     0.0000    66.0000 </r>
       <r>    -3.7424     0.0000    66.0000 </r>
       <r>    -3.4844     0.0000    66.0000 </r>
       <r>    -3.2264     0.0000    66.0000 </r>
       <r>    -2.9684     0.0000    66.0000 </r>
       <r>    -2.7103     0.0000    66.0000 </r>
       <r>    -2.4523     0.0000    66.0000 </r>
       <r>    -2.1943    -0.0000    66.0000 </r>
       <r>    -1.9363    -0.0000    66.0000 </r>
       <r>    -1.6783    -0.0000    66.0000 </r>
       <r>    -1.4203     0.0007    66.0002 </r>
       <r>    -1.1623     0.4979    66.1287 </r>
       <r>    -0.9042     1.2746    66.4575 </r>
       <r>    -0.6462     1.9206    66.9531 </r>
       <r>    -0.3882     1.7414    67.4024 </r>
       <r>    -0.1302     1.8185    67.8716 </r>
       <r>     0.1278     1.4836    68.2544 </r>
       <r>     0.3858     1.4693    68.6335 </r>
       <r>     0.6439     2.5879    69.3012 </r>
       <r>     0.9019     2.4124    69.9236 </r>
       <r>     1.1599     3.3846    70.7969 </r>
       <r>     1.4179     3.7002    71.7516 </r>
       <r>     1.6759     2.2881    72.3420 </r>
       <r>     1.9339     3.6994    73.2965 </r>
       <r>     2.1920     2.6867    73.9897 </r>
       <r>     2.4500     3.6255    74.9252 </r>
       <r>     2.7080     3.5386    75.8382 </r>
       <r>     2.9660     4.2141    76.9255 </r>
       <r>     3.2240     3.5560    77.8430 </r>
       <r>     3.4820     4.4564    78.9928 </r>
       <r>     3.7400     5.1782    80.3289 </r>
       <r>     3.9981     5.1256    81.6514 </r>
       <r>     4.2561     2.3853    82.2668 </r>
       <r>     4.5141     4.5298    83.4356 </r>
       <r>     4.7721     4.7958    84.6730 </r>
       <r>     5.0301     5.7390    86.1537 </r>
       <r>     5.2881     6.8855    87.9303 </r>
       <r>     5.5462     5.1600    89.2617 </r>
       <r>     5.8042     8.4855    91.4510 </r>
       <r>     6.0622    10.7181    94.2165 </r>
       <r>     6.3202     9.0127    96.5419 </r>
       <r>     6.5782    12.7317    99.8269 </r>
       <r>     6.8362    12.2093   102.9771 </r>
       <r>     7.0943    11.9689   106.0652 </r>
       <r>     7.3523     8.9029   108.3623 </r>
       <r>     7.6103    10.9357   111.1839 </r>
       <r>     7.8683    17.3688   115.6653 </r>
       <r>     8.1263    14.7330   119.4667 </r>
       <r>     8.3843    11.7355   122.4946 </r>
       <r>     8.6423    10.0475   125.0870 </r>
       <r>     8.9004    12.2288   128.2423 </r>
       <r>     9.1584    10.7728   131.0218 </r>
       <r>     9.4164    12.4918   134.2449 </r>
       <r>     9.6744    15.5898   138.2673 </r>
       <r>     9.9324    15.7772   142.3381 </r>
       <r>    10.1904    23.9844   148.5264 </r>
       <r>    10.4485    20.9459   153.9308 </r>
       <r>    10.7065    18.3628   158.6687 </r>
       <r>    10.9645    11.4896   161.6332 </r>
       <r>    11.2225     9.4444   164.0700 </r>
       <r>    11.4805    11.2942   166.9841 </r>
       <r>    11.7385     9.4467   169.4215 </r>
       <r>    11.9966    10.8994   172.2337 </r>
       <r>    12.2546    11.9650   175.3208 </r>
       <r>    12.5126     9.7420   177.8344 </r>
       <r>    12.7706     9.2185   180.2129 </r>
       <r>    13.0286     6.1733   181.8057 </r>
       <r>    13.2866     9.9046   184.3613 </r>
       <r>    13.5446     6.4076   186.0145 </r>
       <r>    13.8027    11.3916   188.9538 </r>
       <r>    14.0607    10.2990   191.6111 </r>
       <r>    14.3187     9.0099   193.9358 </r>
       <r>    14.5767     7.8709   195.9666 </r>
       <r>    14.8347    10.2202   198.6036 </r>
       <r>    15.0927     8.9581   200.9149 </r>
       <r>    15.3508     8.5964   203.1329 </r>
       <r>    15.6088     8.4064   205.3019 </r>
       <r>    15.8668     8.4655   207.4861 </r>
       <r>    16.1248     7.2358   209.3531 </r>
       <r>    16.3828    10.2861   212.0071 </r>
       <r>    16.6408     9.7315   214.5179 </r>
       <r>    16.8989     8.3734   216.6784 </r>
       <r>    17.1569     9.4155   219.1077 </r>
       <r>    17.4149    10.7566   221.8831 </r>
       <r>    17.6729     7.7836   223.8914 </r>
       <r>    17.9309     8.2409   226.0177 </r>
       <r>    18.1889     7.7025   228.0050 </r>
       <r>    18.4469     6.2554   229.6191 </r>
       <r>    18.7050     9.4387   232.0544 </r>
       <r>    18.9630     9.0079   234.3786 </r>
       <r>    19.2210     8.6559   236.6119 </r>
       <r>    19.4790     8.5264   238.8119 </r>
       <r>    19.7370     6.5305   240.4968 </r>
       <r>    19.9950     5.5702   241.9340 </r>
       <r>    20.2531     8.2987   244.0752 </r>
       <r>    20.5111     7.4463   245.9965 </r>
       <r>    20.7691    11.1991   248.8861 </r>
       <r>    21.0271     7.9842   250.9461 </r>
       <r>    21.2851     7.6729   252.9258 </r>
       <r>    21.5431     7.8250   254.9448 </r>
       <r>    21.8012     3.7590   255.9147 </r>
       <r>    22.0592     0.3376   256.0018 </r>
       <r>    22.3172    -0.0069   256.0000 </r>
       <r>    22.5752    -0.0000   256.0000 </r>
       <r>    22.8332     0.0000   256.0000 </r>
       <r>    23.0912     0.0000   256.0000 </r>
       <r>    23.3492     0.0000   256.0000 </r>
       <r>    23.6073     0.0000   256.0000 </r>
       <r>    23.8653     0.0000   256.0000 </r>
       <r>    24.1233     0.0000   256.0000 </r>
       <r>    24.3813     0.0000   256.0000 </r>
       <r>    24.6393     0.0000   256.0000 </r>
       <r>    24.8973     0.0000   256.0000 </r>
       <r>    25.1554     0.0000   256.0000 </r>
       <r>    25.4134     0.0000   256.0000 </r>
      </set>
     </set>
    </array>
   </total>
  </dos>
 </calculation>
 <structure name="finalpos" >
  <crystal>
   <varray name="basis" >
    <v>       5.60695197       0.00000000       0.00000000 </v>
    <v>       0.00000000       5.60695197       0.00000000 </v>
    <v>       0.00000000       0.00000000       8.24170653 </v>
   </varray>
   <i name="volume">    259.10203137 </i>
   <varray name="rec_basis" >
    <v>       0.17835002       0.00000000       0.00000000 </v>
    <v>       0.00000000       0.17835002       0.00000000 </v>
    <v>       0.00000000       0.00000000       0.12133409 </v>
   </varray>
  </crystal>
  <varray name="positions" >
   <v>       0.00000000       0.00000000       0.00000000 </v>
   <v>       0.00000000       0.00000000       0.50000000 </v>
   <v>       0.00000000       0.50000000       0.00000000 </v>
   <v>       0.00000000       0.50000000       0.50000000 </v>
   <v>       0.50000000       0.00000000       0.00000000 </v>
   <v>       0.50000000       0.00000000       0.50000000 </v>
   <v>       0.50000000       0.50000000       0.00000000 </v>
   <v>       0.50000000       0.50000000       0.50000000 </v>
   <v>       0.25094688       0.25094688       0.25207123 </v>
   <v>       0.25094688       0.25094688       0.74792877 </v>
   <v>       0.25094688       0.74905312       0.25207123 </v>
   <v>       0.25094688       0.74905312       0.74792877 </v>
   <v>       0.74905312       0.25094688       0.25207123 </v>
   <v>       0.74905312       0.25094688       0.74792877 </v>
   <v>       0.74905312       0.74905312       0.25207123 </v>
   <v>       0.74905312       0.74905312       0.74792877 </v>
  </varray>
 </structure>
</modeling>
