unknown system                          
           1
     5.606952    0.000000    0.000000
     0.000000    5.606952    0.000000
     0.000000    0.000000    8.241707
   Ga   Ti   Al
     1     7     8
Direct configuration=     1
   0.00000000  0.00000000  0.00000000
   0.00000000  0.00000000  0.50000000
   0.00000000  0.50000000  0.00000000
   0.00000000  0.50000000  0.50000000
   0.50000000  0.00000000  0.00000000
   0.50000000  0.00000000  0.50000000
   0.50000000  0.50000000  0.00000000
   0.50000000  0.50000000  0.50000000
   0.25094688  0.25094688  0.25207123
   0.25094688  0.25094688  0.74792877
   0.25094688  0.74905312  0.25207123
   0.25094688  0.74905312  0.74792877
   0.74905312  0.25094688  0.25207123
   0.74905312  0.25094688  0.74792877
   0.74905312  0.74905312  0.25207123
   0.74905312  0.74905312  0.74792877
