   16   16  300    1
  0.1622832E+02  0.5647637E-09  0.5647637E-09  0.8140666E-09  0.5000000E-15
  1.000000000000000E-004
  CAR 
 CaNi2                                   
    130     30     88
 
  0.1276756E-14  0.1276756E-14  0.1276756E-14  0.6944444E-02
      1        -48.336996   1.000000
      2        -48.336367   1.000000
      3        -48.278829   1.000000
      4        -48.278829   1.000000
      5        -48.278349   1.000000
      6        -48.278349   1.000000
      7        -48.222840   1.000000
      8        -48.222382   1.000000
      9        -24.771251   1.000000
     10        -24.767857   1.000000
     11        -24.759576   1.000000
     12        -24.756852   1.000000
     13        -24.750671   1.000000
     14        -24.733283   1.000000
     15        -24.698301   1.000000
     16        -24.698301   1.000000
     17        -24.696321   1.000000
     18        -24.696321   1.000000
     19        -24.687860   1.000000
     20        -24.687860   1.000000
     21        -24.675705   1.000000
     22        -24.675705   1.000000
     23        -24.633813   1.000000
     24        -24.622867   1.000000
     25        -24.289096   1.000000
     26        -24.289096   1.000000
     27        -24.288569   1.000000
     28        -24.288569   1.000000
     29        -24.252619   1.000000
     30        -24.251982   1.000000
     31        -24.241885   1.000000
     32        -24.241277   1.000000
     33         -6.128981   1.000000
     34         -6.113401   1.000000
     35         -6.091335   1.000000
     36         -6.091335   1.000000
     37         -6.058941   1.000000
     38         -0.904215   1.000000
     39          0.572519   1.000000
     40          2.918603   1.000000
     41          3.020094   1.000000
     42          3.429383   1.000000
     43          3.608829   1.000000
     44          3.746725   1.000000
     45          3.746725   1.000000
     46          3.783359   1.000000
     47          5.064934   1.000000
     48          5.348275   1.000000
     49          5.348275   1.000000
     50          5.766049   1.000000
     51          6.007125   1.000000
     52          6.007125   1.000000
     53          6.476946   1.000000
     54          6.580872   1.000000
     55          6.602463   1.000000
     56          7.115836   1.000000
     57          7.145914   1.000000
     58          7.146188   1.000000
     59          7.146188   1.000000
     60          7.469913   1.000000
     61          7.624285   1.000000
     62          7.801151   1.000000
     63          7.801151   1.000000
     64          7.955508   1.000000
     65          7.982770   0.999998
     66          8.044743   0.999891
     67          8.044743   0.999891
     68          8.144142   0.989034
     69          8.144142   0.989034
     70          8.947601   0.000000
     71          9.710611   0.000000
     72          9.710611   0.000000
     73          9.781605   0.000000
     74         10.022470   0.000000
     75         10.022470   0.000000
     76         10.085063   0.000000
     77         10.085063   0.000000
     78         10.089736   0.000000
     79         10.089736   0.000000
     80         10.428723   0.000000
     81         10.463718   0.000000
     82         10.463718   0.000000
     83         10.577185   0.000000
     84         10.596329   0.000000
     85         10.803121   0.000000
     86         10.804848   0.000000
     87         11.224262   0.000000
     88         11.588030   0.000000
 
  0.1666667E+00  0.1276756E-14  0.1276756E-14  0.2777778E-01
      1        -48.333130   1.000000
      2        -48.332508   1.000000
      3        -48.282754   1.000000
      4        -48.282259   1.000000
      5        -48.275105   1.000000
      6        -48.274628   1.000000
      7        -48.226614   1.000000
      8        -48.226158   1.000000
      9        -24.762385   1.000000
     10        -24.759101   1.000000
     11        -24.747055   1.000000
     12        -24.732434   1.000000
     13        -24.732337   1.000000
     14        -24.727280   1.000000
     15        -24.702852   1.000000
     16        -24.700790   1.000000
     17        -24.692126   1.000000
     18        -24.685972   1.000000
     19        -24.679611   1.000000
     20        -24.674188   1.000000
     21        -24.667116   1.000000
     22        -24.664933   1.000000
     23        -24.637543   1.000000
     24        -24.626486   1.000000
     25        -24.321837   1.000000
     26        -24.321130   1.000000
     27        -24.286306   1.000000
     28        -24.285774   1.000000
     29        -24.279109   1.000000
     30        -24.278458   1.000000
     31        -24.249087   1.000000
     32        -24.248428   1.000000
     33         -6.128305   1.000000
     34         -6.113527   1.000000
     35         -6.091447   1.000000
     36         -6.091278   1.000000
     37         -6.058603   1.000000
     38         -0.769754   1.000000
     39          0.668436   1.000000
     40          2.304134   1.000000
     41          2.825911   1.000000
     42          3.173761   1.000000
     43          3.395678   1.000000
     44          3.742409   1.000000
     45          3.883402   1.000000
     46          4.929419   1.000000
     47          5.118179   1.000000
     48          5.397683   1.000000
     49          5.661549   1.000000
     50          5.841815   1.000000
     51          5.885834   1.000000
     52          5.974815   1.000000
     53          6.186481   1.000000
     54          6.587250   1.000000
     55          6.657634   1.000000
     56          6.679677   1.000000
     57          6.788085   1.000000
     58          7.015066   1.000000
     59          7.355595   1.000000
     60          7.520606   1.000000
     61          7.698573   1.000000
     62          7.823673   1.000000
     63          7.847970   1.000000
     64          7.883289   1.000000
     65          7.945315   1.000000
     66          8.006788   0.999989
     67          8.196227   0.940022
     68          8.256836   0.757356
     69          8.902902   0.000000
     70          9.001101   0.000000
     71          9.694083   0.000000
     72          9.754718   0.000000
     73          9.758547   0.000000
     74          9.813568   0.000000
     75         10.107049   0.000000
     76         10.117352   0.000000
     77         10.173255   0.000000
     78         10.225784   0.000000
     79         10.254537   0.000000
     80         10.371343   0.000000
     81         10.447910   0.000000
     82         10.495242   0.000000
     83         10.530769   0.000000
     84         10.553794   0.000000
     85         10.621616   0.000000
     86         10.780153   0.000000
     87         10.946609   0.000000
     88         11.409324   0.000000
 
  0.3333333E+00  0.1276756E-14  0.1276756E-14  0.2777778E-01
      1        -48.322535   1.000000
      2        -48.321944   1.000000
      3        -48.293452   1.000000
      4        -48.292933   1.000000
      5        -48.264908   1.000000
      6        -48.264440   1.000000
      7        -48.236907   1.000000
      8        -48.236448   1.000000
      9        -24.749205   1.000000
     10        -24.746264   1.000000
     11        -24.735349   1.000000
     12        -24.719246   1.000000
     13        -24.715245   1.000000
     14        -24.712966   1.000000
     15        -24.703765   1.000000
     16        -24.690264   1.000000
     17        -24.675439   1.000000
     18        -24.663131   1.000000
     19        -24.648094   1.000000
     20        -24.647689   1.000000
     21        -24.645764   1.000000
     22        -24.636299   1.000000
     23        -24.586759   1.000000
     24        -24.585539   1.000000
     25        -24.410564   1.000000
     26        -24.409413   1.000000
     27        -24.362190   1.000000
     28        -24.361379   1.000000
     29        -24.278635   1.000000
     30        -24.278090   1.000000
     31        -24.257495   1.000000
     32        -24.256884   1.000000
     33         -6.126971   1.000000
     34         -6.113783   1.000000
     35         -6.091670   1.000000
     36         -6.091167   1.000000
     37         -6.057910   1.000000
     38         -0.375015   1.000000
     39          0.909273   1.000000
     40          1.287875   1.000000
     41          2.137792   1.000000
     42          3.619530   1.000000
     43          3.653592   1.000000
     44          3.973001   1.000000
     45          4.283843   1.000000
     46          4.628668   1.000000
     47          4.977058   1.000000
     48          5.200888   1.000000
     49          5.527856   1.000000
     50          5.776850   1.000000
     51          5.879474   1.000000
     52          6.057485   1.000000
     53          6.445775   1.000000
     54          6.723040   1.000000
     55          6.867542   1.000000
     56          6.871484   1.000000
     57          6.905215   1.000000
     58          6.937893   1.000000
     59          7.534979   1.000000
     60          7.605532   1.000000
     61          7.653510   1.000000
     62          7.683930   1.000000
     63          7.887908   1.000000
     64          7.963198   0.999999
     65          8.137647   0.991423
     66          8.151498   0.985648
     67          8.586765   0.000036
     68          8.613673   0.000007
     69          9.078313   0.000000
     70          9.156130   0.000000
     71          9.200819   0.000000
     72          9.402195   0.000000
     73          9.595726   0.000000
     74          9.761539   0.000000
     75          9.880017   0.000000
     76         10.083729   0.000000
     77         10.203865   0.000000
     78         10.289906   0.000000
     79         10.350651   0.000000
     80         10.418779   0.000000
     81         10.419671   0.000000
     82         10.448912   0.000000
     83         10.550405   0.000000
     84         10.592376   0.000000
     85         10.597861   0.000000
     86         10.717410   0.000000
     87         11.041029   0.000000
     88         11.151175   0.000000
 
  0.5000000E+00  0.1276756E-14  0.1276756E-14  0.1388889E-01
      1        -48.308318   1.000000
      2        -48.307756   1.000000
      3        -48.307728   1.000000
      4        -48.307164   1.000000
      5        -48.251223   1.000000
      6        -48.250750   1.000000
      7        -48.250647   1.000000
      8        -48.250182   1.000000
      9        -24.732528   1.000000
     10        -24.731854   1.000000
     11        -24.729816   1.000000
     12        -24.729364   1.000000
     13        -24.719874   1.000000
     14        -24.719278   1.000000
     15        -24.704971   1.000000
     16        -24.704557   1.000000
     17        -24.661753   1.000000
     18        -24.661368   1.000000
     19        -24.649972   1.000000
     20        -24.649452   1.000000
     21        -24.532173   1.000000
     22        -24.530325   1.000000
     23        -24.528366   1.000000
     24        -24.526625   1.000000
     25        -24.476979   1.000000
     26        -24.476003   1.000000
     27        -24.473384   1.000000
     28        -24.472336   1.000000
     29        -24.268331   1.000000
     30        -24.267956   1.000000
     31        -24.267745   1.000000
     32        -24.267335   1.000000
     33         -6.126314   1.000000
     34         -6.113910   1.000000
     35         -6.091781   1.000000
     36         -6.091111   1.000000
     37         -6.057556   1.000000
     38          0.131665   1.000000
     39          0.453611   1.000000
     40          1.370078   1.000000
     41          1.616060   1.000000
     42          3.972878   1.000000
     43          4.290773   1.000000
     44          4.318973   1.000000
     45          4.341855   1.000000
     46          4.369873   1.000000
     47          4.370008   1.000000
     48          4.885232   1.000000
     49          4.965049   1.000000
     50          5.685946   1.000000
     51          5.741076   1.000000
     52          6.356973   1.000000
     53          6.390230   1.000000
     54          7.132994   1.000000
     55          7.157899   1.000000
     56          7.205176   1.000000
     57          7.206537   1.000000
     58          7.224913   1.000000
     59          7.281593   1.000000
     60          7.469332   1.000000
     61          7.499907   1.000000
     62          8.021078   0.999972
     63          8.078944   0.999345
     64          8.093395   0.998690
     65          8.096309   0.998501
     66          8.589263   0.000031
     67          8.643791   0.000001
     68          8.870080   0.000000
     69          8.923613   0.000000
     70          9.066846   0.000000
     71          9.130999   0.000000
     72          9.166021   0.000000
     73          9.191913   0.000000
     74          9.369545   0.000000
     75          9.398266   0.000000
     76         10.052439   0.000000
     77         10.075848   0.000000
     78         10.318774   0.000000
     79         10.328534   0.000000
     80         10.351072   0.000000
     81         10.478202   0.000000
     82         10.622685   0.000000
     83         10.637906   0.000000
     84         10.706236   0.000000
     85         10.717719   0.000000
     86         10.766599   0.000000
     87         10.779181   0.000000
     88         11.071533   0.000000
 
  0.1666667E+00  0.1666667E+00  0.1276756E-14  0.2777778E-01
      1        -48.329272   1.000000
      2        -48.328652   1.000000
      3        -48.279020   1.000000
      4        -48.279020   1.000000
      5        -48.278532   1.000000
      6        -48.278531   1.000000
      7        -48.230402   1.000000
      8        -48.229939   1.000000
      9        -24.745514   1.000000
     10        -24.734576   1.000000
     11        -24.732659   1.000000
     12        -24.724162   1.000000
     13        -24.723715   1.000000
     14        -24.721619   1.000000
     15        -24.690258   1.000000
     16        -24.690110   1.000000
     17        -24.678471   1.000000
     18        -24.677905   1.000000
     19        -24.673291   1.000000
     20        -24.670570   1.000000
     21        -24.669864   1.000000
     22        -24.667801   1.000000
     23        -24.641289   1.000000
     24        -24.630100   1.000000
     25        -24.320799   1.000000
     26        -24.319980   1.000000
     27        -24.317035   1.000000
     28        -24.316416   1.000000
     29        -24.286416   1.000000
     30        -24.285727   1.000000
     31        -24.275715   1.000000
     32        -24.275042   1.000000
     33         -6.127617   1.000000
     34         -6.113669   1.000000
     35         -6.091399   1.000000
     36         -6.091372   1.000000
     37         -6.058280   1.000000
     38         -0.636288   1.000000
     39          0.764385   1.000000
     40          2.294269   1.000000
     41          2.580721   1.000000
     42          2.911065   1.000000
     43          3.093813   1.000000
     44          3.325095   1.000000
     45          4.632016   1.000000
     46          5.114666   1.000000
     47          5.196453   1.000000
     48          5.258359   1.000000
     49          5.898361   1.000000
     50          5.918192   1.000000
     51          5.952645   1.000000
     52          6.206731   1.000000
     53          6.233097   1.000000
     54          6.261966   1.000000
     55          6.659446   1.000000
     56          6.713703   1.000000
     57          6.732264   1.000000
     58          6.753838   1.000000
     59          7.576787   1.000000
     60          7.748493   1.000000
     61          7.778137   1.000000
     62          7.894097   1.000000
     63          7.907127   1.000000
     64          7.915480   1.000000
     65          7.978895   0.999998
     66          8.077990   0.999375
     67          8.084430   0.999144
     68          8.279639   0.646295
     69          9.052628   0.000000
     70          9.190747   0.000000
     71          9.700000   0.000000
     72          9.704043   0.000000
     73          9.722676   0.000000
     74          9.879023   0.000000
     75          9.885878   0.000000
     76         10.001612   0.000000
     77         10.251917   0.000000
     78         10.261589   0.000000
     79         10.285923   0.000000
     80         10.309090   0.000000
     81         10.414443   0.000000
     82         10.432262   0.000000
     83         10.477423   0.000000
     84         10.490445   0.000000
     85         10.603736   0.000000
     86         10.767775   0.000000
     87         10.964763   0.000000
     88         11.187640   0.000000
 
  0.3333333E+00  0.1666667E+00  0.1276756E-14  0.5555556E-01
      1        -48.318705   1.000000
      2        -48.318113   1.000000
      3        -48.289691   1.000000
      4        -48.289175   1.000000
      5        -48.268798   1.000000
      6        -48.268316   1.000000
      7        -48.240724   1.000000
      8        -48.240255   1.000000
      9        -24.733045   1.000000
     10        -24.719169   1.000000
     11        -24.716956   1.000000
     12        -24.712178   1.000000
     13        -24.701677   1.000000
     14        -24.688990   1.000000
     15        -24.683835   1.000000
     16        -24.680974   1.000000
     17        -24.679526   1.000000
     18        -24.666957   1.000000
     19        -24.651550   1.000000
     20        -24.643923   1.000000
     21        -24.641667   1.000000
     22        -24.639979   1.000000
     23        -24.590829   1.000000
     24        -24.589541   1.000000
     25        -24.407426   1.000000
     26        -24.406257   1.000000
     27        -24.365546   1.000000
     28        -24.364699   1.000000
     29        -24.310801   1.000000
     30        -24.310093   1.000000
     31        -24.288705   1.000000
     32        -24.288030   1.000000
     33         -6.126260   1.000000
     34         -6.113952   1.000000
     35         -6.091602   1.000000
     36         -6.091265   1.000000
     37         -6.057619   1.000000
     38         -0.244829   1.000000
     39          1.007131   1.000000
     40          1.406580   1.000000
     41          2.227776   1.000000
     42          2.825422   1.000000
     43          3.303878   1.000000
     44          3.763174   1.000000
     45          4.014019   1.000000
     46          4.472672   1.000000
     47          5.302896   1.000000
     48          5.461228   1.000000
     49          6.048372   1.000000
     50          6.059182   1.000000
     51          6.287201   1.000000
     52          6.311100   1.000000
     53          6.334758   1.000000
     54          6.522426   1.000000
     55          6.935039   1.000000
     56          6.949161   1.000000
     57          6.968536   1.000000
     58          6.989410   1.000000
     59          7.524317   1.000000
     60          7.672530   1.000000
     61          7.680413   1.000000
     62          7.804407   1.000000
     63          7.982385   0.999998
     64          8.119184   0.995910
     65          8.240817   0.822350
     66          8.245619   0.804125
     67          8.407754   0.075432
     68          8.565609   0.000122
     69          9.053188   0.000000
     70          9.201875   0.000000
     71          9.444093   0.000000
     72          9.524683   0.000000
     73          9.612087   0.000000
     74          9.720096   0.000000
     75          9.804108   0.000000
     76         10.014253   0.000000
     77         10.053520   0.000000
     78         10.189045   0.000000
     79         10.189848   0.000000
     80         10.248545   0.000000
     81         10.325872   0.000000
     82         10.335171   0.000000
     83         10.351579   0.000000
     84         10.367620   0.000000
     85         10.464345   0.000000
     86         10.486208   0.000000
     87         10.942630   0.000000
     88         11.014846   0.000000
 
  0.5000000E+00  0.1666667E+00  0.1276756E-14  0.2777778E-01
      1        -48.304517   1.000000
      2        -48.303965   1.000000
      3        -48.303928   1.000000
      4        -48.303375   1.000000
      5        -48.255073   1.000000
      6        -48.254591   1.000000
      7        -48.254497   1.000000
      8        -48.254022   1.000000
      9        -24.717650   1.000000
     10        -24.717010   1.000000
     11        -24.704073   1.000000
     12        -24.703740   1.000000
     13        -24.700663   1.000000
     14        -24.700063   1.000000
     15        -24.696967   1.000000
     16        -24.696427   1.000000
     17        -24.665724   1.000000
     18        -24.665323   1.000000
     19        -24.653709   1.000000
     20        -24.653198   1.000000
     21        -24.528499   1.000000
     22        -24.526726   1.000000
     23        -24.524709   1.000000
     24        -24.523031   1.000000
     25        -24.480679   1.000000
     26        -24.479630   1.000000
     27        -24.477073   1.000000
     28        -24.475964   1.000000
     29        -24.300052   1.000000
     30        -24.299655   1.000000
     31        -24.299385   1.000000
     32        -24.298966   1.000000
     33         -6.125590   1.000000
     34         -6.114093   1.000000
     35         -6.091707   1.000000
     36         -6.091206   1.000000
     37         -6.057279   1.000000
     38          0.252978   1.000000
     39          0.583947   1.000000
     40          1.466581   1.000000
     41          1.717994   1.000000
     42          3.220193   1.000000
     43          3.447112   1.000000
     44          3.775312   1.000000
     45          3.881219   1.000000
     46          4.420252   1.000000
     47          4.468946   1.000000
     48          5.827222   1.000000
     49          5.908268   1.000000
     50          6.203090   1.000000
     51          6.209892   1.000000
     52          6.230444   1.000000
     53          6.238409   1.000000
     54          7.187747   1.000000
     55          7.198507   1.000000
     56          7.244126   1.000000
     57          7.258155   1.000000
     58          7.274449   1.000000
     59          7.325638   1.000000
     60          7.593195   1.000000
     61          7.626396   1.000000
     62          8.031702   0.999948
     63          8.098912   0.998312
     64          8.191404   0.947723
     65          8.208456   0.916516
     66          8.433118   0.036312
     67          8.485012   0.005718
     68          8.951285   0.000000
     69          8.976064   0.000000
     70          9.038276   0.000000
     71          9.164231   0.000000
     72          9.357850   0.000000
     73          9.383623   0.000000
     74          9.408503   0.000000
     75          9.433437   0.000000
     76          9.974209   0.000000
     77          9.982473   0.000000
     78         10.195196   0.000000
     79         10.200522   0.000000
     80         10.220961   0.000000
     81         10.236202   0.000000
     82         10.247866   0.000000
     83         10.361457   0.000000
     84         10.541748   0.000000
     85         10.553044   0.000000
     86         10.626760   0.000000
     87         10.636122   0.000000
     88         10.743427   0.000000
 
  0.3333333E+00  0.3333333E+00  0.1276756E-14  0.2777778E-01
      1        -48.308213   1.000000
      2        -48.307641   1.000000
      3        -48.279395   1.000000
      4        -48.279395   1.000000
      5        -48.278893   1.000000
      6        -48.278889   1.000000
      7        -48.251122   1.000000
      8        -48.250643   1.000000
      9        -24.721270   1.000000
     10        -24.705799   1.000000
     11        -24.690780   1.000000
     12        -24.690685   1.000000
     13        -24.677386   1.000000
     14        -24.677345   1.000000
     15        -24.662057   1.000000
     16        -24.650008   1.000000
     17        -24.638270   1.000000
     18        -24.636151   1.000000
     19        -24.627964   1.000000
     20        -24.625953   1.000000
     21        -24.607698   1.000000
     22        -24.605913   1.000000
     23        -24.596903   1.000000
     24        -24.595717   1.000000
     25        -24.403975   1.000000
     26        -24.402559   1.000000
     27        -24.392810   1.000000
     28        -24.392016   1.000000
     29        -24.379328   1.000000
     30        -24.378450   1.000000
     31        -24.368710   1.000000
     32        -24.367828   1.000000
     33         -6.124855   1.000000
     34         -6.114291   1.000000
     35         -6.091476   1.000000
     36         -6.091450   1.000000
     37         -6.057019   1.000000
     38          0.135206   1.000000
     39          1.255741   1.000000
     40          1.707605   1.000000
     41          1.832847   1.000000
     42          2.475929   1.000000
     43          2.660439   1.000000
     44          3.141411   1.000000
     45          3.736139   1.000000
     46          4.174761   1.000000
     47          5.536460   1.000000
     48          5.576087   1.000000
     49          5.992252   1.000000
     50          6.675558   1.000000
     51          6.729088   1.000000
     52          6.789029   1.000000
     53          6.878264   1.000000
     54          7.010120   1.000000
     55          7.066369   1.000000
     56          7.108500   1.000000
     57          7.143261   1.000000
     58          7.207462   1.000000
     59          7.466452   1.000000
     60          7.615357   1.000000
     61          7.850011   1.000000
     62          8.075836   0.999438
     63          8.087430   0.999011
     64          8.126939   0.994375
     65          8.234615   0.844248
     66          8.561436   0.000153
     67          8.575853   0.000068
     68          8.662306   0.000000
     69          8.771818   0.000000
     70          9.333214   0.000000
     71          9.620877   0.000000
     72          9.633141   0.000000
     73          9.666136   0.000000
     74          9.682965   0.000000
     75          9.743575   0.000000
     76          9.816580   0.000000
     77          9.854000   0.000000
     78          9.856265   0.000000
     79          9.867914   0.000000
     80          9.868404   0.000000
     81          9.987569   0.000000
     82         10.126443   0.000000
     83         10.143868   0.000000
     84         10.236916   0.000000
     85         10.260428   0.000000
     86         10.263252   0.000000
     87         10.343701   0.000000
     88         10.544950   0.000000
 
  0.5000000E+00  0.3333333E+00  0.1276756E-14  0.2777778E-01
      1        -48.294123   1.000000
      2        -48.293585   1.000000
      3        -48.293537   1.000000
      4        -48.292999   1.000000
      5        -48.265573   1.000000
      6        -48.265075   1.000000
      7        -48.264994   1.000000
      8        -48.264501   1.000000
      9        -24.706282   1.000000
     10        -24.705706   1.000000
     11        -24.691777   1.000000
     12        -24.691366   1.000000
     13        -24.676604   1.000000
     14        -24.676158   1.000000
     15        -24.663916   1.000000
     16        -24.663430   1.000000
     17        -24.618485   1.000000
     18        -24.617881   1.000000
     19        -24.616615   1.000000
     20        -24.616120   1.000000
     21        -24.518508   1.000000
     22        -24.516874   1.000000
     23        -24.514786   1.000000
     24        -24.513212   1.000000
     25        -24.490713   1.000000
     26        -24.489549   1.000000
     27        -24.487096   1.000000
     28        -24.485903   1.000000
     29        -24.386005   1.000000
     30        -24.385530   1.000000
     31        -24.385032   1.000000
     32        -24.384569   1.000000
     33         -6.124161   1.000000
     34         -6.114460   1.000000
     35         -6.091562   1.000000
     36         -6.091394   1.000000
     37         -6.056711   1.000000
     38          0.598633   1.000000
     39          0.969172   1.000000
     40          1.714705   1.000000
     41          2.019444   1.000000
     42          2.297506   1.000000
     43          2.433864   1.000000
     44          3.020338   1.000000
     45          3.153899   1.000000
     46          4.779421   1.000000
     47          4.821619   1.000000
     48          5.813794   1.000000
     49          5.838350   1.000000
     50          6.900882   1.000000
     51          6.928055   1.000000
     52          7.019480   1.000000
     53          7.031261   1.000000
     54          7.292794   1.000000
     55          7.318541   1.000000
     56          7.339353   1.000000
     57          7.378484   1.000000
     58          7.378957   1.000000
     59          7.410050   1.000000
     60          7.887152   1.000000
     61          7.928850   1.000000
     62          7.988550   0.999996
     63          8.039472   0.999919
     64          8.204166   0.925446
     65          8.274143   0.674749
     66          8.514336   0.001621
     67          8.530496   0.000756
     68          9.029823   0.000000
     69          9.041185   0.000000
     70          9.129195   0.000000
     71          9.197051   0.000000
     72          9.512989   0.000000
     73          9.523356   0.000000
     74          9.629934   0.000000
     75          9.645243   0.000000
     76          9.726456   0.000000
     77          9.741041   0.000000
     78          9.742649   0.000000
     79          9.778201   0.000000
     80          9.942952   0.000000
     81          9.944247   0.000000
     82         10.021928   0.000000
     83         10.108893   0.000000
     84         10.177727   0.000000
     85         10.191028   0.000000
     86         10.209898   0.000000