       N       E                     dE             d eps       ncg     rms          rms(c)
DAV:   1     0.109669082221E+04    0.10967E+04   -0.67911E+04  5280   0.176E+03
DAV:   2     0.241988123714E+01   -0.10943E+04   -0.10895E+04  5280   0.445E+02
DAV:   3    -0.106402346668E+03   -0.10882E+03   -0.10842E+03 10560   0.115E+02
DAV:   4    -0.110777514517E+03   -0.43752E+01   -0.43726E+01  5500   0.223E+01
DAV:   5    -0.111054851116E+03   -0.27734E+00   -0.27732E+00  9196   0.433E+00    0.271E+01
DAV:   6    -0.997269055498E+02    0.11328E+02   -0.12863E+02  7876   0.386E+01    0.897E+00
DAV:   7    -0.985541965604E+02    0.11727E+01   -0.13276E+01  6072   0.123E+01    0.515E+00
DAV:   8    -0.984633710213E+02    0.90826E-01   -0.13073E+00  7260   0.459E+00    0.142E+00
DAV:   9    -0.984569822819E+02    0.63887E-02   -0.19080E-01  6996   0.201E+00    0.544E-01
DAV:  10    -0.984598692869E+02   -0.28870E-02   -0.96673E-03  7084   0.417E-01    0.131E-01
DAV:  11    -0.984599525036E+02   -0.83217E-04   -0.17417E-03  7304   0.166E-01    0.103E-01
DAV:  12    -0.984599950385E+02   -0.42535E-04   -0.31574E-04  7084   0.636E-02    0.198E-02
DAV:  13    -0.984599865353E+02    0.85032E-05   -0.31679E-05  5720   0.268E-02
   1 F= -.98459987E+02 E0= -.98428281E+02  d E =-.984600E+02
       N       E                     dE             d eps       ncg     rms          rms(c)
DAV:   1    -0.985680845476E+02   -0.10809E+00   -0.23410E+00  8360   0.957E+00    0.275E+00
DAV:   2    -0.984733888060E+02    0.94696E-01   -0.10301E+00  7304   0.408E+00    0.737E-01
DAV:   3    -0.984598285245E+02    0.13560E-01   -0.12403E-01  7392   0.114E+00    0.280E-01
DAV:   4    -0.984598148325E+02    0.13692E-04   -0.13444E-02  7964   0.372E-01    0.166E-01
DAV:   5    -0.984608921450E+02   -0.10773E-02   -0.22692E-03  6952   0.137E-01    0.922E-02
DAV:   6    -0.984615553180E+02   -0.66317E-03   -0.17545E-03  8404   0.935E-02    0.318E-02
DAV:   7    -0.984615796476E+02   -0.24330E-04   -0.99491E-05  6644   0.288E-02    0.118E-02
DAV:   8    -0.984615897871E+02   -0.10140E-04   -0.15051E-05  6468   0.134E-02    0.423E-03
DAV:   9    -0.984615892430E+02    0.54407E-06   -0.20846E-06  4312   0.501E-03
   2 F= -.98461589E+02 E0= -.98430184E+02  d E =-.160271E-02
       N       E                     dE             d eps       ncg     rms          rms(c)
DAV:   1    -0.984828747084E+02   -0.21285E-01   -0.45369E-01  7656   0.427E+00    0.121E+00
DAV:   2    -0.984654596118E+02    0.17415E-01   -0.20748E-01  7524   0.185E+00    0.330E-01
DAV:   3    -0.984624343834E+02    0.30252E-02   -0.26214E-02  7040   0.506E-01    0.125E-01
DAV:   4    -0.984624114495E+02    0.22934E-04   -0.28300E-03  7832   0.171E-01    0.733E-02
DAV:   5    -0.984625846985E+02   -0.17325E-03   -0.40153E-04  6864   0.577E-02    0.466E-02
DAV:   6    -0.984627144130E+02   -0.12971E-03   -0.39504E-04  8492   0.426E-02    0.168E-02
DAV:   7    -0.984627177683E+02   -0.33553E-05   -0.24606E-05  6248   0.147E-02
   3 F= -.98462718E+02 E0= -.98431255E+02  d E =-.112853E-02
       N       E                     dE             d eps       ncg     rms          rms(c)
DAV:   1    -0.984626671113E+02    0.47302E-04   -0.33965E-02  6644   0.184E+00    0.902E-02
DAV:   2    -0.984629505969E+02   -0.28349E-03   -0.41874E-03  5368   0.276E-01    0.516E-02
DAV:   3    -0.984629052851E+02    0.45312E-04   -0.20792E-04  8536   0.648E-02    0.144E-02
DAV:   4    -0.984629024807E+02    0.28043E-05   -0.15460E-05  4136   0.179E-02
   4 F= -.98462902E+02 E0= -.98431476E+02  d E =-.184712E-03
       N       E                     dE             d eps       ncg     rms          rms(c)
DAV:   1    -0.984622194780E+02    0.68581E-03   -0.14205E-01  6600   0.381E+00    0.221E-01
DAV:   2    -0.984630799703E+02   -0.86049E-03   -0.20265E-02  5280   0.605E-01    0.940E-02
DAV:   3    -0.984629734001E+02    0.10657E-03   -0.83269E-04  8756   0.121E-01    0.410E-02
DAV:   4    -0.984629602023E+02    0.13198E-04   -0.86115E-05  8140   0.308E-02    0.166E-02
DAV:   5    -0.984629648488E+02   -0.46465E-05   -0.20473E-05  5984   0.170E-02
   5 F= -.98462965E+02 E0= -.98431605E+02  d E =-.623680E-04
