 vasp.6.5.0 16Dec24 (build Apr 17 2025 17:55:45) complex                        
  
 executed on             LinuxIFC date 2025.06.03  18:30:27
 running   44 mpi-ranks, on    1 nodes
 distrk:  each k-point on   44 cores,    1 groups
 distr:  one band on NCORE=   1 cores,   44 groups


--------------------------------------------------------------------------------------------------------


 INCAR:
   SYSTEM = CaNi2
   ISTART = 0
   ICHARG = 2
   PREC = N
   LREAL = .FALSE.
   ENCUT = 520
   ALGO = N
   NELM = 500
   EDIFF = 1E-05
   IBRION = 1
   ISIF = 3
   NSW = 300
   EDIFFG = -0.01
   ISMEAR = 0
   SIGMA = 0.1

 POTCAR:    PAW_PBE Ti_sv 26Sep2005               
 POTCAR:    PAW_PBE Ga_d 06Jul2010                
 POTCAR:    PAW_PBE Al 04Jan2001                  
 -----------------------------------------------------------------------------
|                                                                             |
|           W    W    AA    RRRRR   N    N  II  N    N   GGGG   !!!           |
|           W    W   A  A   R    R  NN   N  II  NN   N  G    G  !!!           |
|           W    W  A    A  R    R  N N  N  II  N N  N  G       !!!           |
|           W WW W  AAAAAA  RRRRR   N  N N  II  N  N N  G  GGG   !            |
|           WW  WW  A    A  R   R   N   NN  II  N   NN  G    G                |
|           W    W  A    A  R    R  N    N  II  N    N   GGGG   !!!           |
|                                                                             |
|     For optimal performance we recommend to set                             |
|       NCORE = 2 up to number-of-cores-per-socket                            |
|     NCORE specifies how many cores store one orbital (NPAR=cpu/NCORE).      |
|     This setting can greatly improve the performance of VASP for DFT.       |
|     The default, NCORE=1 might be grossly inefficient on modern             |
|     multi-core architectures or massively parallel machines. Do your        |
|     own testing! More info at https://www.vasp.at/wiki/index.php/NCORE      |
|     Unfortunately you need to use the default for GW and RPA                |
|     calculations (for HF NCORE is supported but not extensively tested      |
|     yet).                                                                   |
|                                                                             |
 -----------------------------------------------------------------------------

 POTCAR:    PAW_PBE Ti_sv 26Sep2005               
   SHA256 =  4d747badb5a5ea28d858fbac70885b3f8929d6fd9e5b0dbe1ecb9878dc164da1 Ti_sv/POTCAR          
   COPYR  = (c) Copyright 26Sep2005 Georg Kresse                                                    
   COPYR  = This file is part of the software VASP. Any use, copying, and all other rights are regul
   COPYR  = If you do not have a valid VASP license, you may not use, copy or distribute this file. 
   VRHFIN =Ti: 3p4s3d                                                                               
   LEXCH  = PE                                                                                      
   EATOM  =  1588.0892 eV,  116.7213 Ry                                                             
                                                                                                    
   TITEL  = PAW_PBE Ti_sv 26Sep2005                                                                 
   LULTRA =        F    use ultrasoft PP ?                                                          
   IUNSCR =        1    unscreen: 0-lin 1-nonlin 2-no                                               
   RPACOR =    2.000    partial core radius                                                         
   POMASS =   47.880; ZVAL   =   12.000    mass and valenz                                          
   RCORE  =    2.300    outmost cutoff radius                                                       
   RWIGS  =    2.300; RWIGS  =    1.217    wigner-seitz radius (au A)                               
   ENMAX  =  274.610; ENMIN  =  205.957 eV                                                          
   ICORE  =        3    local potential                                                             
   LCOR   =        T    correct aug charges                                                         
   LPAW   =        T    paw PP                                                                      
   EAUG   =  482.848                                                                                
   RMAX   =    2.348    core radius for proj-oper                                                   
   RAUG   =    1.300    factor for augmentation sphere                                              
   RDEP   =    2.381    radius for radial grids                                                     
   RDEPT  =    1.930    core radius for aug-charge                                                  
                                                                                                    
   Atomic configuration                                                                             
    8 entries                                                                                       
     n  l   j            E        occ.                                                              
     1  0  0.50     -4865.3608   2.0000                                                             
     2  0  0.50      -533.1368   2.0000                                                             
     2  1  1.50      -440.5031   6.0000                                                             
     3  0  0.50       -59.3186   2.0000                                                             
     4  0  0.50        -3.7291   1.0000                                                             
     3  1  1.50       -35.7012   6.0000                                                             
     3  2  2.50        -1.9157   3.0000                                                             
     4  3  2.50        -1.3606   0.0000                                                             
   Description                                                                                      
     l       E           TYP  RCUT    TYP  RCUT                                                     
     0    -59.3185931     23  1.800                                                                 
     0     -3.7290822     23  2.300                                                                 
     1    -35.7012045     23  2.300                                                                 
     1     -1.3605826     23  2.300                                                                 
     2     -1.9156920     23  2.300                                                                 
     2     -0.0236318     23  2.300                                                                 
     3     -1.3605826     23  2.300                                                                 
  local pseudopotential read in
  partial core-charges read in
  partial kinetic energy density read in
  atomic valenz-charges read in
  non local Contribution for L=           0  read in
    real space projection operators read in
  non local Contribution for L=           0  read in
    real space projection operators read in
  non local Contribution for L=           1  read in
    real space projection operators read in
  non local Contribution for L=           1  read in
    real space projection operators read in
  non local Contribution for L=           2  read in
    real space projection operators read in
  non local Contribution for L=           2  read in
    real space projection operators read in
    PAW grid and wavefunctions read in
 
   number of l-projection  operators is LMAX  =           6
   number of lm-projection operators is LMMAX =          18
 
 POTCAR:    PAW_PBE Ga_d 06Jul2010                
   SHA256 =  a60ddf36e14f00ea098d9e3914b3745f1b7105e68786148f49ae384e44b4226c Ga_d/POTCAR           
   COPYR  = (c) Copyright 06Jul2010 Georg Kresse                                                    
   COPYR  = This file is part of the software VASP. Any use, copying, and all other rights are regul
   COPYR  = If you do not have a valid VASP license, you may not use, copy or distribute this file. 
   VRHFIN =Ga: s2p1                                                                                 
   LEXCH  = PE                                                                                      
   EATOM  =  2148.8298 eV,  157.9345 Ry                                                             
                                                                                                    
   TITEL  = PAW_PBE Ga_d 06Jul2010                                                                  
   LULTRA =        F    use ultrasoft PP ?                                                          
   IUNSCR =        1    unscreen: 0-lin 1-nonlin 2-no                                               
   RPACOR =    1.700    partial core radius                                                         
   POMASS =   69.723; ZVAL   =   13.000    mass and valenz                                          
   RCORE  =    2.300    outmost cutoff radius                                                       
   RWIGS  =    2.300; RWIGS  =    1.217    wigner-seitz radius (au A)                               
   ENMAX  =  282.691; ENMIN  =  212.018 eV                                                          
   ICORE  =        3    local potential                                                             
   LCOR   =        T    correct aug charges                                                         
   LPAW   =        T    paw PP                                                                      
   EAUG   =  490.690                                                                                
   DEXC   =    0.000                                                                                
   RMAX   =    2.341    core radius for proj-oper                                                   
   RAUG   =    1.300    factor for augmentation sphere                                              
   RDEP   =    2.413    radius for radial grids                                                     
   RDEPT  =    1.856    core radius for aug-charge                                                  
                                                                                                    
   Atomic configuration                                                                             
    9 entries                                                                                       
     n  l   j            E        occ.                                                              
     1  0  0.50    -10228.7831   2.0000                                                             
     2  0  0.50     -1262.1604   2.0000                                                             
     2  1  1.50     -1098.6333   6.0000                                                             
     3  0  0.50      -148.1110   2.0000                                                             
     3  1  1.50       -98.8436   6.0000                                                             
     3  2  2.50       -19.1549  10.0000                                                             
     4  0  0.50        -8.9483   2.0000                                                             
     4  1  0.50        -2.5791   1.0000                                                             
     4  3  2.50        -2.7416   0.0000                                                             
   Description                                                                                      
     l       E           TYP  RCUT    TYP  RCUT                                                     
     2    -19.1549037     23  2.300                                                                 
     2     -5.4423304     23  2.300                                                                 
     0     -8.9483111     23  2.300                                                                 
     0     68.0291300     23  2.300                                                                 
     1     -2.5790802     23  2.100                                                                 
     1     81.6349560     23  2.300                                                                 
     3      6.8029130     23  2.300                                                                 
  local pseudopotential read in
  partial core-charges read in
  partial kinetic energy density read in
  atomic valenz-charges read in
  non local Contribution for L=           2  read in
    real space projection operators read in
  non local Contribution for L=           2  read in
    real space projection operators read in
  non local Contribution for L=           0  read in
    real space projection operators read in
  non local Contribution for L=           0  read in
    real space projection operators read in
  non local Contribution for L=           1  read in
    real space projection operators read in
  non local Contribution for L=           1  read in
    real space projection operators read in
    PAW grid and wavefunctions read in
 
   number of l-projection  operators is LMAX  =           6
   number of lm-projection operators is LMMAX =          18
 
 POTCAR:    PAW_PBE Al 04Jan2001                  
   SHA256 =  17880443556af62b473fe41b62a467bd001ad55d2cabe504a3f22e34d4e9db96 Al/POTCAR             
   COPYR  = (c) Copyright 04Jan2001 Georg Kresse                                                    
   COPYR  = This file is part of the software VASP. Any use, copying, and all other rights are regul
   COPYR  = If you do not have a valid VASP license, you may not use, copy or distribute this file. 
   VRHFIN =Al: s2p1                                                                                 
   LEXCH  = PE                                                                                      
   EATOM  =    53.5387 eV,    3.9350 Ry                                                             
                                                                                                    
   TITEL  = PAW_PBE Al 04Jan2001                                                                    
   LULTRA =        F    use ultrasoft PP ?                                                          
   IUNSCR =        1    unscreen: 0-lin 1-nonlin 2-no                                               
   RPACOR =    1.500    partial core radius                                                         
   POMASS =   26.981; ZVAL   =    3.000    mass and valenz                                          
   RCORE  =    1.900    outmost cutoff radius                                                       
   RWIGS  =    2.650; RWIGS  =    1.402    wigner-seitz radius (au A)                               
   ENMAX  =  240.300; ENMIN  =  180.225 eV                                                          
   ICORE  =        2    local potential                                                             
   LCOR   =        T    correct aug charges                                                         
   LPAW   =        T    paw PP                                                                      
   EAUG   =  291.052                                                                                
   DEXC   =    0.000                                                                                
   RMAX   =    1.939    core radius for proj-oper                                                   
   RAUG   =    1.300    factor for augmentation sphere                                              
   RDEP   =    1.966    radius for radial grids                                                     
   RDEPT  =    1.856    core radius for aug-charge                                                  
                                                                                                    
   Atomic configuration                                                                             
    6 entries                                                                                       
     n  l   j            E        occ.                                                              
     1  0  0.50     -1511.1048   2.0000                                                             
     2  0  0.50      -108.1629   2.0000                                                             
     2  1  1.50       -69.6402   6.0000                                                             
     3  0  0.50        -7.7528   2.0000                                                             
     3  1  1.50        -2.7121   1.0000                                                             
     3  2  2.50        -2.7212   0.0000                                                             
   Description                                                                                      
     l       E           TYP  RCUT    TYP  RCUT                                                     
     0     -7.7528455     23  1.900                                                                 
     0     -3.3096929     23  1.900                                                                 
     1     -2.7120682     23  1.900                                                                 
     1     13.6058260     23  1.900                                                                 
     2     -2.7211652      7  1.900                                                                 
  local pseudopotential read in
  partial core-charges read in
  partial kinetic energy density read in
  atomic valenz-charges read in
  non local Contribution for L=           0  read in
    real space projection operators read in
  non local Contribution for L=           0  read in
    real space projection operators read in
  non local Contribution for L=           1  read in
    real space projection operators read in
  non local Contribution for L=           1  read in
    real space projection operators read in
    PAW grid and wavefunctions read in
 
   number of l-projection  operators is LMAX  =           4
   number of lm-projection operators is LMMAX =           8
 
  PAW_PBE Ti_sv 26Sep2005               :
 energy of atom  1       EATOM=-1588.0892
 kinetic energy error for atom=    0.0042 (will be added to EATOM!!)
  PAW_PBE Ga_d 06Jul2010                :
 energy of atom  2       EATOM=-2148.8298
 kinetic energy error for atom=    0.0026 (will be added to EATOM!!)
  PAW_PBE Al 04Jan2001                  :
 energy of atom  3       EATOM=  -53.5387
 kinetic energy error for atom=    0.0002 (will be added to EATOM!!)
 
 
 POSCAR: Ti1 Al1
  positions in direct lattice
  No initial velocities read in


 exchange-correlation table for PE
   RHO(1)=    0.500       N(1)  =     2000
   RHO(2)=  100.500       N(2)  =     4000
 


--------------------------------------------------------------------------------------------------------


 ion  position               nearest neighbor table
   1  0.000  0.000  0.000-   3 2.82   5 2.82   3 2.82   5 2.82  11 2.85  12 2.85  13 2.85  14 2.85
                            15 2.85  16 2.85   9 2.85  10 2.85
   2  0.000  0.000  0.500-   4 2.82   6 2.82   4 2.82   6 2.82  11 2.85  12 2.85  13 2.85  14 2.85
                            15 2.85  16 2.85   9 2.85  10 2.85
   3  0.000  0.500  0.000-   1 2.82   7 2.82   1 2.82   7 2.82  11 2.85  12 2.85  13 2.85  14 2.85
                            15 2.85  16 2.85   9 2.85  10 2.85
   4  0.000  0.500  0.500-   2 2.82   8 2.82   2 2.82   8 2.82  11 2.85  12 2.85  13 2.85  14 2.85
                            15 2.85  16 2.85   9 2.85  10 2.85
   5  0.500  0.000  0.000-   1 2.82   7 2.82   7 2.82   1 2.82  11 2.85  12 2.85  13 2.85  14 2.85
                            15 2.85  16 2.85   9 2.85  10 2.85
   6  0.500  0.000  0.500-   2 2.82   8 2.82   8 2.82   2 2.82  11 2.85  12 2.85  13 2.85  14 2.85
                            15 2.85  16 2.85   9 2.85  10 2.85
   7  0.500  0.500  0.000-   3 2.82   5 2.82   5 2.82   3 2.82  11 2.85  12 2.85  13 2.85  14 2.85
                            15 2.85  16 2.85   9 2.85  10 2.85
   8  0.500  0.500  0.500-   4 2.82   6 2.82   6 2.82   4 2.82  11 2.85  12 2.85  13 2.85  14 2.85
                            15 2.85  16 2.85   9 2.85  10 2.85
   9  0.250  0.250  0.250-  11 2.82  13 2.82  11 2.82  13 2.82   5 2.85   6 2.85   7 2.85   8 2.85
                             1 2.85   2 2.85   3 2.85   4 2.85
  10  0.250  0.250  0.750-  12 2.82  14 2.82  12 2.82  14 2.82   5 2.85   6 2.85   7 2.85   8 2.85
                             1 2.85   2 2.85   3 2.85   4 2.85
  11  0.250  0.750  0.250-   9 2.82  15 2.82   9 2.82  15 2.82   5 2.85   6 2.85   7 2.85   8 2.85
                             1 2.85   2 2.85   3 2.85   4 2.85
  12  0.250  0.750  0.750-  10 2.82  16 2.82  10 2.82  16 2.82   5 2.85   6 2.85   7 2.85   8 2.85
                             1 2.85   2 2.85   3 2.85   4 2.85
  13  0.750  0.250  0.250-   9 2.82  15 2.82  15 2.82   9 2.82   5 2.85   6 2.85   7 2.85   8 2.85
                             1 2.85   2 2.85   3 2.85   4 2.85
  14  0.750  0.250  0.750-  10 2.82  16 2.82  16 2.82  10 2.82   5 2.85   6 2.85   7 2.85   8 2.85
                             1 2.85   2 2.85   3 2.85   4 2.85
  15  0.750  0.750  0.250-  11 2.82  13 2.82  13 2.82  11 2.82   5 2.85   6 2.85   7 2.85   8 2.85
                             1 2.85   2 2.85   3 2.85   4 2.85
  16  0.750  0.750  0.750-  12 2.82  14 2.82  14 2.82  12 2.82   5 2.85   6 2.85   7 2.85   8 2.85
                             1 2.85   2 2.85   3 2.85   4 2.85
 
  LATTYP: Found a simple tetragonal cell.
 ALAT       =     5.6476373672
 C/A-ratio  =     1.4414285973
  
  Lattice vectors:
  
 A1 = (   5.6476373672,   0.0000000000,   0.0000000000)
 A2 = (   0.0000000000,   5.6476373672,   0.0000000000)
 A3 = (   0.0000000000,   0.0000000000,   8.1406660080)


Analysis of symmetry for initial positions (statically):
=====================================================================
 Subroutine PRICEL returns:
 Original cell was already a primitive cell.
 

 Routine SETGRP: Setting up the symmetry group for a 
 simple tetragonal supercell.


 Subroutine GETGRP returns: Found 16 space group operations
 (whereof  2 operations were pure point group operations)
 out of a pool of 16 trial point group operations.


The static configuration has the point symmetry C_1h.
 The point group associated with its full space group is D_4h.


Analysis of symmetry for dynamics (positions and initial velocities):
=====================================================================
 Subroutine PRICEL returns:
 Original cell was already a primitive cell.
 

 Routine SETGRP: Setting up the symmetry group for a 
 simple tetragonal supercell.


 Subroutine GETGRP returns: Found 16 space group operations
 (whereof  2 operations were pure point group operations)
 out of a pool of 16 trial point group operations.


The dynamic configuration has the point symmetry C_1h.
 The point group associated with its full space group is D_4h.


 Subroutine INISYM returns: Found 16 space group operations
 (whereof  2 operations are pure point group operations),
 and found     1 'primitive' translations


----------------------------------------------------------------------------------------

                                     Primitive cell                                     

  volume of cell :     259.6531

  direct lattice vectors                    reciprocal lattice vectors
     5.647637367  0.000000000  0.000000000     0.177065193  0.000000000  0.000000000
     0.000000000  5.647637367  0.000000000     0.000000000  0.177065193  0.000000000
     0.000000000  0.000000000  8.140666008     0.000000000  0.000000000  0.122840072

  length of vectors
     5.647637367  5.647637367  8.140666008     0.177065193  0.177065193  0.122840072

  position of ions in fractional coordinates (direct lattice)
     0.000000000  0.000000000  0.000000000
     0.000000000  0.000000000  0.500000000
     0.000000000  0.500000000  0.000000000
     0.000000000  0.500000000  0.500000000
     0.500000000  0.000000000  0.000000000
     0.500000000  0.000000000  0.500000000
     0.500000000  0.500000000  0.000000000
     0.500000000  0.500000000  0.500000000
     0.250000000  0.250000000  0.250000000
     0.250000000  0.250000000  0.750000000
     0.250000000  0.750000000  0.250000000
     0.250000000  0.750000000  0.750000000
     0.750000000  0.250000000  0.250000000
     0.750000000  0.250000000  0.750000000
     0.750000000  0.750000000  0.250000000
     0.750000000  0.750000000  0.750000000

  ion indices of the primitive-cell ions
   primitive index   ion index
                 1           1
                 2           2
                 3           3
                 4           4
                 5           5
                 6           6
                 7           7
                 8           8
                 9           9
                10          10
                11          11
                12          12
                13          13
                14          14
                15          15
                16          16

----------------------------------------------------------------------------------------

 
 
 KPOINTS: K-Spacing Value to Generate K-Mesh: 0.03

Automatic generation of k-mesh.
 Grid dimensions read from file:
 generate k-points for:    6    6    4

 Generating k-lattice:

  Cartesian coordinates                     Fractional coordinates (reciprocal lattice)
     0.029510865  0.000000000  0.000000000     0.166666667  0.000000000  0.000000000
     0.000000000  0.029510865  0.000000000     0.000000000  0.166666667  0.000000000
     0.000000000  0.000000000  0.030710018     0.000000000  0.000000000  0.250000000

  Length of vectors
     0.029510865  0.029510865  0.030710018

  Shift w.r.t. Gamma in fractional coordinates (k-lattice)
     0.000000000  0.000000000  0.000000000

 
 Subroutine IBZKPT returns following result:
 ===========================================
 
 Found     30 irreducible k-points:
 
 Following reciprocal coordinates:
            Coordinates               Weight
  0.000000  0.000000  0.000000      1.000000
  0.166667  0.000000  0.000000      4.000000
  0.333333  0.000000  0.000000      4.000000
  0.500000  0.000000  0.000000      2.000000
  0.166667  0.166667  0.000000      4.000000
  0.333333  0.166667  0.000000      8.000000
  0.500000  0.166667  0.000000      4.000000
  0.333333  0.333333  0.000000      4.000000
  0.500000  0.333333  0.000000      4.000000
  0.500000  0.500000  0.000000      1.000000
  0.000000  0.000000  0.250000      2.000000
  0.166667  0.000000  0.250000      8.000000
  0.333333  0.000000  0.250000      8.000000
  0.500000  0.000000  0.250000      4.000000
  0.166667  0.166667  0.250000      8.000000
  0.333333  0.166667  0.250000     16.000000
  0.500000  0.166667  0.250000      8.000000
  0.333333  0.333333  0.250000      8.000000
  0.500000  0.333333  0.250000      8.000000
  0.500000  0.500000  0.250000      2.000000
  0.000000  0.000000  0.500000      1.000000
  0.166667  0.000000  0.500000      4.000000
  0.333333  0.000000  0.500000      4.000000
  0.500000  0.000000  0.500000      2.000000
  0.166667  0.166667  0.500000      4.000000
  0.333333  0.166667  0.500000      8.000000
  0.500000  0.166667  0.500000      4.000000
  0.333333  0.333333  0.500000      4.000000
  0.500000  0.333333  0.500000      4.000000
  0.500000  0.500000  0.500000      1.000000
 
 Following cartesian coordinates:
            Coordinates               Weight
  0.000000  0.000000  0.000000      1.000000
  0.029511  0.000000  0.000000      4.000000
  0.059022  0.000000  0.000000      4.000000
  0.088533  0.000000  0.000000      2.000000
  0.029511  0.029511  0.000000      4.000000
  0.059022  0.029511  0.000000      8.000000
  0.088533  0.029511  0.000000      4.000000
  0.059022  0.059022  0.000000      4.000000
  0.088533  0.059022  0.000000      4.000000
  0.088533  0.088533  0.000000      1.000000
  0.000000  0.000000  0.030710      2.000000
  0.029511  0.000000  0.030710      8.000000
  0.059022  0.000000  0.030710      8.000000
  0.088533  0.000000  0.030710      4.000000
  0.029511  0.029511  0.030710      8.000000
  0.059022  0.029511  0.030710     16.000000
  0.088533  0.029511  0.030710      8.000000
  0.059022  0.059022  0.030710      8.000000
  0.088533  0.059022  0.030710      8.000000
  0.088533  0.088533  0.030710      2.000000
  0.000000  0.000000  0.061420      1.000000
  0.029511  0.000000  0.061420      4.000000
  0.059022  0.000000  0.061420      4.000000
  0.088533  0.000000  0.061420      2.000000
  0.029511  0.029511  0.061420      4.000000
  0.059022  0.029511  0.061420      8.000000
  0.088533  0.029511  0.061420      4.000000
  0.059022  0.059022  0.061420      4.000000
  0.088533  0.059022  0.061420      4.000000
  0.088533  0.088533  0.061420      1.000000
 


--------------------------------------------------------------------------------------------------------




 Dimension of arrays:
   k-points           NKPTS =     30   k-points in BZ     NKDIM =     30   number of bands    NBANDS=     88
   number of dos      NEDOS =    301   number of ions     NIONS =     16
   non local maximal  LDIM  =      6   non local SUM 2l+1 LMDIM =     18
   total plane-waves  NPLWV =  49152
   max r-space proj   IRMAX =      1   max aug-charges    IRDMAX=   7566
   dimension x,y,z NGX =    32 NGY =   32 NGZ =   48
   dimension x,y,z NGXF=    64 NGYF=   64 NGZF=   96
   support grid    NGXF=    64 NGYF=   64 NGZF=   96
   ions per type =               8   1   7
   NGX,Y,Z   is equivalent  to a cutoff of   9.42,  9.42,  9.80 a.u.
   NGXF,Y,Z  is equivalent  to a cutoff of  18.84, 18.84, 19.60 a.u.

 SYSTEM =  CaNi2                                   
 POSCAR =  Ti1 Al1                                 

 Startparameter for this run:
   NWRITE =      2    write-flag & timer
   PREC   = n         normal or accurate (medium, high low for compatibility)
   ISTART =      0    job   : 0-new  1-cont  2-samecut
   ICHARG =      2    charge: 1-file 2-atom 10-const
   ISPIN  =      1    spin polarized calculation?
   LNONCOLLINEAR =      F non collinear calculations
   LSORBIT =      F    spin-orbit coupling
   INIWAV =      1    electr: 0-lowe 1-rand  2-diag
   LASPH  =      F    aspherical Exc in radial PAW
 Electronic Relaxation 1
   ENCUT  =  520.0 eV  38.22 Ry    6.18 a.u.  10.50 10.50 15.14*2*pi/ulx,y,z
   ENINI  =  520.0     initial cutoff
   ENAUG  =  490.7 eV  augmentation charge cutoff
   NELM   =    500;   NELMIN=  2; NELMDL= -5     # of ELM steps 
   EDIFF  = 0.1E-04   stopping-criterion for ELM
   LREAL  =      F    real-space projection
   NLSPLINE    = F    spline interpolate recip. space projectors
   LCOMPAT=      F    compatible to vasp.4.4
   GGA_COMPAT  = T    GGA compatible to vasp.4.4-vasp.4.6
   LMAXPAW     = -100 max onsite density
   LMAXMIX     =    2 max onsite mixed and CHGCAR
   VOSKOWN=      0    Vosko Wilk Nusair interpolation
   ROPT   =    0.00000   0.00000   0.00000
 Ionic relaxation
   EDIFFG = -.1E-01   stopping-criterion for IOM
   NSW    =    300    number of steps for IOM
   NBLOCK =      1;   KBLOCK =    300    inner block; outer block 
   IBRION =      1    ionic relax: 0-MD 1-quasi-New 2-CG
   NFREE  =      0    steps in history (QN), initial steepest desc. (CG)
   ISIF   =      3    stress and relaxation
   IWAVPR =     11    prediction:  0-non 1-charg 2-wave 3-comb
   ISYM   =      2    0-nonsym 1-usesym 2-fastsym
   LCORR  =      T    Harris-Foulkes like correction to forces

   POTIM  = 0.5000    time-step for ionic-motion
   TEIN   =    0.0    initial temperature
   TEBEG  =    0.0;   TEEND  =   0.0 temperature during run
   SMASS  =  -3.00    Nose mass-parameter (am)
   estimated Nose-frequenzy (Omega)   =  0.10E-29 period in steps = 0.13E+47 mass=  -0.729E-27a.u.
   SCALEE = 1.0000    scale energy and forces
   NPACO  =    256;   APACO  = 10.0  distance and # of slots for P.C.
   PSTRESS=    0.0 pullay stress

  Mass of Ions in am
   POMASS =  47.88 69.72 26.98
  Ionic Valenz
   ZVAL   =  12.00 13.00  3.00
  Atomic Wigner-Seitz radii
   RWIGS  =  -1.00 -1.00 -1.00
  virtual crystal weights 
   VCA    =   1.00  1.00  1.00
   NELECT =     130.0000    total number of electrons
   NUPDOWN=      -1.0000    fix difference up-down

 DOS related values:
   EMIN   =  10.00;   EMAX   =-10.00  energy-range for DOS
   EFERMI =   0.00;   METHOD = LEGACY      
   ISMEAR =     0;   SIGMA  =   0.10  broadening in eV -4-tet -1-fermi 0-gaus
   EFERMI_NEDOS =   21; number of points for ismear=-14 and -15

 Electronic relaxation 2 (details)
   IALGO  =     38    algorithm
   LDIAG  =      T    sub-space diagonalisation (order eigenvalues)
   LSUBROT=      F    optimize rotation matrix (better conditioning)
   TURBO    =      0    0=normal 1=particle mesh
   IRESTART =      0    0=no restart 2=restart with 2 vectors
   NREBOOT  =      0    no. of reboots
   NMIN     =      0    reboot dimension
   EREF     =   0.00    reference energy to select bands
   IMIX   =      4    mixing-type and parameters
     AMIX     =   0.40;   BMIX     =  1.00
     AMIX_MAG =   1.60;   BMIX_MAG =  1.00
     AMIN     =   0.10
     WC   =   100.;   INIMIX=   1;  MIXPRE=   1;  MAXMIX= -45

 Intra band minimization:
   WEIMIN = 0.0010     energy-eigenvalue tresh-hold
   EBREAK =  0.28E-07  absolut break condition
   DEPER  =   0.30     relativ break condition  

   TIME   =   0.40     timestep for ELM

  volume/ion in A,a.u.               =      16.23       109.51
  Fermi-wavevector in a.u.,A,eV,Ry     =   1.299944  2.456539 22.991878  1.689855
  Thomas-Fermi vector in A             =   2.431175
 
 Write flags
   LWAVE        =      T    write WAVECAR
   LDOWNSAMPLE  =      F    k-point downsampling of WAVECAR
   LCHARG       =      T    write CHGCAR
   LVTOT        =      F    write LOCPOT, total local potential
   LVHAR        =      F    write LOCPOT, Hartree potential only
   WRT_POTENTIAL= false  ! write potential to hdf5 file
   LELF         =      F    write electronic localiz. function (ELF)
   LORBIT       =      0    0 simple, 1 ext, 2 COOP (PROOUT), +10 PAW based schemes


 Python interface
   PLUGINS active      =      F    recompile with -DPLUGINS to activate
 
 Dipole corrections
   LMONO      =      F    monopole corrections only (constant potential shift)
   LDIPOL     =      F    correct potential (dipole corrections)
   IDIPOL     =      0    1-x, 2-y, 3-z, 4-all directions 
   EPSILON    =  1.0000000 bulk dielectric constant
   LVACPOTAV  =      F  vacuum potentials using an averaging scheme for the charge density
   VACPOTFLAT =  0.1000000 required flatness to determine vacuum potential
 
Coulomb truncation method
  LTRUNCATE          =      F  Coulomb kernel truncation to be used
  IDIMENSIONALITY    =      3  Dimensionality of cutoff (0 molecules / 2 surfaces)
  ISURFACE           =     -1  Direction of surface normal
  LCOARSEN           =      F  Coarsen the charge grid before padding, preferred

 
 Exchange correlation treatment:
   GGA     = PE    functional components
   XC_C    = 1    coefficients multiplying the functional components
   LIBXC   =     F    Libxc                    
   VOSKOWN =     0    Vosko Wilk Nusair interpolation
   LHFCALC =     F    Hartree Fock is set to
   LHFONE  =     F    Hartree Fock one center treatment
   AEXX    =    0.0000 exact exchange contribution

 Parameters of functionals:
   PE:
     No parameter
 
 Van der Waals corrections
   IVDW    =     0    specifies the selected vdW correction

 Linear response parameters
   LEPSILON=     F    determine dielectric tensor
   LRPA    =     F    only Hartree local field effects (RPA)
   LNABLA  =     F    use nabla operator in PAW spheres
   LVEL    =     F    velocity operator in full k-point grid
   CSHIFT  =0.1000    complex shift for real part using Kramers Kronig
   OMEGAMAX=  -1.0    maximum frequency
   DEG_THRESHOLD= 0.2000000E-02 threshold for treating states as degnerate
   RTIME   =   -0.100 relaxation time in fs
  (WPLASMAI=    0.000 imaginary part of plasma frequency in eV, 0.658/RTIME)
   DFIELD  = 0.0000000 0.0000000 0.0000000 field for delta impulse in time
 
  Optional k-point grid parameters
   LKPOINTS_OPT  =     F    use optional k-point grid
   KPOINTS_OPT_MODE=     1    mode for optional k-point grid
 
 Orbital magnetization related:
   ORBITALMAG=     F  switch on orbital magnetization
   LCHIMAG   =     F  perturbation theory with respect to B field
   DQ        =  0.001000  dq finite difference perturbation B field
   LLRAUG    =     F  two centre corrections for induced B field
   LBONE     =     F  B-component reconstruction in AE one-centre
   LVGVCALC  =     T  calculate vGv susceptibility
   LVGVAPPL  =     F  apply vGv susceptibility instead of pGv for G=0

 Random number generation:
   RANDOM_GENERATOR = DEFAULT
   PCG_SEED         = not used


--------------------------------------------------------------------------------------------------------


 quasi-Newton-method for relaxation of ions
 charge density and potential will be updated during run
 non-spin polarized calculation
 Variant of blocked Davidson
 Davidson routine will perform the subspace rotation
 perform sub-space diagonalisation
    after iterative eigenvector-optimisation
 modified Broyden-mixing scheme, WC =      100.0
 initial mixing is a Kerker type mixing with AMIX =  0.4000 and BMIX =      1.0000
 Hartree-type preconditioning will be used
 using additional bands           23
 reciprocal scheme for non local part
 use partial core corrections
 calculate Harris-corrections to forces 
   (improved forces if not selfconsistent)
 use gradient corrections 
 use of overlap-Matrix (Vanderbilt PP)
 Gauss-broadening in eV      SIGMA  =   0.10


--------------------------------------------------------------------------------------------------------


  energy-cutoff  :      520.00
  volume of cell :      259.65
      direct lattice vectors                 reciprocal lattice vectors
     5.647637367  0.000000000  0.000000000     0.177065193  0.000000000  0.000000000
     0.000000000  5.647637367  0.000000000     0.000000000  0.177065193  0.000000000
     0.000000000  0.000000000  8.140666008     0.000000000  0.000000000  0.122840072

  length of vectors
     5.647637367  5.647637367  8.140666008     0.177065193  0.177065193  0.122840072


 
 k-points in units of 2pi/SCALE and weight: K-Spacing Value to Generate K-Mesh: 0.03
   0.00000000  0.00000000  0.00000000       0.007
   0.02951087  0.00000000  0.00000000       0.028
   0.05902173  0.00000000  0.00000000       0.028
   0.08853260  0.00000000  0.00000000       0.014
   0.02951087  0.02951087  0.00000000       0.028
   0.05902173  0.02951087  0.00000000       0.056
   0.08853260  0.02951087  0.00000000       0.028
   0.05902173  0.05902173  0.00000000       0.028
   0.08853260  0.05902173  0.00000000       0.028
   0.08853260  0.08853260  0.00000000       0.007
   0.00000000  0.00000000  0.03071002       0.014
   0.02951087  0.00000000  0.03071002       0.056
   0.05902173  0.00000000  0.03071002       0.056
   0.08853260  0.00000000  0.03071002       0.028
   0.02951087  0.02951087  0.03071002       0.056
   0.05902173  0.02951087  0.03071002       0.111
   0.08853260  0.02951087  0.03071002       0.056
   0.05902173  0.05902173  0.03071002       0.056
   0.08853260  0.05902173  0.03071002       0.056
   0.08853260  0.08853260  0.03071002       0.014
   0.00000000  0.00000000  0.06142004       0.007
   0.02951087  0.00000000  0.06142004       0.028
   0.05902173  0.00000000  0.06142004       0.028
   0.08853260  0.00000000  0.06142004       0.014
   0.02951087  0.02951087  0.06142004       0.028
   0.05902173  0.02951087  0.06142004       0.056
   0.08853260  0.02951087  0.06142004       0.028
   0.05902173  0.05902173  0.06142004       0.028
   0.08853260  0.05902173  0.06142004       0.028
   0.08853260  0.08853260  0.06142004       0.007
 
 k-points in reciprocal lattice and weights: K-Spacing Value to Generate K-Mesh: 0.03
   0.00000000  0.00000000  0.00000000       0.007
   0.16666667  0.00000000  0.00000000       0.028
   0.33333333  0.00000000  0.00000000       0.028
   0.50000000  0.00000000  0.00000000       0.014
   0.16666667  0.16666667  0.00000000       0.028
   0.33333333  0.16666667  0.00000000       0.056
   0.50000000  0.16666667  0.00000000       0.028
   0.33333333  0.33333333  0.00000000       0.028
   0.50000000  0.33333333  0.00000000       0.028
   0.50000000  0.50000000  0.00000000       0.007
   0.00000000  0.00000000  0.25000000       0.014
   0.16666667  0.00000000  0.25000000       0.056
   0.33333333  0.00000000  0.25000000       0.056
   0.50000000  0.00000000  0.25000000       0.028
   0.16666667  0.16666667  0.25000000       0.056
   0.33333333  0.16666667  0.25000000       0.111
   0.50000000  0.16666667  0.25000000       0.056
   0.33333333  0.33333333  0.25000000       0.056
   0.50000000  0.33333333  0.25000000       0.056
   0.50000000  0.50000000  0.25000000       0.014
   0.00000000  0.00000000  0.50000000       0.007
   0.16666667  0.00000000  0.50000000       0.028
   0.33333333  0.00000000  0.50000000       0.028
   0.50000000  0.00000000  0.50000000       0.014
   0.16666667  0.16666667  0.50000000       0.028
   0.33333333  0.16666667  0.50000000       0.056
   0.50000000  0.16666667  0.50000000       0.028
   0.33333333  0.33333333  0.50000000       0.028
   0.50000000  0.33333333  0.50000000       0.028
   0.50000000  0.50000000  0.50000000       0.007
 
 position of ions in fractional coordinates (direct lattice) 
   0.00000000  0.00000000  0.00000000
   0.00000000  0.00000000  0.50000000
   0.00000000  0.50000000  0.00000000
   0.00000000  0.50000000  0.50000000
   0.50000000  0.00000000  0.00000000
   0.50000000  0.00000000  0.50000000
   0.50000000  0.50000000  0.00000000
   0.50000000  0.50000000  0.50000000
   0.25000000  0.25000000  0.25000000
   0.25000000  0.25000000  0.75000000
   0.25000000  0.75000000  0.25000000
   0.25000000  0.75000000  0.75000000
   0.75000000  0.25000000  0.25000000
   0.75000000  0.25000000  0.75000000
   0.75000000  0.75000000  0.25000000
   0.75000000  0.75000000  0.75000000
 
 position of ions in cartesian coordinates  (Angst):
   0.00000000  0.00000000  0.00000000
   0.00000000  0.00000000  4.07033300
   0.00000000  2.82381868  0.00000000
   0.00000000  2.82381868  4.07033300
   2.82381868  0.00000000  0.00000000
   2.82381868  0.00000000  4.07033300
   2.82381868  2.82381868  0.00000000
   2.82381868  2.82381868  4.07033300
   1.41190934  1.41190934  2.03516650
   1.41190934  1.41190934  6.10549951
   1.41190934  4.23572803  2.03516650
   1.41190934  4.23572803  6.10549951
   4.23572803  1.41190934  2.03516650
   4.23572803  1.41190934  6.10549951
   4.23572803  4.23572803  2.03516650
   4.23572803  4.23572803  6.10549951
 


--------------------------------------------------------------------------------------------------------


 k-point     1 :   0.0000 0.0000 0.0000  plane waves:    6979
 k-point     2 :   0.1667 0.0000 0.0000  plane waves:    6995
 k-point     3 :   0.3333 0.0000 0.0000  plane waves:    6993
 k-point     4 :   0.5000 0.0000 0.0000  plane waves:    6982
 k-point     5 :   0.1667 0.1667 0.0000  plane waves:    7013
 k-point     6 :   0.3333 0.1667 0.0000  plane waves:    7002
 k-point     7 :   0.5000 0.1667 0.0000  plane waves:    6962
 k-point     8 :   0.3333 0.3333 0.0000  plane waves:    6989
 k-point     9 :   0.5000 0.3333 0.0000  plane waves:    6958
 k-point    10 :   0.5000 0.5000 0.0000  plane waves:    6948
 k-point    11 :   0.0000 0.0000 0.2500  plane waves:    6998
 k-point    12 :   0.1667 0.0000 0.2500  plane waves:    7005
 k-point    13 :   0.3333 0.0000 0.2500  plane waves:    6994
 k-point    14 :   0.5000 0.0000 0.2500  plane waves:    7006
 k-point    15 :   0.1667 0.1667 0.2500  plane waves:    6995
 k-point    16 :   0.3333 0.1667 0.2500  plane waves:    6991
 k-point    17 :   0.5000 0.1667 0.2500  plane waves:    6998
 k-point    18 :   0.3333 0.3333 0.2500  plane waves:    6994
 k-point    19 :   0.5000 0.3333 0.2500  plane waves:    6958
 k-point    20 :   0.5000 0.5000 0.2500  plane waves:    6956
 k-point    21 :   0.0000 0.0000 0.5000  plane waves:    7022
 k-point    22 :   0.1667 0.0000 0.5000  plane waves:    7006
 k-point    23 :   0.3333 0.0000 0.5000  plane waves:    6990
 k-point    24 :   0.5000 0.0000 0.5000  plane waves:    6992
 k-point    25 :   0.1667 0.1667 0.5000  plane waves:    6986
 k-point    26 :   0.3333 0.1667 0.5000  plane waves:    7000
 k-point    27 :   0.5000 0.1667 0.5000  plane waves:    6992
 k-point    28 :   0.3333 0.3333 0.5000  plane waves:    7014
 k-point    29 :   0.5000 0.3333 0.5000  plane waves:    7004
 k-point    30 :   0.5000 0.5000 0.5000  plane waves:    6944

 maximum and minimum number of plane-waves per node :      7022     6944

 maximum number of plane-waves:      7022
 maximum index in each direction: 
   IXMAX=   10   IYMAX=   10   IZMAX=   15
   IXMIN=  -11   IYMIN=  -10   IZMIN=  -15


 serial   3D FFT for wavefunctions
 parallel 3D FFT for charge:
    minimum data exchange during FFTs selected (reduces bandwidth)


 total amount of memory used by VASP MPI-rank0   133636. kBytes
=======================================================================

   base                                    :      30000. kBytes
   nonl-proj                               :      93040. kBytes
   fftplans                                :        598. kBytes
   grid                                    :       2781. kBytes
   one-center                              :        248. kBytes
   wavefun                                 :       6969. kBytes
 
     INWAV:  cpu time      0.0000: real time      0.0000
 Broyden mixing: mesh for mixing (old mesh)
   NGX = 21   NGY = 21   NGZ = 31
  (NGX  = 64   NGY  = 64   NGZ  = 96)
  gives a total of  13671 points

 initial charge density was supplied:
 charge density of overlapping atoms calculated
 number of electron     130.0000000 magnetization 
 keeping initial charge density in first step


--------------------------------------------------------------------------------------------------------


 Maximum index for augmentation-charges          455 (set IRDMAX)


--------------------------------------------------------------------------------------------------------


 First call to EWALD:  gamma=   0.278
 Maximum number of real-space cells   3x   3x   2
 Maximum number of reciprocal cells   2x   2x   3

    FEWALD:  cpu time      0.0011: real time      0.0011


--------------------------------------- Ionic step        1  -------------------------------------------




--------------------------------------- Iteration      1(   1)  ---------------------------------------


    POTLOK:  cpu time      0.0097: real time      0.0097
    SETDIJ:  cpu time      0.0020: real time      0.0020
     EDDAV:  cpu time      2.2865: real time      2.2866
       DOS:  cpu time      0.0008: real time      0.0008
    --------------------------------------------
      LOOP:  cpu time      2.2991: real time      2.2992

 eigenvalue-minimisations  :  5280
 total energy-change (2. order) : 0.1096691E+04  (-0.6791081E+04)
 number of electron     130.0000000 magnetization 
 augmentation part      130.0000000 magnetization 

 Free energy of the ion-electron system (eV)
  ---------------------------------------------------
  alpha Z        PSCENC =       379.92914741
  Ewald energy   TEWEN  =     -9858.76476248
  -Hartree energ DENC   =     -4785.50822800
  -exchange      EXHF   =         0.00000000
  -V(xc)+E(xc)   XCENC  =       357.92451243
  PAW double counting   =     12183.07835080   -12136.27052386
  entropy T*S    EENTRO =        -0.02625216
  eigenvalues    EBANDS =      -271.94772688
  atomic energy  EATOM  =     15228.27630495
  Solvation  Ediel_sol  =         0.00000000
  ---------------------------------------------------
  free energy    TOTEN  =      1096.69082221 eV

  energy without entropy =     1096.71707437  energy(sigma->0) =     1096.70394829


--------------------------------------------------------------------------------------------------------




--------------------------------------- Iteration      1(   2)  ---------------------------------------


     EDDAV:  cpu time      2.2882: real time      2.2883
       DOS:  cpu time      0.0008: real time      0.0008
    --------------------------------------------
      LOOP:  cpu time      2.2890: real time      2.2891

 eigenvalue-minimisations  :  5280
 total energy-change (2. order) :-0.1094271E+04  (-0.1089527E+04)
 number of electron     130.0000000 magnetization 
 augmentation part      130.0000000 magnetization 

 Free energy of the ion-electron system (eV)
  ---------------------------------------------------
  alpha Z        PSCENC =       379.92914741
  Ewald energy   TEWEN  =     -9858.76476248
  -Hartree energ DENC   =     -4785.50822800
  -exchange      EXHF   =         0.00000000
  -V(xc)+E(xc)   XCENC  =       357.92451243
  PAW double counting   =     12183.07835080   -12136.27052386
  entropy T*S    EENTRO =        -0.05035026
  eigenvalues    EBANDS =     -1366.19456975
  atomic energy  EATOM  =     15228.27630495
  Solvation  Ediel_sol  =         0.00000000
  ---------------------------------------------------
  free energy    TOTEN  =         2.41988124 eV

  energy without entropy =        2.47023150  energy(sigma->0) =        2.44505637


--------------------------------------------------------------------------------------------------------




--------------------------------------- Iteration      1(   3)  ---------------------------------------


     EDDAV:  cpu time      5.6316: real time      5.6320
       DOS:  cpu time      0.0009: real time      0.0008
    --------------------------------------------
      LOOP:  cpu time      5.6325: real time      5.6329

 eigenvalue-minimisations  : 10560
 total energy-change (2. order) :-0.1088222E+03  (-0.1084199E+03)
 number of electron     130.0000000 magnetization 
 augmentation part      130.0000000 magnetization 

 Free energy of the ion-electron system (eV)
  ---------------------------------------------------
  alpha Z        PSCENC =       379.92914741
  Ewald energy   TEWEN  =     -9858.76476248
  -Hartree energ DENC   =     -4785.50822800
  -exchange      EXHF   =         0.00000000
  -V(xc)+E(xc)   XCENC  =       357.92451243
  PAW double counting   =     12183.07835080   -12136.27052386
  entropy T*S    EENTRO =        -0.08609793
  eigenvalues    EBANDS =     -1474.98104999
  atomic energy  EATOM  =     15228.27630495
  Solvation  Ediel_sol  =         0.00000000
  ---------------------------------------------------
  free energy    TOTEN  =      -106.40234667 eV

  energy without entropy =     -106.31624874  energy(sigma->0) =     -106.35929770


--------------------------------------------------------------------------------------------------------




--------------------------------------- Iteration      1(   4)  ---------------------------------------


     EDDAV:  cpu time      2.4465: real time      2.4466
       DOS:  cpu time      0.0008: real time      0.0008
    --------------------------------------------
      LOOP:  cpu time      2.4473: real time      2.4474

 eigenvalue-minimisations  :  5500
 total energy-change (2. order) :-0.4375168E+01  (-0.4372622E+01)
 number of electron     130.0000000 magnetization 
 augmentation part      130.0000000 magnetization 

 Free energy of the ion-electron system (eV)
  ---------------------------------------------------
  alpha Z        PSCENC =       379.92914741
  Ewald energy   TEWEN  =     -9858.76476248
  -Hartree energ DENC   =     -4785.50822800
  -exchange      EXHF   =         0.00000000
  -V(xc)+E(xc)   XCENC  =       357.92451243
  PAW double counting   =     12183.07835080   -12136.27052386
  entropy T*S    EENTRO =        -0.08064319
  eigenvalues    EBANDS =     -1479.36167257
  atomic energy  EATOM  =     15228.27630495
  Solvation  Ediel_sol  =         0.00000000
  ---------------------------------------------------
  free energy    TOTEN  =      -110.77751452 eV

  energy without entropy =     -110.69687132  energy(sigma->0) =     -110.73719292


--------------------------------------------------------------------------------------------------------




--------------------------------------- Iteration      1(   5)  ---------------------------------------


     EDDAV:  cpu time      4.6173: real time      4.6176
       DOS:  cpu time      0.0008: real time      0.0008
    CHARGE:  cpu time      0.0362: real time      0.0361
    MIXING:  cpu time      0.0003: real time      0.0003
    --------------------------------------------
      LOOP:  cpu time      4.6546: real time      4.6549

 eigenvalue-minimisations  :  9196
 total energy-change (2. order) :-0.2773366E+00  (-0.2773187E+00)
 number of electron     129.9999770 magnetization 
 augmentation part       35.3808598 magnetization 

 Broyden mixing:
  rms(total) = 0.27087E+01    rms(broyden)= 0.27087E+01
  rms(prec ) = 0.37077E+01
  weight for this iteration     100.00

 Free energy of the ion-electron system (eV)
  ---------------------------------------------------
  alpha Z        PSCENC =       379.92914741
  Ewald energy   TEWEN  =     -9858.76476248
  -Hartree energ DENC   =     -4785.50822800
  -exchange      EXHF   =         0.00000000
  -V(xc)+E(xc)   XCENC  =       357.92451243
  PAW double counting   =     12183.07835080   -12136.27052386
  entropy T*S    EENTRO =        -0.08034335
  eigenvalues    EBANDS =     -1479.63930901
  atomic energy  EATOM  =     15228.27630495
  Solvation  Ediel_sol  =         0.00000000
  ---------------------------------------------------
  free energy    TOTEN  =      -111.05485112 eV

  energy without entropy =     -110.97450776  energy(sigma->0) =     -111.01467944


--------------------------------------------------------------------------------------------------------




--------------------------------------- Iteration      1(   6)  ---------------------------------------


    POTLOK:  cpu time      0.0106: real time      0.0106
    SETDIJ:  cpu time      0.0016: real time      0.0016
     EDDAV:  cpu time      3.7662: real time      3.7666
       DOS:  cpu time      0.0008: real time      0.0008
    CHARGE:  cpu time      0.0359: real time      0.0359
    MIXING:  cpu time      0.0004: real time      0.0004
    --------------------------------------------
      LOOP:  cpu time      3.8154: real time      3.8158

 eigenvalue-minimisations  :  7876
 total energy-change (2. order) : 0.1132795E+02  (-0.1286342E+02)
 number of electron     129.9999721 magnetization 
 augmentation part       39.5134394 magnetization 

 Broyden mixing:
  rms(total) = 0.89701E+00    rms(broyden)= 0.89695E+00
  rms(prec ) = 0.13503E+01
  weight for this iteration     100.00

 eigenvalues of (default mixing * dielectric matrix)
  average eigenvalue GAMMA=   0.8742
  0.8742

 Free energy of the ion-electron system (eV)
  ---------------------------------------------------
  alpha Z        PSCENC =       379.92914741
  Ewald energy   TEWEN  =     -9858.76476248
  -Hartree energ DENC   =     -4498.47574497
  -exchange      EXHF   =         0.00000000
  -V(xc)+E(xc)   XCENC  =       346.51403950
  PAW double counting   =     13144.54048709   -13099.14214212
  entropy T*S    EENTRO =        -0.08922330
  eigenvalues    EBANDS =     -1742.51501163
  atomic energy  EATOM  =     15228.27630495
  Solvation  Ediel_sol  =         0.00000000
  ---------------------------------------------------
  free energy    TOTEN  =       -99.72690555 eV

  energy without entropy =      -99.63768225  energy(sigma->0) =      -99.68229390


--------------------------------------------------------------------------------------------------------




--------------------------------------- Iteration      1(   7)  ---------------------------------------


    POTLOK:  cpu time      0.0101: real time      0.0101
    SETDIJ:  cpu time      0.0016: real time      0.0016
     EDDAV:  cpu time      2.6889: real time      2.6892
       DOS:  cpu time      0.0008: real time      0.0008
    CHARGE:  cpu time      0.0357: real time      0.0357
    MIXING:  cpu time      0.0004: real time      0.0004
    --------------------------------------------
      LOOP:  cpu time      2.7375: real time      2.7378

 eigenvalue-minimisations  :  6072
 total energy-change (2. order) : 0.1172709E+01  (-0.1327631E+01)
 number of electron     129.9999740 magnetization 
 augmentation part       37.9485900 magnetization 

 Broyden mixing:
  rms(total) = 0.51515E+00    rms(broyden)= 0.51514E+00
  rms(prec ) = 0.60800E+00
  weight for this iteration     100.00

 eigenvalues of (default mixing * dielectric matrix)
  average eigenvalue GAMMA=   1.4967
  0.7571  2.2363

 Free energy of the ion-electron system (eV)
  ---------------------------------------------------
  alpha Z        PSCENC =       379.92914741
  Ewald energy   TEWEN  =     -9858.76476248
  -Hartree energ DENC   =     -4561.94826349
  -exchange      EXHF   =         0.00000000
  -V(xc)+E(xc)   XCENC  =       348.97151739
  PAW double counting   =     13721.83915197   -13669.33971021
  entropy T*S    EENTRO =        -0.06090051
  eigenvalues    EBANDS =     -1687.45668159
  atomic energy  EATOM  =     15228.27630495
  Solvation  Ediel_sol  =         0.00000000
  ---------------------------------------------------
  free energy    TOTEN  =       -98.55419656 eV

  energy without entropy =      -98.49329605  energy(sigma->0) =      -98.52374631


--------------------------------------------------------------------------------------------------------




--------------------------------------- Iteration      1(   8)  ---------------------------------------


    POTLOK:  cpu time      0.0103: real time      0.0103
    SETDIJ:  cpu time      0.0016: real time      0.0016
     EDDAV:  cpu time      3.4571: real time      3.4574
       DOS:  cpu time      0.0008: real time      0.0008
    CHARGE:  cpu time      0.0357: real time      0.0357
    MIXING:  cpu time      0.0004: real time      0.0004
    --------------------------------------------
      LOOP:  cpu time      3.5059: real time      3.5061

 eigenvalue-minimisations  :  7260
 total energy-change (2. order) : 0.9082554E-01  (-0.1307313E+00)
 number of electron     129.9999741 magnetization 
 augmentation part       38.1956315 magnetization 

 Broyden mixing:
  rms(total) = 0.14220E+00    rms(broyden)= 0.14219E+00
  rms(prec ) = 0.17967E+00
  weight for this iteration     100.00

 eigenvalues of (default mixing * dielectric matrix)
  average eigenvalue GAMMA=   1.4106
  0.7121  1.4238  2.0958

 Free energy of the ion-electron system (eV)
  ---------------------------------------------------
  alpha Z        PSCENC =       379.92914741
  Ewald energy   TEWEN  =     -9858.76476248
  -Hartree energ DENC   =     -4543.55168060
  -exchange      EXHF   =         0.00000000
  -V(xc)+E(xc)   XCENC  =       348.40102212
  PAW double counting   =     14781.63360289   -14717.60404844
  entropy T*S    EENTRO =        -0.06491265
  eigenvalues    EBANDS =     -1716.71804423
  atomic energy  EATOM  =     15228.27630495
  Solvation  Ediel_sol  =         0.00000000
  ---------------------------------------------------
  free energy    TOTEN  =       -98.46337102 eV

  energy without entropy =      -98.39845837  energy(sigma->0) =      -98.43091469


--------------------------------------------------------------------------------------------------------




--------------------------------------- Iteration      1(   9)  ---------------------------------------


    POTLOK:  cpu time      0.0107: real time      0.0107
    SETDIJ:  cpu time      0.0016: real time      0.0016
     EDDAV:  cpu time      3.2832: real time      3.2834
       DOS:  cpu time      0.0008: real time      0.0008
    CHARGE:  cpu time      0.0355: real time      0.0355
    MIXING:  cpu time      0.0004: real time      0.0004
    --------------------------------------------
      LOOP:  cpu time      3.3322: real time      3.3323

 eigenvalue-minimisations  :  6996
 total energy-change (2. order) : 0.6388739E-02  (-0.1907990E-01)
 number of electron     129.9999742 magnetization 
 augmentation part       37.9389463 magnetization 

 Broyden mixing:
  rms(total) = 0.54360E-01    rms(broyden)= 0.54350E-01
  rms(prec ) = 0.64731E-01
  weight for this iteration     100.00

 eigenvalues of (default mixing * dielectric matrix)
  average eigenvalue GAMMA=   1.4947
  2.5668  1.8112  0.7071  0.8937

 Free energy of the ion-electron system (eV)
  ---------------------------------------------------
  alpha Z        PSCENC =       379.92914741
  Ewald energy   TEWEN  =     -9858.76476248
  -Hartree energ DENC   =     -4555.01329327
  -exchange      EXHF   =         0.00000000
  -V(xc)+E(xc)   XCENC  =       349.01325750
  PAW double counting   =     14799.24593428   -14732.83378626
  entropy T*S    EENTRO =        -0.06367998
  eigenvalues    EBANDS =     -1708.24610442
  atomic energy  EATOM  =     15228.27630495
  Solvation  Ediel_sol  =         0.00000000
  ---------------------------------------------------
  free energy    TOTEN  =       -98.45698228 eV

  energy without entropy =      -98.39330230  energy(sigma->0) =      -98.42514229


--------------------------------------------------------------------------------------------------------




--------------------------------------- Iteration      1(  10)  ---------------------------------------


    POTLOK:  cpu time      0.0108: real time      0.0108
    SETDIJ:  cpu time      0.0016: real time      0.0016
     EDDAV:  cpu time      3.3749: real time      3.3751
       DOS:  cpu time      0.0008: real time      0.0008
    CHARGE:  cpu time      0.0360: real time      0.0360
    MIXING:  cpu time      0.0004: real time      0.0004
    --------------------------------------------
      LOOP:  cpu time      3.4245: real time      3.4246

 eigenvalue-minimisations  :  7084
 total energy-change (2. order) :-0.2887005E-02  (-0.9667262E-03)
 number of electron     129.9999742 magnetization 
 augmentation part       37.9226804 magnetization 

 Broyden mixing:
  rms(total) = 0.13113E-01    rms(broyden)= 0.13103E-01
  rms(prec ) = 0.14015E-01
  weight for this iteration     100.00

 eigenvalues of (default mixing * dielectric matrix)
  average eigenvalue GAMMA=   1.5474
  2.3244  2.3244  0.7115  1.0110  1.3656

 Free energy of the ion-electron system (eV)
  ---------------------------------------------------
  alpha Z        PSCENC =       379.92914741
  Ewald energy   TEWEN  =     -9858.76476248
  -Hartree energ DENC   =     -4556.98050625
  -exchange      EXHF   =         0.00000000
  -V(xc)+E(xc)   XCENC  =       349.19674039
  PAW double counting   =     14867.78883584   -14797.92658084
  entropy T*S    EENTRO =        -0.06330664
  eigenvalues    EBANDS =     -1709.91574166
  atomic energy  EATOM  =     15228.27630495
  Solvation  Ediel_sol  =         0.00000000
  ---------------------------------------------------
  free energy    TOTEN  =       -98.45986929 eV

  energy without entropy =      -98.39656265  energy(sigma->0) =      -98.42821597


--------------------------------------------------------------------------------------------------------




--------------------------------------- Iteration      1(  11)  ---------------------------------------


    POTLOK:  cpu time      0.0105: real time      0.0105
    SETDIJ:  cpu time      0.0016: real time      0.0016
     EDDAV:  cpu time      3.4484: real time      3.4485
       DOS:  cpu time      0.0008: real time      0.0008
    CHARGE:  cpu time      0.0355: real time      0.0355
    MIXING:  cpu time      0.0004: real time      0.0004
    --------------------------------------------
      LOOP:  cpu time      3.4972: real time      3.4973

 eigenvalue-minimisations  :  7304
 total energy-change (2. order) :-0.8321672E-04  (-0.1741709E-03)
 number of electron     129.9999742 magnetization 
 augmentation part       37.9183314 magnetization 

 Broyden mixing:
  rms(total) = 0.10308E-01    rms(broyden)= 0.10307E-01
  rms(prec ) = 0.12167E-01
  weight for this iteration     100.00

 eigenvalues of (default mixing * dielectric matrix)
  average eigenvalue GAMMA=   1.5900
  2.9269  2.4912  1.5123  1.0981  0.7128  0.7984

 Free energy of the ion-electron system (eV)
  ---------------------------------------------------
  alpha Z        PSCENC =       379.92914741
  Ewald energy   TEWEN  =     -9858.76476248
  -Hartree energ DENC   =     -4557.21704539
  -exchange      EXHF   =         0.00000000
  -V(xc)+E(xc)   XCENC  =       349.21293982
  PAW double counting   =     14849.50609030   -14778.66771607
  entropy T*S    EENTRO =        -0.06334741
  eigenvalues    EBANDS =     -1710.67156364
  atomic energy  EATOM  =     15228.27630495
  Solvation  Ediel_sol  =         0.00000000
  ---------------------------------------------------
  free energy    TOTEN  =       -98.45995250 eV

  energy without entropy =      -98.39660510  energy(sigma->0) =      -98.42827880


--------------------------------------------------------------------------------------------------------




--------------------------------------- Iteration      1(  12)  ---------------------------------------


    POTLOK:  cpu time      0.0109: real time      0.0109
    SETDIJ:  cpu time      0.0016: real time      0.0016
     EDDAV:  cpu time      3.3944: real time      3.3945
       DOS:  cpu time      0.0009: real time      0.0009
    CHARGE:  cpu time      0.0359: real time      0.0358
    MIXING:  cpu time      0.0004: real time      0.0004
    --------------------------------------------
      LOOP:  cpu time      3.4439: real time      3.4441

 eigenvalue-minimisations  :  7084
 total energy-change (2. order) :-0.4253489E-04  (-0.3157429E-04)
 number of electron     129.9999742 magnetization 
 augmentation part       37.9097406 magnetization 

 Broyden mixing:
  rms(total) = 0.19807E-02    rms(broyden)= 0.19786E-02
  rms(prec ) = 0.21925E-02
  weight for this iteration     100.00

 eigenvalues of (default mixing * dielectric matrix)
  average eigenvalue GAMMA=   1.5407
  2.8733  2.3499  1.7128  0.7129  1.1166  1.1166  0.9025

 Free energy of the ion-electron system (eV)
  ---------------------------------------------------
  alpha Z        PSCENC =       379.92914741
  Ewald energy   TEWEN  =     -9858.76476248
  -Hartree energ DENC   =     -4558.32908938
  -exchange      EXHF   =         0.00000000
  -V(xc)+E(xc)   XCENC  =       349.26801870
  PAW double counting   =     14841.67225490   -14769.89022545
  entropy T*S    EENTRO =        -0.06337729
  eigenvalues    EBANDS =     -1710.55826639
  atomic energy  EATOM  =     15228.27630495
  Solvation  Ediel_sol  =         0.00000000
  ---------------------------------------------------
  free energy    TOTEN  =       -98.45999504 eV

  energy without entropy =      -98.39661775  energy(sigma->0) =      -98.42830639


--------------------------------------------------------------------------------------------------------




--------------------------------------- Iteration      1(  13)  ---------------------------------------


    POTLOK:  cpu time      0.0103: real time      0.0103
    SETDIJ:  cpu time      0.0016: real time      0.0016
     EDDAV:  cpu time      2.8139: real time      2.8141
       DOS:  cpu time      0.0008: real time      0.0008
    --------------------------------------------
      LOOP:  cpu time      2.8266: real time      2.8268

 eigenvalue-minimisations  :  5720
 total energy-change (2. order) : 0.8503217E-05  (-0.3167939E-05)
 number of electron     129.9999742 magnetization 
 augmentation part       37.9097406 magnetization 

 Free energy of the ion-electron system (eV)
  ---------------------------------------------------
  alpha Z        PSCENC =       379.92914741
  Ewald energy   TEWEN  =     -9858.76476248
  -Hartree energ DENC   =     -4558.28724421
  -exchange      EXHF   =         0.00000000
  -V(xc)+E(xc)   XCENC  =       349.26410470
  PAW double counting   =     14841.49382662   -14769.64150641
  entropy T*S    EENTRO =        -0.06341032
  eigenvalues    EBANDS =     -1710.66644679
  atomic energy  EATOM  =     15228.27630495
  Solvation  Ediel_sol  =         0.00000000
  ---------------------------------------------------
  free energy    TOTEN  =       -98.45998654 eV

  energy without entropy =      -98.39657622  energy(sigma->0) =      -98.42828138


--------------------------------------------------------------------------------------------------------




 average (electrostatic) potential at core
  the test charge radii are     1.0397  1.0314  1.0406
  (the norm of the test charge is              1.0000)
       1 -72.3852       2 -72.3852       3 -72.3852       4 -72.3852       5 -72.3852
       6 -72.3852       7 -72.3852       8 -72.3852       9 -61.6608      10 -71.3757
      11 -71.4800      12 -71.3767      13 -71.4800      14 -71.3767      15 -71.3717
      16 -71.3881
 
 
 
 E-fermi :   8.2576     XC(G=0): -11.1316     alpha+bet :-16.1171

 val. band max:        8.2380131006   @ k =   0.5000   0.3333   0.0000
 cond. band min:       8.2618876711   @ k =   0.3333   0.0000   0.5000
 fundamental gap:      0.0238745705
 Fermi energy:         8.2576130904

 k-point     1 :       0.0000    0.0000    0.0000
  band No.  band energies     occupation 
      1     -48.3945      2.00000
      2     -48.3939      2.00000
      3     -48.3367      2.00000
      4     -48.3367      2.00000
      5     -48.3362      2.00000
      6     -48.3362      2.00000
      7     -48.2810      2.00000
      8     -48.2806      2.00000
      9     -24.8261      2.00000
     10     -24.8228      2.00000
     11     -24.8145      2.00000
     12     -24.8119      2.00000
     13     -24.8066      2.00000
     14     -24.7901      2.00000
     15     -24.7539      2.00000
     16     -24.7539      2.00000
     17     -24.7518      2.00000
     18     -24.7518      2.00000
     19     -24.7442      2.00000
     20     -24.7442      2.00000
     21     -24.7328      2.00000
     22     -24.7328      2.00000
     23     -24.6908      2.00000
     24     -24.6804      2.00000
     25     -24.3465      2.00000
     26     -24.3465      2.00000
     27     -24.3460      2.00000
     28     -24.3460      2.00000
     29     -24.3101      2.00000
     30     -24.3095      2.00000
     31     -24.2996      2.00000
     32     -24.2990      2.00000
     33      -6.1756      2.00000
     34      -6.1592      2.00000
     35      -6.1364      2.00000
     36      -6.1364      2.00000
     37      -6.1047      2.00000
     38      -0.9314      2.00000
     39       0.5248      2.00000
     40       2.8940      2.00000
     41       2.9785      2.00000
     42       3.3934      2.00000
     43       3.5656      2.00000
     44       3.7173      2.00000
     45       3.7173      2.00000
     46       3.7488      2.00000
     47       5.0402      2.00000
     48       5.3018      2.00000
     49       5.3018      2.00000
     50       5.7348      2.00000
     51       5.9803      2.00000
     52       5.9803      2.00000
     53       6.4275      2.00000
     54       6.5305      2.00000
     55       6.5509      2.00000
     56       7.0722      2.00000
     57       7.0997      2.00000
     58       7.0997      2.00000
     59       7.1011      2.00000
     60       7.4269      2.00000
     61       7.5774      2.00000
     62       7.7636      2.00000
     63       7.7636      2.00000
     64       7.8682      2.00000
     65       7.9488      1.99999
     66       7.9962      1.99978
     67       7.9962      1.99978
     68       8.0950      1.97856
     69       8.0950      1.97856
     70       8.8757      0.00000
     71       9.6415      0.00000
     72       9.6415      0.00000
     73       9.7169      0.00000
     74       9.9754      0.00000
     75       9.9754      0.00000
     76      10.0405      0.00000
     77      10.0405      0.00000
     78      10.0412      0.00000
     79      10.0412      0.00000
     80      10.3634      0.00000
     81      10.4105      0.00000
     82      10.4105      0.00000
     83      10.5291      0.00000
     84      10.5485      0.00000
     85      10.7484      0.00000
     86      10.7500      0.00000
     87      11.1738      0.00000
     88      11.5324      0.00000

 k-point     2 :       0.1667    0.0000    0.0000
  band No.  band energies     occupation 
      1     -48.3906      2.00000
      2     -48.3901      2.00000
      3     -48.3406      2.00000
      4     -48.3401      2.00000
      5     -48.3330      2.00000
      6     -48.3325      2.00000
      7     -48.2848      2.00000
      8     -48.2843      2.00000
      9     -24.8174      2.00000
     10     -24.8141      2.00000
     11     -24.8030      2.00000
     12     -24.7886      2.00000
     13     -24.7874      2.00000
     14     -24.7832      2.00000
     15     -24.7584      2.00000
     16     -24.7563      2.00000
     17     -24.7485      2.00000
     18     -24.7426      2.00000
     19     -24.7367      2.00000
     20     -24.7313      2.00000
     21     -24.7226      2.00000
     22     -24.7207      2.00000
     23     -24.6945      2.00000
     24     -24.6840      2.00000
     25     -24.3790      2.00000
     26     -24.3784      2.00000
     27     -24.3437      2.00000
     28     -24.3432      2.00000
     29     -24.3365      2.00000
     30     -24.3359      2.00000
     31     -24.3067      2.00000
     32     -24.3061      2.00000
     33      -6.1749      2.00000
     34      -6.1594      2.00000
     35      -6.1365      2.00000
     36      -6.1363      2.00000
     37      -6.1044      2.00000
     38      -0.7971      2.00000
     39       0.6212      2.00000
     40       2.2756      2.00000
     41       2.7863      2.00000
     42       3.1319      2.00000
     43       3.3659      2.00000
     44       3.7020      2.00000
     45       3.8538      2.00000
     46       4.9044      2.00000
     47       5.0862      2.00000
     48       5.3523      2.00000
     49       5.6316      2.00000
     50       5.8102      2.00000
     51       5.8428      2.00000
     52       5.9467      2.00000
     53       6.1413      2.00000
     54       6.5384      2.00000
     55       6.6065      2.00000
     56       6.6278      2.00000
     57       6.7532      2.00000
     58       6.9724      2.00000
     59       7.3086      2.00000
     60       7.4780      2.00000
     61       7.6515      2.00000
     62       7.7477      2.00000
     63       7.7960      2.00000
     64       7.8441      2.00000
     65       7.8970      2.00000
     66       7.9571      1.99998
     67       8.1480      1.87906
     68       8.2072      1.52387
     69       8.8657      0.00000
     70       8.9296      0.00000
     71       9.6258      0.00000
     72       9.6860      0.00000
     73       9.7108      0.00000
     74       9.7709      0.00000
     75      10.0599      0.00000
     76      10.0730      0.00000
     77      10.1238      0.00000
     78      10.1749      0.00000
     79      10.1908      0.00000
     80      10.3056      0.00000
     81      10.3938      0.00000
     82      10.4404      0.00000
     83      10.4822      0.00000
     84      10.5065      0.00000
     85      10.5629      0.00000
     86      10.7255      0.00000
     87      10.8901      0.00000
     88      11.3547      0.00000

 k-point     3 :       0.3333    0.0000    0.0000
  band No.  band energies     occupation 
      1     -48.3801      2.00000
      2     -48.3795      2.00000
      3     -48.3512      2.00000
      4     -48.3507      2.00000
      5     -48.3228      2.00000
      6     -48.3224      2.00000
      7     -48.2950      2.00000
      8     -48.2946      2.00000
      9     -24.8043      2.00000
     10     -24.8014      2.00000
     11     -24.7914      2.00000
     12     -24.7762      2.00000
     13     -24.7707      2.00000
     14     -24.7684      2.00000
     15     -24.7601      2.00000
     16     -24.7473      2.00000
     17     -24.7322      2.00000
     18     -24.7204      2.00000
     19     -24.7046      2.00000
     20     -24.7035      2.00000
     21     -24.7013      2.00000
     22     -24.6938      2.00000
     23     -24.6426      2.00000
     24     -24.6415      2.00000
     25     -24.4673      2.00000
     26     -24.4662      2.00000
     27     -24.4192      2.00000
     28     -24.4184      2.00000
     29     -24.3361      2.00000
     30     -24.3355      2.00000
     31     -24.3150      2.00000
     32     -24.3145      2.00000
     33      -6.1736      2.00000
     34      -6.1596      2.00000
     35      -6.1367      2.00000
     36      -6.1362      2.00000
     37      -6.1037      2.00000
     38      -0.4026      2.00000
     39       0.8662      2.00000
     40       1.2544      2.00000
     41       2.0948      2.00000
     42       3.5769      2.00000
     43       3.6278      2.00000
     44       3.9316      2.00000
     45       4.2536      2.00000
     46       4.6038      2.00000
     47       4.9411      2.00000
     48       5.1563      2.00000
     49       5.4860      2.00000
     50       5.7461      2.00000
     51       5.8439      2.00000
     52       6.0243      2.00000
     53       6.4145      2.00000
     54       6.6839      2.00000
     55       6.8166      2.00000
     56       6.8206      2.00000
     57       6.8537      2.00000
     58       6.8980      2.00000
     59       7.4634      2.00000
     60       7.5646      2.00000
     61       7.6033      2.00000
     62       7.6361      2.00000
     63       7.8404      2.00000
     64       7.9149      2.00000
     65       8.0897      1.98245
     66       8.1090      1.96447
     67       8.5359      0.00008
     68       8.5665      0.00001
     69       9.0383      0.00000
     70       9.0861      0.00000
     71       9.1541      0.00000
     72       9.3616      0.00000
     73       9.5285      0.00000
     74       9.7090      0.00000
     75       9.8109      0.00000
     76      10.0246      0.00000
     77      10.1591      0.00000
     78      10.2307      0.00000
     79      10.3023      0.00000
     80      10.3675      0.00000
     81      10.3702      0.00000
     82      10.4027      0.00000
     83      10.4963      0.00000
     84      10.5367      0.00000
     85      10.5383      0.00000
     86      10.6631      0.00000
     87      10.9716      0.00000
     88      11.0800      0.00000

 k-point     4 :       0.5000    0.0000    0.0000
  band No.  band energies     occupation 
      1     -48.3657      2.00000
      2     -48.3656      2.00000
      3     -48.3652      2.00000
      4     -48.3651      2.00000
      5     -48.3090      2.00000
      6     -48.3089      2.00000
      7     -48.3085      2.00000
      8     -48.3085      2.00000
      9     -24.7875      2.00000
     10     -24.7874      2.00000
     11     -24.7849      2.00000
     12     -24.7848      2.00000
     13     -24.7758      2.00000
     14     -24.7757      2.00000
     15     -24.7618      2.00000
     16     -24.7617      2.00000
     17     -24.7184      2.00000
[...]
     69       8.5517      0.00052
     70       9.2626      0.00000
     71       9.2725      0.00000
     72       9.2765      0.00000
     73       9.2931      0.00000
     74       9.3197      0.00000
     75       9.3370      0.00000
     76       9.5700      0.00000
     77       9.6419      0.00000
     78      10.0636      0.00000
     79      10.0710      0.00000
     80      10.1042      0.00000
     81      10.1107      0.00000
     82      10.1135      0.00000
     83      10.1433      0.00000
     84      10.5531      0.00000
     85      10.5599      0.00000
     86      11.0259      0.00000
     87      11.0626      0.00000
     88      11.5192      0.00000

 k-point    29 :       0.5000    0.3333    0.5000
  band No.  band energies     occupation 
      1     -48.2939      2.00000
      2     -48.2938      2.00000
      3     -48.2933      2.00000
      4     -48.2933      2.00000
      5     -48.2653      2.00000
      6     -48.2653      2.00000
      7     -48.2648      2.00000
      8     -48.2647      2.00000
      9     -24.6994      2.00000
     10     -24.6988      2.00000
     11     -24.6987      2.00000
     12     -24.6984      2.00000
     13     -24.6705      2.00000
     14     -24.6701      2.00000
     15     -24.6700      2.00000
     16     -24.6696      2.00000
     17     -24.6176      2.00000
     18     -24.6175      2.00000
     19     -24.6170      2.00000
     20     -24.6170      2.00000
     21     -24.5177      2.00000
     22     -24.5177      2.00000
     23     -24.5140      2.00000
     24     -24.5140      2.00000
     25     -24.4901      2.00000
     26     -24.4901      2.00000
     27     -24.4865      2.00000
     28     -24.4865      2.00000
     29     -24.3855      2.00000
     30     -24.3855      2.00000
     31     -24.3851      2.00000
     32     -24.3850      2.00000
     33      -6.1242      2.00000
     34      -6.1144      2.00000
     35      -6.0916      2.00000
     36      -6.0914      2.00000
     37      -6.0567      2.00000
     38       0.7836      2.00000
     39       1.3812      2.00000
     40       1.4122      2.00000
     41       1.4168      2.00000
     42       2.4149      2.00000
     43       2.7355      2.00000
     44       2.7595      2.00000
     45       2.7617      2.00000
     46       5.8636      2.00000
     47       5.9082      2.00000
     48       5.9180      2.00000
     49       5.9276      2.00000
     50       6.4402      2.00000
     51       6.4735      2.00000
     52       6.4848      2.00000
     53       6.4870      2.00000
     54       7.0809      2.00000
     55       7.1025      2.00000
     56       7.1219      2.00000
     57       7.1377      2.00000
     58       7.7271      2.00000
     59       7.7781      2.00000
     60       7.7839      2.00000
     61       7.8458      2.00000
     62       8.4047      0.16340
     63       8.4056      0.15986
     64       8.4116      0.13588
     65       8.4258      0.09060
     66       8.5294      0.00160
     67       8.5312      0.00146
     68       8.5415      0.00087
     69       8.5651      0.00025
     70       9.1244      0.00000
     71       9.1332      0.00000
     72       9.1405      0.00000
     73       9.1612      0.00000
     74       9.1786      0.00000
     75       9.1882      0.00000
     76       9.2217      0.00000
     77       9.2601      0.00000
     78       9.9883      0.00000
     79       9.9884      0.00000
     80      10.0046      0.00000
     81      10.0404      0.00000
     82      10.2174      0.00000
     83      10.2291      0.00000
     84      10.2333      0.00000
     85      10.2367      0.00000
     86      11.2840      0.00000
     87      11.3062      0.00000
     88      11.3141      0.00000

 k-point    30 :       0.5000    0.5000    0.5000
  band No.  band energies     occupation 
      1     -48.2799      2.00000
      2     -48.2799      2.00000
      3     -48.2793      2.00000
      4     -48.2793      2.00000
      5     -48.2793      2.00000
      6     -48.2793      2.00000
      7     -48.2788      2.00000
      8     -48.2787      2.00000
      9     -24.6853      2.00000
     10     -24.6846      2.00000
     11     -24.6846      2.00000
     12     -24.6846      2.00000
     13     -24.6842      2.00000
     14     -24.6842      2.00000
     15     -24.6841      2.00000
     16     -24.6838      2.00000
     17     -24.5166      2.00000
     18     -24.5165      2.00000
     19     -24.5125      2.00000
     20     -24.5123      2.00000
     21     -24.5046      2.00000
     22     -24.5046      2.00000
     23     -24.5046      2.00000
     24     -24.5046      2.00000
     25     -24.4996      2.00000
     26     -24.4996      2.00000
     27     -24.4996      2.00000
     28     -24.4996      2.00000
     29     -24.4919      2.00000
     30     -24.4918      2.00000
     31     -24.4877      2.00000
     32     -24.4876      2.00000
     33      -6.1235      2.00000
     34      -6.1146      2.00000
     35      -6.0915      2.00000
     36      -6.0915      2.00000
     37      -6.0564      2.00000
     38       1.0620      2.00000
     39       1.9341      2.00000
     40       1.9341      2.00000
     41       1.9851      2.00000
     42       1.9905      2.00000
     43       1.9912      2.00000
     44       1.9935      2.00000
     45       1.9935      2.00000
     46       6.1245      2.00000
     47       6.2222      2.00000
     48       6.2222      2.00000
     49       6.2265      2.00000
     50       6.2272      2.00000
     51       6.2339      2.00000
     52       6.2429      2.00000
     53       6.2429      2.00000
     54       7.8255      2.00000
     55       7.8255      2.00000
     56       7.8734      2.00000
     57       7.9026      2.00000
     58       7.9070      2.00000
     59       7.9070      2.00000
     60       7.9097      2.00000
     61       8.0834      1.99837
     62       8.2528      1.54940
     63       8.2528      1.54940
     64       8.2673      1.41798
     65       8.2894      1.18720
     66       8.3201      0.84366
     67       8.3201      0.84366
     68       8.3226      0.81606
     69       8.3620      0.43019
     70       9.0151      0.00000
     71       9.0255      0.00000
     72       9.0277      0.00000
     73       9.0277      0.00000
     74       9.0331      0.00000
     75       9.0354      0.00000
     76       9.1144      0.00000
     77       9.1144      0.00000
     78       9.9533      0.00000
     79       9.9559      0.00000
     80       9.9559      0.00000
     81       9.9560      0.00000
     82       9.9756      0.00000
     83       9.9821      0.00000
     84       9.9827      0.00000
     85       9.9827      0.00000
     86      11.6305      0.00000
     87      11.6627      0.00000
     88      11.6793      0.00000


--------------------------------------------------------------------------------------------------------


 soft charge-density along one line, spin component           1
         0         1         2         3         4         5         6         7         8         9
 total charge-density along one line
 
 pseudopotential strength for first ion, spin component:           1
 -3.763 -19.482  -0.001  -0.000  -0.001   0.001   0.001   0.001
-19.482   7.525  -0.001  -0.001  -0.001  -0.000  -0.000  -0.000
 -0.001  -0.001 -22.386  -0.002  -0.004   7.048   0.001   0.002
 -0.000  -0.001  -0.002 -22.497  -0.002   0.001   7.124   0.001
 -0.001  -0.001  -0.004  -0.002 -22.386   0.002   0.001   7.048
  0.001  -0.000   7.048   0.001   0.002   6.626  -0.001  -0.001
  0.001  -0.000   0.001   7.124   0.001  -0.001   6.596  -0.001
  0.001  -0.000   0.002   0.001   7.048  -0.001  -0.001   6.626
 -0.003  -0.001  -0.001   0.000  -0.001   0.000  -0.000   0.000
 -0.001  -0.001  -0.001  -0.000   0.000   0.000   0.000  -0.000
 -0.045  -0.013   0.001  -0.001   0.001  -0.001   0.001  -0.001
 -0.001  -0.001   0.000  -0.000  -0.001  -0.000   0.000   0.000
  0.000   0.000   0.001  -0.000  -0.001  -0.001   0.000   0.001
 -0.003  -0.001  -0.001   0.000  -0.001   0.001  -0.000   0.001
 -0.002  -0.001  -0.001  -0.001   0.000   0.000   0.000  -0.000
 -0.056  -0.015   0.001  -0.001   0.001  -0.001   0.001  -0.001
 -0.002  -0.001   0.000  -0.001  -0.001  -0.000   0.000   0.000
  0.000   0.000   0.001  -0.000  -0.001  -0.001   0.000   0.001
 total augmentation occupancy for first ion, spin component:           1
  1.995  -0.057   0.000   0.000   0.000   0.000   0.000   0.000  -0.001  -0.001  -0.020  -0.001   0.000   0.001   0.001   0.020
 -0.057   1.346   0.000   0.000   0.000  -0.003  -0.004  -0.003  -0.010  -0.021  -0.179  -0.021   0.000   0.005   0.009   0.029
  0.000   0.000   1.983   0.000   0.000  -0.035  -0.000  -0.000   0.000   0.001  -0.001  -0.001  -0.001  -0.000  -0.000   0.001
  0.000   0.000   0.000   1.984   0.000  -0.000  -0.036  -0.000  -0.001  -0.000   0.001  -0.000   0.000   0.001   0.000  -0.000
  0.000   0.000   0.000   0.000   1.983  -0.000  -0.000  -0.035   0.000  -0.001  -0.001   0.001   0.001  -0.000   0.001   0.001
  0.000  -0.003  -0.035  -0.000  -0.000   0.109  -0.001  -0.001  -0.002  -0.002   0.000  -0.003   0.001   0.000  -0.000  -0.001
  0.000  -0.004  -0.000  -0.036  -0.000  -0.001   0.100  -0.001  -0.001  -0.003  -0.000  -0.003   0.000   0.000   0.001   0.000
  0.000  -0.003  -0.000  -0.000  -0.035  -0.001  -0.001   0.109  -0.002  -0.003   0.000  -0.002  -0.001   0.000   0.000  -0.001
 -0.001  -0.010   0.000  -0.001   0.000  -0.002  -0.001  -0.002   1.978  -0.007   0.016  -0.007  -0.000  -1.030  -0.001  -0.009
 -0.001  -0.021   0.001  -0.000  -0.001  -0.002  -0.003  -0.003  -0.007   2.513   0.004  -0.003   0.015  -0.000  -1.234  -0.003
 -0.020  -0.179  -0.001   0.001  -0.001   0.000  -0.000   0.000   0.016   0.004   1.720   0.004   0.000  -0.010  -0.003  -0.759
 -0.001  -0.021  -0.001  -0.000   0.001  -0.003  -0.003  -0.002  -0.007  -0.003   0.004   2.513  -0.015  -0.000  -0.004  -0.003
  0.000   0.000  -0.001   0.000   0.001   0.001   0.000  -0.001  -0.000   0.015   0.000  -0.015   2.575  -0.000  -0.010   0.000
  0.001   0.005  -0.000   0.001  -0.000   0.000   0.000   0.000  -1.030  -0.000  -0.010  -0.000  -0.000   0.544   0.002   0.006
  0.001   0.009  -0.000   0.000   0.001  -0.000   0.001   0.000  -0.001  -1.234  -0.003  -0.004  -0.010   0.002   0.634   0.002
  0.020   0.029   0.001  -0.000   0.001  -0.001   0.000  -0.001  -0.009  -0.003  -0.759  -0.003   0.000   0.006   0.002   0.363
  0.001   0.009   0.001   0.000  -0.000   0.000   0.001  -0.000  -0.001  -0.004  -0.003  -1.234   0.010   0.002   0.005   0.002
  0.000   0.000   0.001   0.000  -0.001  -0.001   0.000   0.001   0.000  -0.009   0.000   0.009  -0.967   0.000   0.005   0.000


------------------------ aborting loop because EDIFF is reached ----------------------------------------


    CHARGE:  cpu time      0.0358: real time      0.0358
    FORLOC:  cpu time      0.0005: real time      0.0005
    FORNL :  cpu time      0.6097: real time      0.6098
    STRESS:  cpu time      2.0142: real time      2.0144
    FORCOR:  cpu time      0.0097: real time      0.0097
    FORHAR:  cpu time      0.0019: real time      0.0019
    MIXING:  cpu time      0.0002: real time      0.0002
    OFIELD:  cpu time      0.0000: real time      0.0000

  FORCE on cell =-STRESS in cart. coord.  units (eV):
  Direction    XX          YY          ZZ          XY          YZ          ZX
  --------------------------------------------------------------------------------------
  Alpha Z   381.68433   381.68433   381.68433
  Ewald   -2823.08816 -2823.08816 -4223.25302     0.00000     0.00000     0.00000
  Hartree  1931.37827  1931.37827   693.72596    -0.00000    -0.00000    -0.00000
  E(xc)    -646.54817  -646.54817  -648.18146    -0.00000    -0.00000     0.00000
  Local    -922.52783  -922.52783  1753.01544     0.00000    -0.00000    -0.00000
  n-local  -121.62351  -157.54531   -83.33648    -3.46553     0.74228     1.62073
  augment   618.27825   618.27825   595.73471     0.00000     0.00000     0.00000
  Kinetic  1581.51686  1619.29957  1530.65300     1.78379    -2.22432    -2.01354
  Fock        0.00000     0.00000     0.00000     0.00000     0.00000     0.00000
  -------------------------------------------------------------------------------------
  Total       0.00049     0.00049     0.04250     0.00000    -0.00000     0.00000
  in kB       0.00301     0.00301     0.26346     0.00000    -0.00000     0.00000
  external pressure =        0.09 kB  Pullay stress =        0.00 kB


 VOLUME and BASIS-vectors are now :
 -----------------------------------------------------------------------------
  energy-cutoff  :      520.00
  volume of cell :      258.46
      direct lattice vectors                 reciprocal lattice vectors
     5.645286061 -0.000000000  0.000000000     0.177138942 -0.000000000 -0.000000000
     0.000000000  5.645286061  0.000000000     0.000000000  0.177138942 -0.000000000
     0.000000000  0.000000000  8.109982462    -0.000000000 -0.000000000  0.123304829

  length of vectors
     5.645286061  5.645286061  8.109982462     0.177138942  0.177138942  0.123304829


 FORCES acting on ions
    electron-ion (+dipol)            ewald-force                    non-local-force                 convergence-correction
 -----------------------------------------------------------------------------------------------
   0.692E+02 0.692E+02 0.163E+03   -.694E+02 -.694E+02 -.163E+03   0.173E+00 0.173E+00 0.199E+00   0.601E-03 0.601E-03 0.385E-02
   0.692E+02 0.692E+02 -.163E+03   -.694E+02 -.694E+02 0.163E+03   0.173E+00 0.173E+00 -.199E+00   0.601E-03 0.601E-03 -.385E-02
   0.692E+02 -.692E+02 0.163E+03   -.694E+02 0.694E+02 -.163E+03   0.173E+00 -.173E+00 0.199E+00   0.601E-03 -.601E-03 0.385E-02
   0.692E+02 -.692E+02 -.163E+03   -.694E+02 0.694E+02 0.163E+03   0.173E+00 -.173E+00 -.199E+00   0.601E-03 -.601E-03 -.385E-02
   -.692E+02 0.692E+02 0.163E+03   0.694E+02 -.694E+02 -.163E+03   -.173E+00 0.173E+00 0.199E+00   -.601E-03 0.601E-03 0.385E-02
   -.692E+02 0.692E+02 -.163E+03   0.694E+02 -.694E+02 0.163E+03   -.173E+00 0.173E+00 -.199E+00   -.601E-03 0.601E-03 -.385E-02
   -.692E+02 -.692E+02 0.163E+03   0.694E+02 0.694E+02 -.163E+03   -.173E+00 -.173E+00 0.199E+00   -.601E-03 -.601E-03 0.385E-02
   -.692E+02 -.692E+02 -.163E+03   0.694E+02 0.694E+02 0.163E+03   -.173E+00 -.173E+00 -.199E+00   -.601E-03 -.601E-03 -.385E-02
   0.434E-12 0.128E-11 -.144E-11   0.142E-12 -.164E-13 0.257E-13   0.790E-27 0.000E+00 0.000E+00   0.543E-12 0.302E-13 0.260E-12
   -.116E-13 -.601E-12 0.386E-13   0.630E-13 0.118E-13 0.109E-13   -.779E-26 0.000E+00 0.000E+00   -.437E-13 0.526E-14 -.419E-13
   -.112E-13 -.108E-12 -.533E-12   -.318E-13 -.313E-13 0.690E-14   0.132E-22 0.000E+00 -.132E-22   0.541E-13 0.163E-14 -.353E-13
   -.863E-14 0.829E-12 0.262E-12   0.115E-13 0.125E-14 -.216E-13   -.331E-23 0.331E-23 -.165E-23   -.471E-13 -.487E-14 0.376E-13
   -.637E-13 0.570E-12 0.231E-12   -.208E-13 -.439E-14 -.125E-13   0.184E-25 -.397E-22 -.662E-23   -.570E-13 -.358E-14 0.474E-13
   -.270E-13 -.174E-12 0.617E-12   -.202E-15 0.233E-13 -.172E-13   -.153E-25 0.000E+00 0.165E-23   0.451E-13 0.613E-14 -.478E-13
   -.358E-13 0.404E-12 -.155E-12   0.232E-13 0.159E-13 -.111E-14   0.909E-26 0.000E+00 0.000E+00   -.522E-13 0.378E-14 -.342E-13
   -.292E-13 0.438E-12 0.242E-12   0.357E-13 0.411E-14 0.336E-13   0.160E-27 -.827E-24 0.000E+00   0.485E-13 -.596E-14 0.335E-13
 -----------------------------------------------------------------------------------------------
   0.912E-11 0.243E-10 0.249E-10   -.161E-12 0.184E-13 -.607E-13   0.555E-16 -.278E-16 -.278E-16   0.193E-12 -.410E-12 -.478E-12
 
 
 POSITION                                       TOTAL-FORCE (eV/Angst)
 -----------------------------------------------------------------------------------
      0.00111      0.00111      0.00501        -0.000563     -0.000563      0.006058
      0.00111      0.00111      4.04999        -0.000563     -0.000563     -0.006058
      0.00111      2.82153      0.00501        -0.000563      0.000563      0.006058
      0.00111      2.82153      4.04999        -0.000563      0.000563     -0.006058
      2.82153      0.00111      0.00501         0.000563     -0.000563      0.006058
      2.82153      0.00111      4.04999         0.000563     -0.000563     -0.006058
      2.82153      2.82153      0.00501         0.000563      0.000563      0.006058
      2.82153      2.82153      4.04999         0.000563      0.000563     -0.006058
      1.41132      1.41132      2.02750         0.000000      0.000000     -0.000000
      1.41132      1.41132      6.08249         0.000000      0.000000     -0.000000
      1.41132      4.23396      2.02750         0.000000      0.000000     -0.000000
      1.41132      4.23396      6.08249         0.000000      0.000000     -0.000000
      4.23396      1.41132      2.02750         0.000000      0.000000     -0.000000
      4.23396      1.41132      6.08249         0.000000      0.000000     -0.000000
      4.23396      4.23396      2.02750         0.000000      0.000000     -0.000000
      4.23396      4.23396      6.08249         0.000000      0.000000     -0.000000
 -----------------------------------------------------------------------------------
    total drift:                                0.000000      0.000000      0.000000


--------------------------------------------------------------------------------------------------------



  FREE ENERGIE OF THE ION-ELECTRON SYSTEM (eV)
  ---------------------------------------------------
  free  energy   TOTEN  =       -98.46296485 eV

  energy  without entropy=      -98.40024442  energy(sigma->0) =      -98.43160463
 d Force = 0.1743219E-03[ 0.938E-04, 0.255E-03]  d Energy = 0.6236804E-04 0.112E-03
 d Force =-0.2794127E+01[-0.281E+01,-0.278E+01]  d Ewald  =-0.4576716E+00-0.234E+01
 


--------------------------------------------------------------------------------------------------------


    POTLOK:  cpu time      0.0098: real time      0.0098


--------------------------------------------------------------------------------------------------------


 Quasi-Newton relaxation of ions (Broydens 2nd method)
  g(Force)  = 0.144E-04   g(Stress)= 0.545E-05

 retain information from N=  2 steps
 eigenvalues of (default step * inverse Hessian matrix)
  average eigenvalue of G=   1.6429
 eigenvalue spectrum of G is  1.6429  1.6429


--------------------------------------------------------------------------------------------------------


  
 reached required accuracy - stopping structural energy minimisation
 writing wavefunctions
     LOOP+:  cpu time     20.6602: real time     20.6854
    4ORBIT:  cpu time      0.0000: real time      0.0000

 total amount of memory used by VASP MPI-rank0   133636. kBytes
=======================================================================

   base                                    :      30000. kBytes
   nonl-proj                               :      93040. kBytes
   fftplans                                :        598. kBytes
   grid                                    :       2781. kBytes
   one-center                              :        248. kBytes
   wavefun                                 :       6969. kBytes
 
  
  
 General timing and accounting informations for this job:
 ========================================================
  
                  Total CPU time used (sec):      145.859
                            User time (sec):      136.543
                          System time (sec):        9.316
                         Elapsed time (sec):      146.150
  
                   Maximum memory used (kb):      268288.
                   Average memory used (kb):          N/A
  
                          Minor page faults:        48611
                          Major page faults:           14
                 Voluntary context switches:          227
