<?xml version="1.0" encoding="ISO-8859-1"?>
<modeling>
 <generator>
  <i name="program" type="string">vasp </i>
  <i name="version" type="string">6.5.0  </i>
  <i name="subversion" type="string">16Dec24 (build Apr 17 2025 17:55:45) complex                          parallel </i>
  <i name="platform" type="string">LinuxIFC </i>
  <i name="date" type="string">2025 06 03 </i>
  <i name="time" type="string">18:30:27 </i>
 </generator>
 <incar>
  <i type="string" name="SYSTEM">CaNi2</i>
  <i type="int" name="ISTART">     0</i>
  <i type="string" name="PREC">N</i>
  <i type="string" name="ALGO">N</i>
  <i type="int" name="ICHARG">     2</i>
  <i type="int" name="NELM">   500</i>
  <i type="int" name="IBRION">     1</i>
  <i name="EDIFF">      0.00001000</i>
  <i name="EDIFFG">     -0.01000000</i>
  <i type="int" name="NSW">   300</i>
  <i type="int" name="ISIF">     3</i>
  <i name="ENCUT">    520.00000000</i>
  <i type="logical" name="LREAL"> F  </i>
  <i type="int" name="ISMEAR">     0</i>
  <i name="SIGMA">      0.10000000</i>
 </incar>
 <primitive_cell>
  <structure name="primitive_cell" >
   <crystal>
    <varray name="basis" >
     <v>       5.64763737       0.00000000       0.00000000 </v>
     <v>       0.00000000       5.64763737       0.00000000 </v>
     <v>       0.00000000       0.00000000       8.14066601 </v>
    </varray>
    <i name="volume">    259.65311861 </i>
    <varray name="rec_basis" >
     <v>       0.17706519       0.00000000       0.00000000 </v>
     <v>       0.00000000       0.17706519       0.00000000 </v>
     <v>       0.00000000       0.00000000       0.12284007 </v>
    </varray>
   </crystal>
   <varray name="positions" >
    <v>       0.00000000       0.00000000       0.00000000 </v>
    <v>       0.00000000       0.00000000       0.50000000 </v>
    <v>       0.00000000       0.50000000       0.00000000 </v>
    <v>       0.00000000       0.50000000       0.50000000 </v>
    <v>       0.50000000       0.00000000       0.00000000 </v>
    <v>       0.50000000       0.00000000       0.50000000 </v>
    <v>       0.50000000       0.50000000       0.00000000 </v>
    <v>       0.50000000       0.50000000       0.50000000 </v>
    <v>       0.25000000       0.25000000       0.25000000 </v>
    <v>       0.25000000       0.25000000       0.75000000 </v>
    <v>       0.25000000       0.75000000       0.25000000 </v>
    <v>       0.25000000       0.75000000       0.75000000 </v>
    <v>       0.75000000       0.25000000       0.25000000 </v>
    <v>       0.75000000       0.25000000       0.75000000 </v>
    <v>       0.75000000       0.75000000       0.25000000 </v>
    <v>       0.75000000       0.75000000       0.75000000 </v>
   </varray>
  </structure>
  <varray name="primitive_index" >
   <v type="int" >        1 </v>
   <v type="int" >        2 </v>
   <v type="int" >        3 </v>
   <v type="int" >        4 </v>
   <v type="int" >        5 </v>
   <v type="int" >        6 </v>
   <v type="int" >        7 </v>
   <v type="int" >        8 </v>
   <v type="int" >        9 </v>
   <v type="int" >       10 </v>
   <v type="int" >       11 </v>
   <v type="int" >       12 </v>
   <v type="int" >       13 </v>
   <v type="int" >       14 </v>
   <v type="int" >       15 </v>
   <v type="int" >       16 </v>
  </varray>
 </primitive_cell>
 <kpoints>
  <generation param="Gamma">
   <v type="int" name="divisions">       6        6        4 </v>
   <v name="usershift">      0.00000000       0.00000000       0.00000000 </v>
   <v name="genvec1">      0.16666667       0.00000000       0.00000000 </v>
   <v name="genvec2">      0.00000000       0.16666667       0.00000000 </v>
   <v name="genvec3">      0.00000000       0.00000000       0.25000000 </v>
   <v name="shift">      0.00000000       0.00000000       0.00000000 </v>
  </generation>
  <varray name="kpointlist" >
   <v>       0.00000000       0.00000000       0.00000000 </v>
   <v>       0.16666667       0.00000000       0.00000000 </v>
   <v>       0.33333333       0.00000000       0.00000000 </v>
   <v>       0.50000000       0.00000000       0.00000000 </v>
   <v>       0.16666667       0.16666667       0.00000000 </v>
   <v>       0.33333333       0.16666667       0.00000000 </v>
   <v>       0.50000000       0.16666667       0.00000000 </v>
   <v>       0.33333333       0.33333333       0.00000000 </v>
   <v>       0.50000000       0.33333333       0.00000000 </v>
   <v>       0.50000000       0.50000000       0.00000000 </v>
   <v>       0.00000000       0.00000000       0.25000000 </v>
   <v>       0.16666667       0.00000000       0.25000000 </v>
   <v>       0.33333333       0.00000000       0.25000000 </v>
   <v>       0.50000000       0.00000000       0.25000000 </v>
   <v>       0.16666667       0.16666667       0.25000000 </v>
   <v>       0.33333333       0.16666667       0.25000000 </v>
   <v>       0.50000000       0.16666667       0.25000000 </v>
   <v>       0.33333333       0.33333333       0.25000000 </v>
   <v>       0.50000000       0.33333333       0.25000000 </v>
   <v>       0.50000000       0.50000000       0.25000000 </v>
   <v>       0.00000000       0.00000000       0.50000000 </v>
   <v>       0.16666667       0.00000000       0.50000000 </v>
   <v>       0.33333333       0.00000000       0.50000000 </v>
   <v>       0.50000000       0.00000000       0.50000000 </v>
   <v>       0.16666667       0.16666667       0.50000000 </v>
   <v>       0.33333333       0.16666667       0.50000000 </v>
   <v>       0.50000000       0.16666667       0.50000000 </v>
   <v>       0.33333333       0.33333333       0.50000000 </v>
   <v>       0.50000000       0.33333333       0.50000000 </v>
   <v>       0.50000000       0.50000000       0.50000000 </v>
  </varray>
  <varray name="weights" >
   <v>       0.00694444 </v>
   <v>       0.02777778 </v>
   <v>       0.02777778 </v>
   <v>       0.01388889 </v>
   <v>       0.02777778 </v>
   <v>       0.05555556 </v>
   <v>       0.02777778 </v>
   <v>       0.02777778 </v>
   <v>       0.02777778 </v>
   <v>       0.00694444 </v>
   <v>       0.01388889 </v>
   <v>       0.05555556 </v>
   <v>       0.05555556 </v>
   <v>       0.02777778 </v>
   <v>       0.05555556 </v>
   <v>       0.11111111 </v>
   <v>       0.05555556 </v>
   <v>       0.05555556 </v>
   <v>       0.05555556 </v>
   <v>       0.01388889 </v>
   <v>       0.00694444 </v>
   <v>       0.02777778 </v>
   <v>       0.02777778 </v>
   <v>       0.01388889 </v>
   <v>       0.02777778 </v>
   <v>       0.05555556 </v>
   <v>       0.02777778 </v>
   <v>       0.02777778 </v>
   <v>       0.02777778 </v>
   <v>       0.00694444 </v>
  </varray>
 </kpoints>
 <parameters>
  <separator name="general" >
   <i type="string" name="SYSTEM">CaNi2</i>
   <i type="logical" name="LCOMPAT"> F  </i>
  </separator>
  <separator name="electronic" >
   <i type="string" name="PREC">n</i>
   <i name="ENMAX">    520.00000000</i>
   <i name="ENAUG">    490.69000000</i>
   <i name="EDIFF">      0.00001000</i>
   <i type="int" name="IALGO">    38</i>
   <i type="int" name="IWAVPR">    11</i>
   <i type="int" name="NBANDS">    88</i>
   <i type="int" name="NBANDSLOW">    -1</i>
   <i type="int" name="NBANDSHIGH">    -1</i>
   <i name="NELECT">    130.00000000</i>
   <i type="int" name="TURBO">     0</i>
   <i type="int" name="IRESTART">     0</i>
   <i type="int" name="NREBOOT">     0</i>
   <i type="int" name="NMIN">     0</i>
   <i name="EREF">      0.00000000</i>
   <separator name="electronic smearing" >
    <i type="int" name="ISMEAR">     0</i>
    <i name="SIGMA">      0.10000000</i>
    <i name="KSPACING">      0.50000000</i>
    <i type="logical" name="KGAMMA"> T  </i>
    <i type="logical" name="KBLOWUP"> T  </i>
   </separator>
   <separator name="electronic projectors" >
    <i type="logical" name="LREAL"> F  </i>
    <v name="ROPT">      0.00000000      0.00000000      0.00000000</v>
    <i type="int" name="LMAXPAW">  -100</i>
    <i type="int" name="LMAXMIX">     2</i>
    <i type="logical" name="NLSPLINE"> F  </i>
   </separator>
   <separator name="electronic startup" >
    <i type="int" name="ISTART">     0</i>
    <i type="int" name="ICHARG">     2</i>
    <i type="int" name="INIWAV">     1</i>
   </separator>
   <separator name="electronic spin" >
    <i type="int" name="ISPIN">     1</i>
    <i type="logical" name="LNONCOLLINEAR"> F  </i>
    <v name="MAGMOM">      1.00000000      1.00000000      1.00000000      1.00000000      1.00000000      1.00000000      1.00000000      1.00000000      1.00000000      1.00000000      1.00000000      1.00000000      1.00000000      1.00000000      1.00000000      1.00000000</v>
    <i name="NUPDOWN">     -1.00000000</i>
    <i type="logical" name="LSORBIT"> F  </i>
    <v name="SAXIS">      0.00000000      0.00000000      1.00000000</v>
    <i type="logical" name="LSPIRAL"> F  </i>
    <v name="QSPIRAL">      0.00000000      0.00000000      0.00000000</v>
    <i type="logical" name="LZEROZ"> F  </i>
   </separator>
   <separator name="electronic exchange-correlation" >
    <i type="logical" name="LASPH"> F  </i>
   </separator>
   <separator name="electronic convergence" >
    <i type="int" name="NELM">   500</i>
    <i type="int" name="NELMDL">    -5</i>
    <i type="int" name="NELMIN">     2</i>
    <i name="ENINI">    520.00000000</i>
    <separator name="electronic convergence detail" >
     <i type="logical" name="LDIAG"> T  </i>
     <i type="logical" name="LSUBROT"> F  </i>
     <i name="WEIMIN">      0.00100000</i>
     <i name="EBREAK">      0.00000003</i>
     <i name="DEPER">      0.30000000</i>
     <i type="int" name="NRMM">     4</i>
     <i name="TIME">      0.40000000</i>
    </separator>
   </separator>
   <separator name="electronic mixer" >
    <i name="AMIX">      0.40000000</i>
    <i name="BMIX">      1.00000000</i>
    <i name="AMIN">      0.10000000</i>
    <i name="AMIX_MAG">      1.60000000</i>
    <i name="BMIX_MAG">      1.00000000</i>
    <separator name="electronic mixer details" >
     <i type="int" name="IMIX">     4</i>
     <i type="logical" name="MIXFIRST"> F  </i>
     <i type="int" name="MAXMIX">   -45</i>
     <i name="WC">    100.00000000</i>
     <i type="int" name="INIMIX">     1</i>
     <i type="int" name="MIXPRE">     1</i>
     <i type="int" name="MREMOVE">     5</i>
    </separator>
   </separator>
   <separator name="electronic dipolcorrection" >
    <i type="logical" name="LDIPOL"> F  </i>
    <i type="logical" name="LMONO"> F  </i>
    <i type="int" name="IDIPOL">     0</i>
    <i name="EPSILON">      1.00000000</i>
    <v name="DIPOL">   -100.00000000   -100.00000000   -100.00000000</v>
    <i name="EFIELD">      0.00000000</i>
    <i type="logical" name="LVACPOTAV"> F  </i>
   </separator>
  </separator>
  <separator name="grids" >
   <i type="int" name="NGX">    32</i>
   <i type="int" name="NGY">    32</i>
   <i type="int" name="NGZ">    48</i>
   <i type="int" name="NGXF">    64</i>
   <i type="int" name="NGYF">    64</i>
   <i type="int" name="NGZF">    96</i>
   <i type="logical" name="ADDGRID"> F  </i>
  </separator>
  <separator name="ionic" >
   <i type="int" name="NSW">   300</i>
   <i type="int" name="IBRION">     1</i>
   <i type="int" name="MDALGO">     0</i>
   <i type="int" name="ISIF">     3</i>
   <i name="PSTRESS">      0.00000000</i>
   <i name="EDIFFG">     -0.01000000</i>
   <i type="int" name="NFREE">     0</i>
   <i name="POTIM">      0.50000000</i>
   <i name="SMASS">     -3.00000000</i>
   <i name="SCALEE">      1.00000000</i>
  </separator>
  <separator name="ionic md" >
   <i name="TEBEG">      0.00010000</i>
   <i name="TEEND">      0.00010000</i>
   <i type="int" name="NBLOCK">     1</i>
   <i type="int" name="KBLOCK">   300</i>
   <i type="int" name="NPACO">   256</i>
   <i name="APACO">     10.00000000</i>
  </separator>
  <separator name="symmetry" >
   <i type="int" name="ISYM">     2</i>
   <i name="SYMPREC">      0.00001000</i>
  </separator>
  <separator name="dos" >
   <i type="int" name="LORBIT">     0</i>
   <v name="RWIGS">     -1.00000000     -1.00000000     -1.00000000</v>
   <i type="int" name="NEDOS">   301</i>
   <i name="EMIN">     10.00000000</i>
   <i name="EMAX">    -10.00000000</i>
   <i name="EFERMI">      0.00000000</i>
  </separator>
  <separator name="writing" >
   <i type="int" name="NWRITE">     2</i>
   <i type="logical" name="LWAVE"> T  </i>
   <i type="logical" name="LDOWNSAMPLE"> F  </i>
   <i type="logical" name="LCHARG"> T  </i>
   <i type="logical" name="LPARD"> F  </i>
   <i type="logical" name="LVTOT"> F  </i>
   <i type="logical" name="LVHAR"> F  </i>
   <i type="logical" name="LELF"> F  </i>
   <i type="logical" name="LOPTICS"> F  </i>
   <v name="STM">      0.00000000      0.00000000      0.00000000      0.00000000      0.00000000      0.00000000      0.00000000</v>
  </separator>
  <separator name="performance" >
   <i type="int" name="NPAR">    44</i>
   <i type="int" name="NSIM">     4</i>
   <i type="int" name="NBLK">    -1</i>
   <i type="logical" name="LPLANE"> T  </i>
   <i type="logical" name="LSCALAPACK"> T  </i>
   <i type="logical" name="LSCAAWARE"> F  </i>
   <i type="logical" name="LSCALU"> F  </i>
   <i type="logical" name="LASYNC"> F  </i>
   <i type="logical" name="LORBITALREAL"> F  </i>
  </separator>
  <separator name="miscellaneous" >
   <i type="int" name="IDIOT">     3</i>
   <i type="int" name="PHON_NSTRUCT">    -1</i>
   <i type="logical" name="LMUSIC"> F  </i>
   <v name="POMASS">     47.88000000     69.72300000     26.98100000</v>
   <v name="DARWINR">      0.00000000      0.00000000      0.00000000</v>
   <v name="DARWINV">      1.00000000      1.00000000      1.00000000</v>
   <i type="logical" name="LCORR"> T  </i>
  </separator>
  <i type="logical" name="GGA_COMPAT"> T  </i>
  <i type="logical" name="LBERRY"> F  </i>
  <i type="int" name="ICORELEVEL">     0</i>
  <i type="logical" name="LDAU"> F  </i>
  <i type="int" name="I_CONSTRAINED_M">     0</i>
  <separator name="electronic exchange-correlation" >
   <i type="string" name="GGA    ">PE</i>
   <i type="string" name="XC_C">1</i>
   <i type="int" name="VOSKOWN">     0</i>
   <i type="logical" name="LHFCALC"> F  </i>
   <i type="string" name="PRECFOCK"></i>
   <i type="logical" name="LSYMGRAD"> F  </i>
   <i type="logical" name="LHFONE"> F  </i>
   <i type="logical" name="LRHFCALC"> F  </i>
   <i type="logical" name="LTHOMAS"> F  </i>
   <i type="logical" name="LMODELHF"> F  </i>
   <i type="logical" name="LFOCKACE"> F  </i>
   <i name="ENCUT4O">     -1.00000000</i>
   <i type="int" name="EXXOEP">     0</i>
   <i type="int" name="FOURORBIT">     0</i>
   <i name="AEXX">      0.00000000</i>
   <i name="HFALPHA">      0.00000000</i>
   <i name="MCALPHA">      0.00000000</i>
   <i name="ALDAX">      1.00000000</i>
   <i name="AGGAX">      1.00000000</i>
   <i name="AMGGAX">      1.00000000</i>
   <i name="ALDAC">      1.00000000</i>
   <i name="AGGAC">      1.00000000</i>
   <i name="AMGGAC">      1.00000000</i>
   <i type="int" name="NKREDX">     1</i>
   <i type="int" name="NKREDY">     1</i>
   <i type="int" name="NKREDZ">     1</i>
   <i type="logical" name="SHIFTRED"> F  </i>
   <i type="logical" name="ODDONLY"> F  </i>
   <i type="logical" name="EVENONLY"> F  </i>
   <i type="int" name="LMAXFOCK">     0</i>
   <i type="int" name="NMAXFOCKAE">     0</i>
   <i type="logical" name="LFOCKAEDFT"> F  </i>
   <i name="HFSCREEN">      0.00000000</i>
   <i name="HFSCREENC">      0.00000000</i>
   <i type="int" name="NBANDSGWLOW">     0</i>
  </separator>
  <separator name="vdW DFT" >
   <i type="logical" name="LUSE_VDW"> F  </i>
   <i type="int" name="IVDW_NL">    -1</i>
   <i type="logical" name="LSPIN_VDW"> F  </i>
   <i name="ZAB_VDW">     -0.84910000</i>
   <i name="GAMMA_VDW">      1.39626340</i>
   <i name="ALPHA_VDW">      0.00000000</i>
   <i name="PARAM1">      0.12340000</i>
   <i name="PARAM2">      1.00000000</i>
   <i name="BPARAM">      6.30000000</i>
   <i name="CPARAM">      0.00930000</i>
  </separator>
  <separator name="model GW" >
   <i type="int" name="MODEL_GW">     0</i>
   <i name="MODEL_EPS0">      9.73699195</i>
   <i name="MODEL_ALPHA">      1.00000000</i>
  </separator>
  <separator name="linear response parameters" >
   <i type="logical" name="LEPSILON"> F  </i>
   <i type="logical" name="LRPA"> F  </i>
   <i type="logical" name="LNABLA"> F  </i>
   <i type="logical" name="LVEL"> F  </i>
   <i name="CSHIFT">      0.10000000</i>
   <i name="OMEGAMAX">     -1.00000000</i>
   <i name="DEG_THRESHOLD">      0.00200000</i>
   <i name="RTIME">     -0.10000000</i>
   <i name="WPLASMAI">      0.00000000</i>
   <v name="DFIELD">      0.00000000      0.00000000      0.00000000</v>
   <v name="WPLASMA">      0.00000000      0.00000000      0.00000000      0.00000000      0.00000000      0.00000000      0.00000000      0.00000000      0.00000000</v>
  </separator>
  <separator name="orbital magnetization" >
   <i type="logical" name="NUCIND"> F  </i>
   <v name="MAGPOS">      0.00000000      0.00000000      0.00000000</v>
   <i type="logical" name="LNICSALL"> T  </i>
   <i type="logical" name="ORBITALMAG"> F  </i>
   <i type="logical" name="LMAGBLOCH"> F  </i>
   <i type="logical" name="LCHIMAG"> F  </i>
   <i type="logical" name="LGAUGE"> T  </i>
   <i type="int" name="MAGATOM">     0</i>
   <v name="MAGDIPOL">      0.00000000      0.00000000      0.00000000</v>
   <v name="AVECCONST">      0.00000000      0.00000000      0.00000000</v>
  </separator>
  <separator name="response functions" >
   <i type="logical" name="LALL_IN_ONE"> F  </i>
   <i type="int" name="IALL_IN_ONE">    -1</i>
   <i type="int" name="NBANDS_WAVE">    -1</i>
   <i type="logical" name="LFINITE_TEMPERATURE"> F  </i>
   <i type="logical" name="LADDER"> F  </i>
   <i type="logical" name="LRPAFORCE"> F  </i>
   <i type="logical" name="LFXC"> F  </i>
   <i type="logical" name="LHARTREE"> T  </i>
   <i type="int" name="IBSE">     2</i>
   <v type="int" name="KPOINT">    -1     0     0     0</v>
   <i type="logical" name="LTCTC"> F  </i>
   <i type="logical" name="LTCTE"> F  </i>
   <i type="logical" name="LTETE"> F  </i>
   <i type="logical" name="LTRIPLET"> F  </i>
   <i type="logical" name="LFXCEPS"> F  </i>
   <i type="logical" name="LFXHEG"> F  </i>
   <i type="int" name="NATURALO">     2</i>
   <i type="logical" name="LHOLEGF"> F  </i>
   <i type="logical" name="L2ORDER"> F  </i>
   <i type="logical" name="LDMP1"> F  </i>
   <i type="logical" name="LMP2LT"> F  </i>
   <i type="logical" name="LSMP2LT"> F  </i>
   <i type="logical" name="LGWLF"> F  </i>
   <i name="ENCUTGW">     -1.60000002</i>
   <i name="ENCUTGWSOFT">     -1.60000002</i>
   <i name="ENCUTLF">     -1.00000000</i>
   <i type="logical" name="ESF_SPLINES"> F  </i>
   <i name="ESF_CONV">      0.01000000</i>
   <i type="int" name="ESF_NINTER">    15</i>
   <i type="int" name="LMAXMP2">    -1</i>
   <i name="SCISSOR">      0.00000000</i>
   <i type="int" name="NOMEGA">     0</i>
   <i type="int" name="NOMEGAR">     0</i>
   <i type="int" name="NBANDSGW">    -1</i>
   <i type="int" name="NBANDSO">    -1</i>
   <i type="int" name="NBANDSV">    -1</i>
   <i type="int" name="NELMGW">     1</i>
   <i type="int" name="NELMHF">     1</i>
   <i type="int" name="DIM">     3</i>
   <i type="int" name="IESPILON">     4</i>
   <i type="int" name="ANTIRES">     0</i>
   <i name="OMEGAMAX">    -30.00000000</i>
   <i name="OMEGAMIN">    -30.00000000</i>
   <i name="OMEGATL">   -200.00000000</i>
   <i type="int" name="OMEGAGRID">     0</i>
   <i name="CSHIFT">     -0.10000000</i>
   <i type="logical" name="LSELFENERGY"> F  </i>
   <i type="logical" name="LSPECTRAL"> F  </i>
   <i type="logical" name="LSPECTRALGW"> F  </i>
   <i type="logical" name="LSINGLES"> F  </i>
   <i type="logical" name="LFERMIGW"> F  </i>
   <i type="logical" name="ODDONLYGW"> F  </i>
   <i type="logical" name="EVENONLYGW"> F  </i>
   <i type="int" name="NKREDLFX">     1</i>
   <i type="int" name="NKREDLFY">     1</i>
   <i type="int" name="NKREDLFZ">     1</i>
   <i type="int" name="MAXMEM">  2800</i>
   <i type="int" name="TELESCOPE">     0</i>
   <i type="int" name="NTAUPAR">    -1</i>
   <i type="int" name="NOMEGAPAR">    -1</i>
   <i name="DAMP_NEWTON">      0.80000001</i>
   <i name="LAMBDA">      1.00000000</i>
  </separator>
  <separator name="External order field" >
   <i name="OFIELD_KAPPA">      0.00000000</i>
   <v name="OFIELD_K">      0.00000000      0.00000000      0.00000000</v>
   <i name="OFIELD_Q6_NEAR">      0.00000000</i>
   <i name="OFIELD_Q6_FAR">      0.00000000</i>
   <i name="OFIELD_A">      0.00000000</i>
  </separator>
  <separator name="optional k-points parameters" >
   <i type="int" name="KPOINTS_OPT_MODE">     1</i>
   <i type="logical" name="LKPOINTS_OPT"> F  </i>
  </separator>
 </parameters>
 <atominfo>
  <atoms>      16 </atoms>
  <types>       3 </types>
  <array name="atoms" >
   <dimension dim="1">ion</dimension>
   <field type="string">element</field>
   <field type="int">atomtype</field>
   <set>
    <rc><c>Ti</c><c>   1</c></rc>
    <rc><c>Ti</c><c>   1</c></rc>
    <rc><c>Ti</c><c>   1</c></rc>
    <rc><c>Ti</c><c>   1</c></rc>
    <rc><c>Ti</c><c>   1</c></rc>
    <rc><c>Ti</c><c>   1</c></rc>
    <rc><c>Ti</c><c>   1</c></rc>
    <rc><c>Ti</c><c>   1</c></rc>
    <rc><c>Ga</c><c>   2</c></rc>
    <rc><c>Al</c><c>   3</c></rc>
    <rc><c>Al</c><c>   3</c></rc>
    <rc><c>Al</c><c>   3</c></rc>
    <rc><c>Al</c><c>   3</c></rc>
    <rc><c>Al</c><c>   3</c></rc>
    <rc><c>Al</c><c>   3</c></rc>
    <rc><c>Al</c><c>   3</c></rc>
   </set>
  </array>
  <array name="atomtypes" >
   <dimension dim="1">type</dimension>
   <field type="int">atomspertype</field>
   <field type="string">element</field>
   <field>mass</field>
   <field>valence</field>
   <field type="string">pseudopotential</field>
   <set>
    <rc><c>   8</c><c>Ti</c><c>     47.88000000</c><c>     12.00000000</c><c>  PAW_PBE Ti_sv 26Sep2005               </c></rc>
    <rc><c>   1</c><c>Ga</c><c>     69.72300000</c><c>     13.00000000</c><c>  PAW_PBE Ga_d 06Jul2010                </c></rc>
    <rc><c>   7</c><c>Al</c><c>     26.98100000</c><c>      3.00000000</c><c>  PAW_PBE Al 04Jan2001                  </c></rc>
   </set>
  </array>
 </atominfo>
 <structure name="initialpos" >
  <crystal>
   <varray name="basis" >
    <v>       5.64763737       0.00000000       0.00000000 </v>
    <v>       0.00000000       5.64763737       0.00000000 </v>
    <v>       0.00000000       0.00000000       8.14066601 </v>
   </varray>
   <i name="volume">    259.65311861 </i>
   <varray name="rec_basis" >
    <v>       0.17706519       0.00000000       0.00000000 </v>
    <v>       0.00000000       0.17706519       0.00000000 </v>
    <v>       0.00000000       0.00000000       0.12284007 </v>
   </varray>
  </crystal>
  <varray name="positions" >
   <v>       0.00000000       0.00000000       0.00000000 </v>
   <v>       0.00000000       0.00000000       0.50000000 </v>
   <v>       0.00000000       0.50000000       0.00000000 </v>
   <v>       0.00000000       0.50000000       0.50000000 </v>
   <v>       0.50000000       0.00000000       0.00000000 </v>
   <v>       0.50000000       0.00000000       0.50000000 </v>
   <v>       0.50000000       0.50000000       0.00000000 </v>
   <v>       0.50000000       0.50000000       0.50000000 </v>
   <v>       0.25000000       0.25000000       0.25000000 </v>
   <v>       0.25000000       0.25000000       0.75000000 </v>
   <v>       0.25000000       0.75000000       0.25000000 </v>
   <v>       0.25000000       0.75000000       0.75000000 </v>
   <v>       0.75000000       0.25000000       0.25000000 </v>
   <v>       0.75000000       0.25000000       0.75000000 </v>
   <v>       0.75000000       0.75000000       0.25000000 </v>
   <v>       0.75000000       0.75000000       0.75000000 </v>
  </varray>
 </structure>
 <calculation>
  <scstep>
   <time name="dav">    2.29    2.29</time>
   <time name="total">    2.30    2.30</time>
   <energy>
    <i name="alphaZ">    379.92914741 </i>
    <i name="ewald">  -9858.76476248 </i>
    <i name="hartreedc">  -4785.50822800 </i>
    <i name="XCdc">    357.92451243 </i>
    <i name="pawpsdc">  12183.07835080 </i>
    <i name="pawaedc"> -12136.27052386 </i>
    <i name="eentropy">     -0.02625216 </i>
    <i name="bandstr">   -271.94772688 </i>
    <i name="atom">  15228.27630495 </i>
    <i name="e_fr_energy">   1096.69082221 </i>
    <i name="e_wo_entrp">   1096.71707437 </i>
    <i name="e_0_energy">   1096.70394829 </i>
   </energy>
  </scstep>
  <scstep>
   <time name="dav">    2.29    2.29</time>
   <time name="total">    2.29    2.29</time>
   <energy>
    <i name="e_fr_energy">      2.41988124 </i>
    <i name="e_wo_entrp">      2.47023150 </i>
    <i name="e_0_energy">      2.44505637 </i>
   </energy>
  </scstep>
  <scstep>
   <time name="dav">    5.63    5.63</time>
   <time name="total">    5.63    5.63</time>
   <energy>
    <i name="e_fr_energy">   -106.40234667 </i>
    <i name="e_wo_entrp">   -106.31624874 </i>
    <i name="e_0_energy">   -106.35929770 </i>
   </energy>
  </scstep>
  <scstep>
   <time name="dav">    2.45    2.45</time>
   <time name="total">    2.45    2.45</time>
   <energy>
    <i name="e_fr_energy">   -110.77751452 </i>
    <i name="e_wo_entrp">   -110.69687132 </i>
    <i name="e_0_energy">   -110.73719292 </i>
   </energy>
  </scstep>
  <scstep>
   <time name="dav">    4.62    4.62</time>
   <time name="total">    4.65    4.65</time>
   <energy>
    <i name="e_fr_energy">   -111.05485112 </i>
    <i name="e_wo_entrp">   -110.97450776 </i>
    <i name="e_0_energy">   -111.01467944 </i>
   </energy>
  </scstep>
  <scstep>
   <time name="dav">    3.77    3.77</time>
   <time name="total">    3.82    3.82</time>
   <energy>
    <i name="e_fr_energy">    -99.72690555 </i>
    <i name="e_wo_entrp">    -99.63768225 </i>
    <i name="e_0_energy">    -99.68229390 </i>
   </energy>
  </scstep>
  <scstep>
   <time name="dav">    2.69    2.69</time>
   <time name="total">    2.74    2.74</time>
   <energy>
    <i name="e_fr_energy">    -98.55419656 </i>
    <i name="e_wo_entrp">    -98.49329605 </i>
    <i name="e_0_energy">    -98.52374631 </i>
   </energy>
  </scstep>
  <scstep>
   <time name="dav">    3.46    3.46</time>
   <time name="total">    3.51    3.51</time>
   <energy>
    <i name="e_fr_energy">    -98.46337102 </i>
    <i name="e_wo_entrp">    -98.39845837 </i>
    <i name="e_0_energy">    -98.43091469 </i>
   </energy>
  </scstep>
  <scstep>
   <time name="dav">    3.28    3.28</time>
   <time name="total">    3.33    3.33</time>
   <energy>
    <i name="e_fr_energy">    -98.45698228 </i>
    <i name="e_wo_entrp">    -98.39330230 </i>
    <i name="e_0_energy">    -98.42514229 </i>
   </energy>
  </scstep>
  <scstep>
   <time name="dav">    3.37    3.38</time>
   <time name="total">    3.42    3.42</time>
   <energy>
    <i name="e_fr_energy">    -98.45986929 </i>
    <i name="e_wo_entrp">    -98.39656265 </i>
    <i name="e_0_energy">    -98.42821597 </i>
   </energy>
  </scstep>
  <scstep>
   <time name="dav">    3.45    3.45</time>
   <time name="total">    3.50    3.50</time>
   <energy>
    <i name="e_fr_energy">    -98.45995250 </i>
    <i name="e_wo_entrp">    -98.39660510 </i>
    <i name="e_0_energy">    -98.42827880 </i>
   </energy>
  </scstep>
  <scstep>
   <time name="dav">    3.39    3.39</time>
   <time name="total">    3.44    3.44</time>
   <energy>
    <i name="e_fr_energy">    -98.45999504 </i>
    <i name="e_wo_entrp">    -98.39661775 </i>
    <i name="e_0_energy">    -98.42830639 </i>
   </energy>
  </scstep>
  <scstep>
   <time name="dav">    2.81    2.81</time>
   <time name="total">    2.83    2.83</time>
   <energy>
    <i name="alphaZ">    379.92914741 </i>
    <i name="ewald">  -9858.76476248 </i>
    <i name="hartreedc">  -4558.28724421 </i>
    <i name="XCdc">    349.26410470 </i>
    <i name="pawpsdc">  14841.49382662 </i>
    <i name="pawaedc"> -14769.64150641 </i>
    <i name="eentropy">     -0.06341032 </i>
    <i name="bandstr">  -1710.66644679 </i>
    <i name="atom">  15228.27630495 </i>
    <i name="e_fr_energy">    -98.45998654 </i>
    <i name="e_wo_entrp">    -98.39657622 </i>
    <i name="e_0_energy">    -98.42828138 </i>
   </energy>
  </scstep>
  <structure>
   <crystal>
    <varray name="basis" >
     <v>       5.64763737       0.00000000       0.00000000 </v>
     <v>       0.00000000       5.64763737       0.00000000 </v>
     <v>       0.00000000       0.00000000       8.14066601 </v>
    </varray>
    <i name="volume">    259.65311861 </i>
    <varray name="rec_basis" >
     <v>       0.17706519       0.00000000       0.00000000 </v>
     <v>       0.00000000       0.17706519       0.00000000 </v>
     <v>       0.00000000       0.00000000       0.12284007 </v>
    </varray>
   </crystal>
   <varray name="positions" >
    <v>       0.00000000       0.00000000       0.00000000 </v>
    <v>       0.00000000       0.00000000       0.50000000 </v>
    <v>       0.00000000       0.50000000       0.00000000 </v>
    <v>       0.00000000       0.50000000       0.50000000 </v>
    <v>       0.50000000       0.00000000       0.00000000 </v>
    <v>       0.50000000       0.00000000       0.50000000 </v>
    <v>       0.50000000       0.50000000       0.00000000 </v>
    <v>       0.50000000       0.50000000       0.50000000 </v>
    <v>       0.25000000       0.25000000       0.25000000 </v>
    <v>       0.25000000       0.25000000       0.75000000 </v>
    <v>       0.25000000       0.75000000       0.25000000 </v>
    <v>       0.25000000       0.75000000       0.75000000 </v>
    <v>       0.75000000       0.25000000       0.25000000 </v>
    <v>       0.75000000       0.25000000       0.75000000 </v>
    <v>       0.75000000       0.75000000       0.25000000 </v>
    <v>       0.75000000       0.75000000       0.75000000 </v>
   </varray>
  </structure>
  <varray name="forces" >
   <v>       0.01168966       0.01168966       0.02891962 </v>
   <v>       0.01168966       0.01168966      -0.02891962 </v>
   <v>       0.01168966      -0.01168966       0.02891962 </v>
   <v>       0.01168966      -0.01168966      -0.02891962 </v>
   <v>      -0.01168966       0.01168966       0.02891962 </v>
   <v>      -0.01168966       0.01168966      -0.02891962 </v>
   <v>      -0.01168966      -0.01168966       0.02891962 </v>
   <v>      -0.01168966      -0.01168966      -0.02891962 </v>
   <v>      -0.00000000      -0.00000000      -0.00000000 </v>
   <v>       0.00000000       0.00000000      -0.00000000 </v>
   <v>       0.00000000       0.00000000      -0.00000000 </v>
   <v>       0.00000000       0.00000000      -0.00000000 </v>
   <v>       0.00000000      -0.00000000      -0.00000000 </v>
   <v>       0.00000000       0.00000000      -0.00000000 </v>
   <v>       0.00000000       0.00000000      -0.00000000 </v>
   <v>       0.00000000       0.00000000      -0.00000000 </v>
  </varray>
  <varray name="stress" >
   <v>      -4.14542175       0.00000000       0.00000000 </v>
   <v>      -0.00000000      -4.14542175       0.00000000 </v>
   <v>       0.00000000       0.00000000      -7.17471576 </v>
  </varray>
  <energy>
   <i name="e_fr_energy">    -98.45998654 </i>
   <i name="e_wo_entrp">    -98.39657622 </i>
   <i name="e_0_energy">    -98.42828138 </i>
  </energy>
  <time name="totalsc">   47.12   47.12</time>
 </calculation>
 <calculation>
  <scstep>
   <time name="dav">    4.02    4.02</time>
   <time name="total">    4.07    4.07</time>
   <energy>
    <i name="alphaZ">    382.81514808 </i>
    <i name="ewald">  -9882.66909232 </i>
    <i name="hartreedc">  -4571.01705253 </i>
    <i name="XCdc">    350.68984522 </i>
    <i name="pawpsdc">  14841.10167092 </i>
    <i name="pawaedc"> -14769.15606779 </i>
    <i name="eentropy">     -0.06421792 </i>
    <i name="bandstr">  -1678.54462316 </i>
    <i name="atom">  15228.27630495 </i>
    <i name="e_fr_energy">    -98.56808455 </i>
    <i name="e_wo_entrp">    -98.50386663 </i>
    <i name="e_0_energy">    -98.53597559 </i>
   </energy>
  </scstep>
  <scstep>
   <time name="dav">    3.36    3.36</time>
   <time name="total">    3.41    3.41</time>
   <energy>
    <i name="e_fr_energy">    -98.47338881 </i>
    <i name="e_wo_entrp">    -98.41040600 </i>
    <i name="e_0_energy">    -98.44189740 </i>
   </energy>
  </scstep>
  <scstep>
   <time name="dav">    3.51    3.51</time>
   <time name="total">    3.56    3.56</time>
   <energy>
    <i name="e_fr_energy">    -98.45982852 </i>
    <i name="e_wo_entrp">    -98.39688490 </i>
    <i name="e_0_energy">    -98.42835671 </i>
   </energy>
  </scstep>
  <scstep>
   <time name="dav">    3.85    3.85</time>
   <time name="total">    3.90    3.90</time>
   <energy>
    <i name="e_fr_energy">    -98.45981483 </i>
    <i name="e_wo_entrp">    -98.39697738 </i>
    <i name="e_0_energy">    -98.42839610 </i>
   </energy>
  </scstep>
  <scstep>
   <time name="dav">    3.29    3.30</time>
   <time name="total">    3.34    3.35</time>
   <energy>
    <i name="e_fr_energy">    -98.46089215 </i>
    <i name="e_wo_entrp">    -98.39807888 </i>
    <i name="e_0_energy">    -98.42948551 </i>
   </energy>
  </scstep>
  <scstep>
   <time name="dav">    4.08    4.08</time>
   <time name="total">    4.13    4.13</time>
   <energy>
    <i name="e_fr_energy">    -98.46155532 </i>
    <i name="e_wo_entrp">    -98.39875130 </i>
    <i name="e_0_energy">    -98.43015331 </i>
   </energy>
  </scstep>
  <scstep>
   <time name="dav">    3.12    3.12</time>
   <time name="total">    3.17    3.17</time>
   <energy>
    <i name="e_fr_energy">    -98.46157965 </i>
    <i name="e_wo_entrp">    -98.39876735 </i>
    <i name="e_0_energy">    -98.43017350 </i>
   </energy>
  </scstep>
  <scstep>
   <time name="dav">    3.06    3.06</time>
   <time name="total">    3.11    3.11</time>
   <energy>
    <i name="e_fr_energy">    -98.46158979 </i>
    <i name="e_wo_entrp">    -98.39877871 </i>
    <i name="e_0_energy">    -98.43018425 </i>
   </energy>
  </scstep>
  <scstep>
   <time name="dav">    2.21    2.21</time>
   <time name="total">    2.23    2.23</time>
   <energy>
    <i name="alphaZ">    382.81514808 </i>
    <i name="ewald">  -9882.66909232 </i>
    <i name="hartreedc">  -4548.92926728 </i>
    <i name="XCdc">    349.64655343 </i>
    <i name="pawpsdc">  14915.09909032 </i>
    <i name="pawaedc"> -14842.52646336 </i>
    <i name="eentropy">     -0.06280983 </i>
    <i name="bandstr">  -1700.11105321 </i>
    <i name="atom">  15228.27630495 </i>
    <i name="e_fr_energy">    -98.46158924 </i>
    <i name="e_wo_entrp">    -98.39877941 </i>
    <i name="e_0_energy">    -98.43018433 </i>
   </energy>
  </scstep>
  <structure>
   <crystal>
    <varray name="basis" >
     <v>       5.63619727       0.00000000       0.00000000 </v>
     <v>      -0.00000000       5.63619727       0.00000000 </v>
     <v>       0.00000000       0.00000000       8.11212569 </v>
    </varray>
    <i name="volume">    257.69562274 </i>
    <varray name="rec_basis" >
     <v>       0.17742459       0.00000000      -0.00000000 </v>
     <v>      -0.00000000       0.17742459      -0.00000000 </v>
     <v>       0.00000000      -0.00000000       0.12327225 </v>
    </varray>
   </crystal>
   <varray name="positions" >
    <v>       0.00009985       0.00009985       0.00017138 </v>
    <v>       0.00009985       0.00009985       0.49982862 </v>
    <v>       0.00009985       0.49990015       0.00017138 </v>
    <v>       0.00009985       0.49990015       0.49982862 </v>
    <v>       0.49990015       0.00009985       0.00017138 </v>
    <v>       0.49990015       0.00009985       0.49982862 </v>
    <v>       0.49990015       0.49990015       0.00017138 </v>
    <v>       0.49990015       0.49990015       0.49982862 </v>
    <v>       0.25000000       0.25000000       0.25000000 </v>
    <v>       0.25000000       0.25000000       0.75000000 </v>
    <v>       0.25000000       0.75000000       0.25000000 </v>
    <v>       0.25000000       0.75000000       0.75000000 </v>
    <v>       0.75000000       0.25000000       0.25000000 </v>
    <v>       0.75000000       0.25000000       0.75000000 </v>
    <v>       0.75000000       0.75000000       0.25000000 </v>
    <v>       0.75000000       0.75000000       0.75000000 </v>
   </varray>
  </structure>
  <varray name="forces" >
   <v>       0.00544265       0.00544265       0.02295097 </v>
   <v>       0.00544265       0.00544265      -0.02295097 </v>
   <v>       0.00544265      -0.00544265       0.02295097 </v>
   <v>       0.00544265      -0.00544265      -0.02295097 </v>
   <v>      -0.00544265       0.00544265       0.02295097 </v>
   <v>      -0.00544265       0.00544265      -0.02295097 </v>
   <v>      -0.00544265      -0.00544265       0.02295097 </v>
   <v>      -0.00544265      -0.00544265      -0.02295097 </v>
   <v>      -0.00000000      -0.00000000      -0.00000000 </v>
   <v>      -0.00000000       0.00000000      -0.00000000 </v>
   <v>      -0.00000000       0.00000000      -0.00000000 </v>
   <v>      -0.00000000       0.00000000      -0.00000000 </v>
   <v>       0.00000000      -0.00000000      -0.00000000 </v>
   <v>      -0.00000000       0.00000000      -0.00000000 </v>
   <v>      -0.00000000       0.00000000      -0.00000000 </v>
   <v>      -0.00000000      -0.00000000      -0.00000000 </v>
  </varray>
  <varray name="stress" >
   <v>       4.07490070       0.00000000       0.00000000 </v>
   <v>       0.00000000       4.07490070       0.00000000 </v>
   <v>       0.00000000       0.00000000       2.50549896 </v>
  </varray>
  <energy>
   <i name="e_fr_energy">    -98.46158924 </i>
   <i name="e_wo_entrp">    -98.39877941 </i>
   <i name="e_0_energy">    -98.43018433 </i>
  </energy>
  <time name="totalsc">   33.88   33.88</time>
 </calculation>
 <calculation>
  <scstep>
   <time name="dav">    3.71    3.71</time>
   <time name="total">    3.76    3.76</time>
   <energy>
    <i name="alphaZ">    381.53543654 </i>
    <i name="ewald">  -9870.99880023 </i>
    <i name="hartreedc">  -4544.56427429 </i>
    <i name="XCdc">    349.02171384 </i>
    <i name="pawpsdc">  14915.31173945 </i>
    <i name="pawaedc"> -14842.70276952 </i>
    <i name="eentropy">     -0.06350702 </i>
    <i name="bandstr">  -1714.29871843 </i>
    <i name="atom">  15228.27630495 </i>
    <i name="e_fr_energy">    -98.48287471 </i>
    <i name="e_wo_entrp">    -98.41936768 </i>
    <i name="e_0_energy">    -98.45112120 </i>
   </energy>
  </scstep>
  <scstep>
   <time name="dav">    3.50    3.50</time>
   <time name="total">    3.55    3.55</time>
   <energy>
    <i name="e_fr_energy">    -98.46545961 </i>
    <i name="e_wo_entrp">    -98.40203729 </i>
    <i name="e_0_energy">    -98.43374845 </i>
   </energy>
  </scstep>
  <scstep>
   <time name="dav">    3.27    3.27</time>
   <time name="total">    3.32    3.32</time>
   <energy>
    <i name="e_fr_energy">    -98.46243438 </i>
    <i name="e_wo_entrp">    -98.39940928 </i>
    <i name="e_0_energy">    -98.43092183 </i>
   </energy>
  </scstep>
  <scstep>
   <time name="dav">    3.79    3.79</time>
   <time name="total">    3.84    3.84</time>
   <energy>
    <i name="e_fr_energy">    -98.46241145 </i>
    <i name="e_wo_entrp">    -98.39947049 </i>
    <i name="e_0_energy">    -98.43094097 </i>
   </energy>
  </scstep>
  <scstep>
   <time name="dav">    3.21    3.21</time>
   <time name="total">    3.26    3.26</time>
   <energy>
    <i name="e_fr_energy">    -98.46258470 </i>
    <i name="e_wo_entrp">    -98.39963818 </i>
    <i name="e_0_energy">    -98.43111144 </i>
   </energy>
  </scstep>
  <scstep>
   <time name="dav">    4.12    4.12</time>
   <time name="total">    4.17    4.17</time>
   <energy>
    <i name="e_fr_energy">    -98.46271441 </i>
    <i name="e_wo_entrp">    -98.39978393 </i>
    <i name="e_0_energy">    -98.43124917 </i>
   </energy>
  </scstep>
  <scstep>
   <time name="dav">    2.89    2.89</time>
   <time name="total">    2.91    2.91</time>
   <energy>
    <i name="alphaZ">    381.53543654 </i>
    <i name="ewald">  -9870.99880023 </i>
    <i name="hartreedc">  -4554.25918796 </i>
    <i name="XCdc">    349.48188027 </i>
    <i name="pawpsdc">  14882.71110727 </i>
    <i name="pawaedc"> -14810.33417896 </i>
    <i name="eentropy">     -0.06292583 </i>
    <i name="bandstr">  -1704.81235382 </i>
    <i name="atom">  15228.27630495 </i>
    <i name="e_fr_energy">    -98.46271777 </i>
    <i name="e_wo_entrp">    -98.39979193 </i>
    <i name="e_0_energy">    -98.43125485 </i>
   </energy>
  </scstep>
  <structure>
   <crystal>
    <varray name="basis" >
     <v>       5.64341898       0.00000000       0.00000000 </v>
     <v>      -0.00000000       5.64341898       0.00000000 </v>
     <v>       0.00000000       0.00000000       8.11851665 </v>
    </varray>
    <i name="volume">    258.55996201 </i>
    <varray name="rec_basis" >
     <v>       0.17719755       0.00000000      -0.00000000 </v>
     <v>      -0.00000000       0.17719755      -0.00000000 </v>
     <v>       0.00000000      -0.00000000       0.12317521 </v>
    </varray>
   </crystal>
   <varray name="positions" >
    <v>       0.00013006       0.00013006       0.00025988 </v>
    <v>       0.00013006       0.00013006       0.49974012 </v>
    <v>       0.00013006       0.49986994       0.00025988 </v>
    <v>       0.00013006       0.49986994       0.49974012 </v>
    <v>       0.49986994       0.00013006       0.00025988 </v>
    <v>       0.49986994       0.00013006       0.49974012 </v>
    <v>       0.49986994       0.49986994       0.00025988 </v>
    <v>       0.49986994       0.49986994       0.49974012 </v>
    <v>       0.25000000       0.25000000       0.25000000 </v>
    <v>       0.25000000       0.25000000       0.75000000 </v>
    <v>       0.25000000       0.75000000       0.25000000 </v>
    <v>       0.25000000       0.75000000       0.75000000 </v>
    <v>       0.75000000       0.25000000       0.25000000 </v>
    <v>       0.75000000       0.25000000       0.75000000 </v>
    <v>       0.75000000       0.75000000       0.25000000 </v>
    <v>       0.75000000       0.75000000       0.75000000 </v>
   </varray>
  </structure>
  <varray name="forces" >
   <v>       0.00350733       0.00350733       0.01967892 </v>
   <v>       0.00350733       0.00350733      -0.01967892 </v>
   <v>       0.00350733      -0.00350733       0.01967892 </v>
   <v>       0.00350733      -0.00350733      -0.01967892 </v>
   <v>      -0.00350733       0.00350733       0.01967892 </v>
   <v>      -0.00350733       0.00350733      -0.01967892 </v>
   <v>      -0.00350733      -0.00350733       0.01967892 </v>
   <v>      -0.00350733      -0.00350733      -0.01967892 </v>
   <v>       0.00000000      -0.00000000       0.00000000 </v>
   <v>      -0.00000000      -0.00000000       0.00000000 </v>
   <v>      -0.00000000      -0.00000000       0.00000000 </v>
   <v>      -0.00000000      -0.00000000       0.00000000 </v>
   <v>       0.00000000      -0.00000000       0.00000000 </v>
   <v>      -0.00000000      -0.00000000       0.00000000 </v>
   <v>      -0.00000000      -0.00000000       0.00000000 </v>
   <v>      -0.00000000      -0.00000000       0.00000000 </v>
  </varray>
  <varray name="stress" >
   <v>       0.39341726      -0.00000000      -0.00000000 </v>
   <v>       0.00000000       0.39341726      -0.00000000 </v>
   <v>      -0.00000000       0.00000000      -0.77487114 </v>
  </varray>
  <energy>
   <i name="e_fr_energy">    -98.46271777 </i>
   <i name="e_wo_entrp">    -98.39979193 </i>
   <i name="e_0_energy">    -98.43125485 </i>
  </energy>
  <time name="totalsc">   27.74   27.75</time>
 </calculation>
 <calculation>
  <scstep>
   <time name="dav">    3.03    3.04</time>
   <time name="total">    3.08    3.08</time>
   <energy>
    <i name="alphaZ">    381.50272862 </i>
    <i name="ewald">  -9869.86418875 </i>
    <i name="hartreedc">  -4554.93432341 </i>
    <i name="XCdc">    349.46315813 </i>
    <i name="pawpsdc">  14882.10820676 </i>
    <i name="pawaedc"> -14809.81019458 </i>
    <i name="eentropy">     -0.06316858 </i>
    <i name="bandstr">  -1705.14119025 </i>
    <i name="atom">  15228.27630495 </i>
    <i name="e_fr_energy">    -98.46266711 </i>
    <i name="e_wo_entrp">    -98.39949853 </i>
    <i name="e_0_energy">    -98.43108282 </i>
   </energy>
  </scstep>
  <scstep>
   <time name="dav">    2.36    2.36</time>
   <time name="total">    2.41    2.41</time>
   <energy>
    <i name="e_fr_energy">    -98.46295060 </i>
    <i name="e_wo_entrp">    -98.39994449 </i>
    <i name="e_0_energy">    -98.43144754 </i>
   </energy>
  </scstep>
  <scstep>
   <time name="dav">    4.27    4.27</time>
   <time name="total">    4.32    4.32</time>
   <energy>
    <i name="e_fr_energy">    -98.46290529 </i>
    <i name="e_wo_entrp">    -98.40003355 </i>
    <i name="e_0_energy">    -98.43146942 </i>
   </energy>
  </scstep>
  <scstep>
   <time name="dav">    1.96    1.96</time>
   <time name="total">    1.97    1.97</time>
   <energy>
    <i name="alphaZ">    381.50272862 </i>
    <i name="ewald">  -9869.86418875 </i>
    <i name="hartreedc">  -4555.14775729 </i>
    <i name="XCdc">    349.47454146 </i>
    <i name="pawpsdc">  14880.88064931 </i>
    <i name="pawaedc"> -14808.58743843 </i>
    <i name="eentropy">     -0.06285327 </i>
    <i name="bandstr">  -1704.93488908 </i>
    <i name="atom">  15228.27630495 </i>
    <i name="e_fr_energy">    -98.46290248 </i>
    <i name="e_wo_entrp">    -98.40004921 </i>
    <i name="e_0_energy">    -98.43147585 </i>
   </energy>
  </scstep>
  <structure>
   <crystal>
    <varray name="basis" >
     <v>       5.64462476       0.00000000      -0.00000000 </v>
     <v>      -0.00000000       5.64462476       0.00000000 </v>
     <v>       0.00000000       0.00000000       8.11574430 </v>
    </varray>
    <i name="volume">    258.58212950 </i>
    <varray name="rec_basis" >
     <v>       0.17715969       0.00000000      -0.00000000 </v>
     <v>      -0.00000000       0.17715969      -0.00000000 </v>
     <v>       0.00000000      -0.00000000       0.12321729 </v>
    </varray>
   </crystal>
   <varray name="positions" >
    <v>       0.00015944       0.00015944       0.00037377 </v>
    <v>       0.00015944       0.00015944       0.49962623 </v>
    <v>       0.00015944       0.49984056       0.00037377 </v>
    <v>       0.00015944       0.49984056       0.49962623 </v>
    <v>       0.49984056       0.00015944       0.00037377 </v>
    <v>       0.49984056       0.00015944       0.49962623 </v>
    <v>       0.49984056       0.49984056       0.00037377 </v>
    <v>       0.49984056       0.49984056       0.49962623 </v>
    <v>       0.25000000       0.25000000       0.25000000 </v>
    <v>       0.25000000       0.25000000       0.75000000 </v>
    <v>       0.25000000       0.75000000       0.25000000 </v>
    <v>       0.25000000       0.75000000       0.75000000 </v>
    <v>       0.75000000       0.25000000       0.25000000 </v>
    <v>       0.75000000       0.25000000       0.75000000 </v>
    <v>       0.75000000       0.75000000       0.25000000 </v>
    <v>       0.75000000       0.75000000       0.75000000 </v>
   </varray>
  </structure>
  <varray name="forces" >
   <v>       0.00173012       0.00173012       0.01576548 </v>
   <v>       0.00173012       0.00173012      -0.01576548 </v>
   <v>       0.00173012      -0.00173012       0.01576548 </v>
   <v>       0.00173012      -0.00173012      -0.01576548 </v>
   <v>      -0.00173012       0.00173012       0.01576548 </v>
   <v>      -0.00173012       0.00173012      -0.01576548 </v>
   <v>      -0.00173012      -0.00173012       0.01576548 </v>
   <v>      -0.00173012      -0.00173012      -0.01576548 </v>
   <v>       0.00000000      -0.00000000      -0.00000000 </v>
   <v>       0.00000000      -0.00000000      -0.00000000 </v>
   <v>       0.00000000      -0.00000000      -0.00000000 </v>
   <v>       0.00000000      -0.00000000       0.00000000 </v>
   <v>       0.00000000      -0.00000000       0.00000000 </v>
   <v>       0.00000000      -0.00000000       0.00000000 </v>
   <v>       0.00000000      -0.00000000      -0.00000000 </v>
   <v>       0.00000000      -0.00000000      -0.00000000 </v>
  </varray>
  <varray name="stress" >
   <v>      -0.00791330      -0.00000000       0.00000000 </v>
   <v>       0.00000000      -0.00791330       0.00000000 </v>
   <v>       0.00000000       0.00000000      -0.67494658 </v>
  </varray>
  <energy>
   <i name="e_fr_energy">    -98.46290248 </i>
   <i name="e_wo_entrp">    -98.40004921 </i>
   <i name="e_0_energy">    -98.43147585 </i>
  </energy>
  <time name="totalsc">   14.73   14.74</time>
 </calculation>
 <calculation>
  <scstep>
   <time name="dav">    3.00    3.00</time>
   <time name="total">    3.05    3.05</time>
   <energy>
    <i name="alphaZ">    381.68433306 </i>
    <i name="ewald">  -9869.40651717 </i>
    <i name="hartreedc">  -4557.90796805 </i>
    <i name="XCdc">    349.56437818 </i>
    <i name="pawpsdc">  14880.89836238 </i>
    <i name="pawaedc"> -14808.62021823 </i>
    <i name="eentropy">     -0.06317051 </i>
    <i name="bandstr">  -1702.88772409 </i>
    <i name="atom">  15228.27630495 </i>
    <i name="e_fr_energy">    -98.46221948 </i>
    <i name="e_wo_entrp">    -98.39904897 </i>
    <i name="e_0_energy">    -98.43063422 </i>
   </energy>
  </scstep>
  <scstep>
   <time name="dav">    2.31    2.31</time>
   <time name="total">    2.36    2.36</time>
   <energy>
    <i name="e_fr_energy">    -98.46307997 </i>
    <i name="e_wo_entrp">    -98.40018130 </i>
    <i name="e_0_energy">    -98.43163063 </i>
   </energy>
  </scstep>
  <scstep>
   <time name="dav">    4.29    4.29</time>
   <time name="total">    4.33    4.33</time>
   <energy>
    <i name="e_fr_energy">    -98.46297340 </i>
    <i name="e_wo_entrp">    -98.40016785 </i>
    <i name="e_0_energy">    -98.43157063 </i>
   </energy>
  </scstep>
  <scstep>
   <time name="dav">    3.94    3.94</time>
   <time name="total">    3.99    3.99</time>
   <energy>
    <i name="e_fr_energy">    -98.46296020 </i>
    <i name="e_wo_entrp">    -98.40021611 </i>
    <i name="e_0_energy">    -98.43158815 </i>
   </energy>
  </scstep>
  <scstep>
   <time name="dav">    3.01    3.02</time>
   <time name="total">    3.03    3.03</time>
   <energy>
    <i name="alphaZ">    381.68433306 </i>
    <i name="ewald">  -9869.40651717 </i>
    <i name="hartreedc">  -4556.26996980 </i>
    <i name="XCdc">    349.48744098 </i>
    <i name="pawpsdc">  14884.53947807 </i>
    <i name="pawaedc"> -14812.41039060 </i>
    <i name="eentropy">     -0.06272043 </i>
    <i name="bandstr">  -1704.30092391 </i>
    <i name="atom">  15228.27630495 </i>
    <i name="e_fr_energy">    -98.46296485 </i>
    <i name="e_wo_entrp">    -98.40024442 </i>
    <i name="e_0_energy">    -98.43160463 </i>
   </energy>
  </scstep>
  <structure>
   <crystal>
    <varray name="basis" >
     <v>       5.64528606      -0.00000000       0.00000000 </v>
     <v>       0.00000000       5.64528606       0.00000000 </v>
     <v>       0.00000000       0.00000000       8.10998246 </v>
    </varray>
    <i name="volume">    258.45909678 </i>
    <varray name="rec_basis" >
     <v>       0.17713894      -0.00000000      -0.00000000 </v>
     <v>       0.00000000       0.17713894      -0.00000000 </v>
     <v>      -0.00000000      -0.00000000       0.12330483 </v>
    </varray>
   </crystal>
   <varray name="positions" >
    <v>       0.00019716       0.00019716       0.00061719 </v>
    <v>       0.00019716       0.00019716       0.49938281 </v>
    <v>       0.00019716       0.49980284       0.00061719 </v>
    <v>       0.00019716       0.49980284       0.49938281 </v>
    <v>       0.49980284       0.00019716       0.00061719 </v>
    <v>       0.49980284       0.00019716       0.49938281 </v>
    <v>       0.49980284       0.49980284       0.00061719 </v>
    <v>       0.49980284       0.49980284       0.49938281 </v>
    <v>       0.25000000       0.25000000       0.25000000 </v>
    <v>       0.25000000       0.25000000       0.75000000 </v>
    <v>       0.25000000       0.75000000       0.25000000 </v>
    <v>       0.25000000       0.75000000       0.75000000 </v>
    <v>       0.75000000       0.25000000       0.25000000 </v>
    <v>       0.75000000       0.25000000       0.75000000 </v>
    <v>       0.75000000       0.75000000       0.25000000 </v>
    <v>       0.75000000       0.75000000       0.75000000 </v>
   </varray>
  </structure>
  <varray name="forces" >
   <v>      -0.00056288      -0.00056288       0.00605800 </v>
   <v>      -0.00056288      -0.00056288      -0.00605800 </v>
   <v>      -0.00056288       0.00056288       0.00605800 </v>
   <v>      -0.00056288       0.00056288      -0.00605800 </v>
   <v>       0.00056288      -0.00056288       0.00605800 </v>
   <v>       0.00056288      -0.00056288      -0.00605800 </v>
   <v>       0.00056288       0.00056288       0.00605800 </v>
   <v>       0.00056288       0.00056288      -0.00605800 </v>
   <v>       0.00000000       0.00000000      -0.00000000 </v>
   <v>       0.00000000       0.00000000      -0.00000000 </v>
   <v>       0.00000000       0.00000000      -0.00000000 </v>
   <v>       0.00000000       0.00000000      -0.00000000 </v>
   <v>       0.00000000       0.00000000      -0.00000000 </v>
   <v>       0.00000000       0.00000000      -0.00000000 </v>
   <v>       0.00000000       0.00000000      -0.00000000 </v>
   <v>       0.00000000       0.00000000      -0.00000000 </v>
  </varray>
  <varray name="stress" >
   <v>       0.00301363      -0.00000000       0.00000000 </v>
   <v>       0.00000000       0.00301363       0.00000000 </v>
   <v>      -0.00000000      -0.00000000       0.26345668 </v>
  </varray>
  <energy>
   <i name="e_fr_energy">    -98.46296485 </i>
   <i name="e_wo_entrp">    -98.40024442 </i>
   <i name="e_0_energy">    -98.43160463 </i>
  </energy>
  <time name="totalsc">   20.66   20.69</time>
  <eigenvalues>
   <array>
    <dimension dim="1">band</dimension>
    <dimension dim="2">kpoint</dimension>
    <dimension dim="3">spin</dimension>
    <field>eigene</field>
    <field>occ</field>
    <set>
     <set comment="spin 1">
      <set comment="kpoint 1">
       <r>  -48.3370    1.0000 </r>
       <r>  -48.3364    1.0000 </r>
       <r>  -48.2788    1.0000 </r>
       <r>  -48.2788    1.0000 </r>
       <r>  -48.2783    1.0000 </r>
       <r>  -48.2783    1.0000 </r>
       <r>  -48.2228    1.0000 </r>
       <r>  -48.2224    1.0000 </r>
       <r>  -24.7713    1.0000 </r>
       <r>  -24.7679    1.0000 </r>
       <r>  -24.7596    1.0000 </r>
       <r>  -24.7569    1.0000 </r>
       <r>  -24.7507    1.0000 </r>
       <r>  -24.7333    1.0000 </r>
       <r>  -24.6983    1.0000 </r>
       <r>  -24.6983    1.0000 </r>
       <r>  -24.6963    1.0000 </r>
       <r>  -24.6963    1.0000 </r>
       <r>  -24.6879    1.0000 </r>
       <r>  -24.6879    1.0000 </r>
       <r>  -24.6757    1.0000 </r>
       <r>  -24.6757    1.0000 </r>
       <r>  -24.6338    1.0000 </r>
       <r>  -24.6229    1.0000 </r>
       <r>  -24.2891    1.0000 </r>
       <r>  -24.2891    1.0000 </r>
       <r>  -24.2886    1.0000 </r>
       <r>  -24.2886    1.0000 </r>
       <r>  -24.2526    1.0000 </r>
       <r>  -24.2520    1.0000 </r>
       <r>  -24.2419    1.0000 </r>
       <r>  -24.2413    1.0000 </r>
       <r>   -6.1290    1.0000 </r>
       <r>   -6.1134    1.0000 </r>
       <r>   -6.0913    1.0000 </r>
       <r>   -6.0913    1.0000 </r>
       <r>   -6.0589    1.0000 </r>
       <r>   -0.9042    1.0000 </r>
       <r>    0.5725    1.0000 </r>
       <r>    2.9186    1.0000 </r>
       <r>    3.0201    1.0000 </r>
       <r>    3.4294    1.0000 </r>
       <r>    3.6088    1.0000 </r>
       <r>    3.7467    1.0000 </r>
       <r>    3.7467    1.0000 </r>
       <r>    3.7834    1.0000 </r>
       <r>    5.0649    1.0000 </r>
       <r>    5.3483    1.0000 </r>
       <r>    5.3483    1.0000 </r>
       <r>    5.7660    1.0000 </r>
       <r>    6.0071    1.0000 </r>
       <r>    6.0071    1.0000 </r>
       <r>    6.4769    1.0000 </r>
       <r>    6.5809    1.0000 </r>
       <r>    6.6025    1.0000 </r>
       <r>    7.1158    1.0000 </r>
       <r>    7.1459    1.0000 </r>
       <r>    7.1462    1.0000 </r>
       <r>    7.1462    1.0000 </r>
       <r>    7.4699    1.0000 </r>
       <r>    7.6243    1.0000 </r>
       <r>    7.8012    1.0000 </r>
       <r>    7.8012    1.0000 </r>
       <r>    7.9555    1.0000 </r>
       <r>    7.9828    1.0000 </r>
       <r>    8.0447    0.9999 </r>
       <r>    8.0447    0.9999 </r>
       <r>    8.1441    0.9890 </r>
       <r>    8.1441    0.9890 </r>
       <r>    8.9476    0.0000 </r>
       <r>    9.7106    0.0000 </r>
       <r>    9.7106    0.0000 </r>
       <r>    9.7816    0.0000 </r>
       <r>   10.0225    0.0000 </r>
       <r>   10.0225    0.0000 </r>
       <r>   10.0851    0.0000 </r>
       <r>   10.0851    0.0000 </r>
       <r>   10.0897    0.0000 </r>
       <r>   10.0897    0.0000 </r>
       <r>   10.4287    0.0000 </r>
       <r>   10.4637    0.0000 </r>
       <r>   10.4637    0.0000 </r>
       <r>   10.5772    0.0000 </r>
       <r>   10.5963    0.0000 </r>
       <r>   10.8031    0.0000 </r>
       <r>   10.8048    0.0000 </r>
       <r>   11.2243    0.0000 </r>
       <r>   11.5880    0.0000 </r>
      </set>
      <set comment="kpoint 2">
       <r>  -48.3331    1.0000 </r>
       <r>  -48.3325    1.0000 </r>
       <r>  -48.2828    1.0000 </r>
       <r>  -48.2823    1.0000 </r>
       <r>  -48.2751    1.0000 </r>
       <r>  -48.2746    1.0000 </r>
       <r>  -48.2266    1.0000 </r>
       <r>  -48.2262    1.0000 </r>
       <r>  -24.7624    1.0000 </r>
       <r>  -24.7591    1.0000 </r>
       <r>  -24.7471    1.0000 </r>
       <r>  -24.7324    1.0000 </r>
       <r>  -24.7323    1.0000 </r>
       <r>  -24.7273    1.0000 </r>
       <r>  -24.7029    1.0000 </r>
       <r>  -24.7008    1.0000 </r>
       <r>  -24.6921    1.0000 </r>
       <r>  -24.6860    1.0000 </r>
       <r>  -24.6796    1.0000 </r>
       <r>  -24.6742    1.0000 </r>
       <r>  -24.6671    1.0000 </r>
       <r>  -24.6649    1.0000 </r>
       <r>  -24.6375    1.0000 </r>
       <r>  -24.6265    1.0000 </r>
       <r>  -24.3218    1.0000 </r>
       <r>  -24.3211    1.0000 </r>
       <r>  -24.2863    1.0000 </r>
       <r>  -24.2858    1.0000 </r>
       <r>  -24.2791    1.0000 </r>
       <r>  -24.2785    1.0000 </r>
       <r>  -24.2491    1.0000 </r>
       <r>  -24.2484    1.0000 </r>
       <r>   -6.1283    1.0000 </r>
       <r>   -6.1135    1.0000 </r>
       <r>   -6.0914    1.0000 </r>
       <r>   -6.0913    1.0000 </r>
       <r>   -6.0586    1.0000 </r>
       <r>   -0.7698    1.0000 </r>
       <r>    0.6684    1.0000 </r>
       <r>    2.3041    1.0000 </r>
       <r>    2.8259    1.0000 </r>
       <r>    3.1738    1.0000 </r>
       <r>    3.3957    1.0000 </r>
       <r>    3.7424    1.0000 </r>
       <r>    3.8834    1.0000 </r>
       <r>    4.9294    1.0000 </r>
       <r>    5.1182    1.0000 </r>
       <r>    5.3977    1.0000 </r>
       <r>    5.6615    1.0000 </r>
       <r>    5.8418    1.0000 </r>
       <r>    5.8858    1.0000 </r>
       <r>    5.9748    1.0000 </r>
       <r>    6.1865    1.0000 </r>
       <r>    6.5872    1.0000 </r>
       <r>    6.6576    1.0000 </r>
       <r>    6.6797    1.0000 </r>
       <r>    6.7881    1.0000 </r>
       <r>    7.0151    1.0000 </r>
       <r>    7.3556    1.0000 </r>
       <r>    7.5206    1.0000 </r>
       <r>    7.6986    1.0000 </r>
       <r>    7.8237    1.0000 </r>
       <r>    7.8480    1.0000 </r>
       <r>    7.8833    1.0000 </r>
       <r>    7.9453    1.0000 </r>
       <r>    8.0068    1.0000 </r>
       <r>    8.1962    0.9400 </r>
       <r>    8.2568    0.7574 </r>
       <r>    8.9029    0.0000 </r>
       <r>    9.0011    0.0000 </r>
       <r>    9.6941    0.0000 </r>
       <r>    9.7547    0.0000 </r>
       <r>    9.7585    0.0000 </r>
       <r>    9.8136    0.0000 </r>
       <r>   10.1070    0.0000 </r>
       <r>   10.1174    0.0000 </r>
       <r>   10.1733    0.0000 </r>
       <r>   10.2258    0.0000 </r>
       <r>   10.2545    0.0000 </r>
       <r>   10.3713    0.0000 </r>
       <r>   10.4479    0.0000 </r>
       <r>   10.4952    0.0000 </r>
       <r>   10.5308    0.0000 </r>
       <r>   10.5538    0.0000 </r>
       <r>   10.6216    0.0000 </r>
       <r>   10.7802    0.0000 </r>
       <r>   10.9466    0.0000 </r>
       <r>   11.4093    0.0000 </r>
      </set>
      <set comment="kpoint 3">
       <r>  -48.3225    1.0000 </r>
       <r>  -48.3219    1.0000 </r>
       <r>  -48.2935    1.0000 </r>
       <r>  -48.2929    1.0000 </r>
       <r>  -48.2649    1.0000 </r>
       <r>  -48.2644    1.0000 </r>
       <r>  -48.2369    1.0000 </r>
       <r>  -48.2364    1.0000 </r>
       <r>  -24.7492    1.0000 </r>
       <r>  -24.7463    1.0000 </r>
       <r>  -24.7353    1.0000 </r>
       <r>  -24.7192    1.0000 </r>
       <r>  -24.7152    1.0000 </r>
       <r>  -24.7130    1.0000 </r>
       <r>  -24.7038    1.0000 </r>
       <r>  -24.6903    1.0000 </r>
       <r>  -24.6754    1.0000 </r>
       <r>  -24.6631    1.0000 </r>
       <r>  -24.6481    1.0000 </r>
       <r>  -24.6477    1.0000 </r>
       <r>  -24.6458    1.0000 </r>
       <r>  -24.6363    1.0000 </r>
       <r>  -24.5868    1.0000 </r>
       <r>  -24.5855    1.0000 </r>
       <r>  -24.4106    1.0000 </r>
       <r>  -24.4094    1.0000 </r>
       <r>  -24.3622    1.0000 </r>
       <r>  -24.3614    1.0000 </r>
       <r>  -24.2786    1.0000 </r>
       <r>  -24.2781    1.0000 </r>
       <r>  -24.2575    1.0000 </r>
       <r>  -24.2569    1.0000 </r>
       <r>   -6.1270    1.0000 </r>
       <r>   -6.1138    1.0000 </r>
       <r>   -6.0917    1.0000 </r>
       <r>   -6.0912    1.0000 </r>
       <r>   -6.0579    1.0000 </r>
       <r>   -0.3750    1.0000 </r>
       <r>    0.9093    1.0000 </r>
       <r>    1.2879    1.0000 </r>
       <r>    2.1378    1.0000 </r>
       <r>    3.6195    1.0000 </r>
       <r>    3.6536    1.0000 </r>
       <r>    3.9730    1.0000 </r>
       <r>    4.2838    1.0000 </r>
       <r>    4.6287    1.0000 </r>
       <r>    4.9771    1.0000 </r>
       <r>    5.2009    1.0000 </r>
       <r>    5.5279    1.0000 </r>
       <r>    5.7769    1.0000 </r>
       <r>    5.8795    1.0000 </r>
       <r>    6.0575    1.0000 </r>
       <r>    6.4458    1.0000 </r>
       <r>    6.7230    1.0000 </r>
       <r>    6.8675    1.0000 </r>
       <r>    6.8715    1.0000 </r>
       <r>    6.9052    1.0000 </r>
       <r>    6.9379    1.0000 </r>
       <r>    7.5350    1.0000 </r>
       <r>    7.6055    1.0000 </r>
       <r>    7.6535    1.0000 </r>
       <r>    7.6839    1.0000 </r>
       <r>    7.8879    1.0000 </r>
       <r>    7.9632    1.0000 </r>
       <r>    8.1376    0.9914 </r>
       <r>    8.1515    0.9856 </r>
       <r>    8.5868    0.0000 </r>
       <r>    8.6137    0.0000 </r>
       <r>    9.0783    0.0000 </r>
       <r>    9.1561    0.0000 </r>
       <r>    9.2008    0.0000 </r>
       <r>    9.4022    0.0000 </r>
       <r>    9.5957    0.0000 </r>
       <r>    9.7615    0.0000 </r>
       <r>    9.8800    0.0000 </r>
       <r>   10.0837    0.0000 </r>
       <r>   10.2039    0.0000 </r>
       <r>   10.2899    0.0000 </r>
       <r>   10.3507    0.0000 </r>
       <r>   10.4188    0.0000 </r>
       <r>   10.4197    0.0000 </r>
       <r>   10.4489    0.0000 </r>
       <r>   10.5504    0.0000 </r>
       <r>   10.5924    0.0000 </r>
       <r>   10.5979    0.0000 </r>
       <r>   10.7174    0.0000 </r>
       <r>   11.0410    0.0000 </r>
       <r>   11.1512    0.0000 </r>
      </set>
      <set comment="kpoint 4">
       <r>  -48.3083    1.0000 </r>
       <r>  -48.3078    1.0000 </r>
       <r>  -48.3077    1.0000 </r>
       <r>  -48.3072    1.0000 </r>
       <r>  -48.2512    1.0000 </r>
       <r>  -48.2507    1.0000 </r>
       <r>  -48.2506    1.0000 </r>
       <r>  -48.2502    1.0000 </r>
       <r>  -24.7325    1.0000 </r>
       <r>  -24.7319    1.0000 </r>
       <r>  -24.7298    1.0000 </r>
       <r>  -24.7294    1.0000 </r>
       <r>  -24.7199    1.0000 </r>
       <r>  -24.7193    1.0000 </r>
       <r>  -24.7050    1.0000 </r>
       <r>  -24.7046    1.0000 </r>
       <r>  -24.6618    1.0000 </r>
       <r>  -24.6614    1.0000 </r>
       <r>  -24.6500    1.0000 </r>
       <r>  -24.6495    1.0000 </r>
       <r>  -24.5322    1.0000 </r>
       <r>  -24.5303    1.0000 </r>
       <r>  -24.5284    1.0000 </r>
       <r>  -24.5266    1.0000 </r>
       <r>  -24.4770    1.0000 </r>
       <r>  -24.4760    1.0000 </r>
       <r>  -24.4734    1.0000 </r>
       <r>  -24.4723    1.0000 </r>
       <r>  -24.2683    1.0000 </r>
       <r>  -24.2680    1.0000 </r>
       <r>  -24.2677    1.0000 </r>
       <r>  -24.2673    1.0000 </r>
       <r>   -6.1263    1.0000 </r>
       <r>   -6.1139    1.0000 </r>
       <r>   -6.0918    1.0000 </r>
       <r>   -6.0911    1.0000 </r>
       <r>   -6.0576    1.0000 </r>
       <r>    0.1317    1.0000 </r>
       <r>    0.4536    1.0000 </r>
       <r>    1.3701    1.0000 </r>
       <r>    1.6161    1.0000 </r>
       <r>    3.9729    1.0000 </r>
       <r>    4.2908    1.0000 </r>
       <r>    4.3190    1.0000 </r>
       <r>    4.3419    1.0000 </r>
       <r>    4.3699    1.0000 </r>
       <r>    4.3700    1.0000 </r>
       <r>    4.8852    1.0000 </r>
       <r>    4.9650    1.0000 </r>
       <r>    5.6859    1.0000 </r>
       <r>    5.7411    1.0000 </r>
       <r>    6.3570    1.0000 </r>
       <r>    6.3902    1.0000 </r>
       <r>    7.1330    1.0000 </r>
       <r>    7.1579    1.0000 </r>
       <r>    7.2052    1.0000 </r>
       <r>    7.2065    1.0000 </r>
       <r>    7.2249    1.0000 </r>
       <r>    7.2816    1.0000 </r>
       <r>    7.4693    1.0000 </r>
       <r>    7.4999    1.0000 </r>
       <r>    8.0211    1.0000 </r>
       <r>    8.0789    0.9993 </r>
       <r>    8.0934    0.9987 </r>
       <r>    8.0963    0.9985 </r>
       <r>    8.5893    0.0000 </r>
       <r>    8.6438    0.0000 </r>
       <r>    8.8701    0.0000 </r>
       <r>    8.9236    0.0000 </r>
       <r>    9.0668    0.0000 </r>
       <r>    9.1310    0.0000 </r>
       <r>    9.1660    0.0000 </r>
       <r>    9.1919    0.0000 </r>
       <r>    9.3695    0.0000 </r>
       <r>    9.3983    0.0000 </r>
       <r>   10.0524    0.0000 </r>
       <r>   10.0758    0.0000 </r>
       <r>   10.3188    0.0000 </r>
       <r>   10.3285    0.0000 </r>
       <r>   10.3511    0.0000 </r>
       <r>   10.4782    0.0000 </r>
       <r>   10.6227    0.0000 </r>
       <r>   10.6379    0.0000 </r>
       <r>   10.7062    0.0000 </r>
       <r>   10.7177    0.0000 </r>
       <r>   10.7666    0.0000 </r>
       <r>   10.7792    0.0000 </r>
       <r>   11.0715    0.0000 </r>
      </set>
      <set comment="kpoint 5">
       <r>  -48.3293    1.0000 </r>
       <r>  -48.3287    1.0000 </r>
       <r>  -48.2790    1.0000 </r>
       <r>  -48.2790    1.0000 </r>
       <r>  -48.2785    1.0000 </r>
       <r>  -48.2785    1.0000 </r>
       <r>  -48.2304    1.0000 </r>
       <r>  -48.2299    1.0000 </r>
       <r>  -24.7455    1.0000 </r>
       <r>  -24.7346    1.0000 </r>
       <r>  -24.7327    1.0000 </r>
       <r>  -24.7242    1.0000 </r>
       <r>  -24.7237    1.0000 </r>
       <r>  -24.7216    1.0000 </r>
       <r>  -24.6903    1.0000 </r>
       <r>  -24.6901    1.0000 </r>
       <r>  -24.6785    1.0000 </r>
       <r>  -24.6779    1.0000 </r>
       <r>  -24.6733    1.0000 </r>
       <r>  -24.6706    1.0000 </r>
       <r>  -24.6699    1.0000 </r>
       <r>  -24.6678    1.0000 </r>
       <r>  -24.6413    1.0000 </r>
       <r>  -24.6301    1.0000 </r>
       <r>  -24.3208    1.0000 </r>
       <r>  -24.3200    1.0000 </r>
       <r>  -24.3170    1.0000 </r>
       <r>  -24.3164    1.0000 </r>
       <r>  -24.2864    1.0000 </r>
       <r>  -24.2857    1.0000 </r>
       <r>  -24.2757    1.0000 </r>
       <r>  -24.2750    1.0000 </r>
       <r>   -6.1276    1.0000 </r>
       <r>   -6.1137    1.0000 </r>
       <r>   -6.0914    1.0000 </r>
       <r>   -6.0914    1.0000 </r>
       <r>   -6.0583    1.0000 </r>
       <r>   -0.6363    1.0000 </r>
       <r>    0.7644    1.0000 </r>
       <r>    2.2943    1.0000 </r>
       <r>    2.5807    1.0000 </r>
       <r>    2.9111    1.0000 </r>
       <r>    3.0938    1.0000 </r>
       <r>    3.3251    1.0000 </r>
       <r>    4.6320    1.0000 </r>
       <r>    5.1147    1.0000 </r>
       <r>    5.1965    1.0000 </r>
       <r>    5.2584    1.0000 </r>
       <r>    5.8984    1.0000 </r>
       <r>    5.9182    1.0000 </r>
       <r>    5.9526    1.0000 </r>
       <r>    6.2067    1.0000 </r>
       <r>    6.2331    1.0000 </r>
       <r>    6.2620    1.0000 </r>
       <r>    6.6594    1.0000 </r>
       <r>    6.7137    1.0000 </r>
       <r>    6.7323    1.0000 </r>
       <r>    6.7538    1.0000 </r>
       <r>    7.5768    1.0000 </r>
       <r>    7.7485    1.0000 </r>
       <r>    7.7781    1.0000 </r>
       <r>    7.8941    1.0000 </r>
       <r>    7.9071    1.0000 </r>
       <r>    7.9155    1.0000 </r>
       <r>    7.9789    1.0000 </r>
       <r>    8.0780    0.9994 </r>
       <r>    8.0844    0.9991 </r>
       <r>    8.2796    0.6463 </r>
       <r>    9.0526    0.0000 </r>
       <r>    9.1907    0.0000 </r>
       <r>    9.7000    0.0000 </r>
       <r>    9.7040    0.0000 </r>
       <r>    9.7227    0.0000 </r>
       <r>    9.8790    0.0000 </r>
       <r>    9.8859    0.0000 </r>
       <r>   10.0016    0.0000 </r>
       <r>   10.2519    0.0000 </r>
       <r>   10.2616    0.0000 </r>
       <r>   10.2859    0.0000 </r>
       <r>   10.3091    0.0000 </r>
       <r>   10.4144    0.0000 </r>
       <r>   10.4323    0.0000 </r>
       <r>   10.4774    0.0000 </r>
       <r>   10.4904    0.0000 </r>
       <r>   10.6037    0.0000 </r>
       <r>   10.7678    0.0000 </r>
       <r>   10.9648    0.0000 </r>
       <r>   11.1876    0.0000 </r>
      </set>
      <set comment="kpoint 6">
       <r>  -48.3187    1.0000 </r>
       <r>  -48.3181    1.0000 </r>
       <r>  -48.2897    1.0000 </r>
       <r>  -48.2892    1.0000 </r>
       <r>  -48.2688    1.0000 </r>
       <r>  -48.2683    1.0000 </r>
       <r>  -48.2407    1.0000 </r>
       <r>  -48.2403    1.0000 </r>
       <r>  -24.7330    1.0000 </r>
       <r>  -24.7192    1.0000 </r>
       <r>  -24.7170    1.0000 </r>
       <r>  -24.7122    1.0000 </r>
       <r>  -24.7017    1.0000 </r>
       <r>  -24.6890    1.0000 </r>
       <r>  -24.6838    1.0000 </r>
       <r>  -24.6810    1.0000 </r>
       <r>  -24.6795    1.0000 </r>
       <r>  -24.6670    1.0000 </r>
       <r>  -24.6515    1.0000 </r>
       <r>  -24.6439    1.0000 </r>
       <r>  -24.6417    1.0000 </r>
       <r>  -24.6400    1.0000 </r>
       <r>  -24.5908    1.0000 </r>
       <r>  -24.5895    1.0000 </r>
       <r>  -24.4074    1.0000 </r>
       <r>  -24.4063    1.0000 </r>
       <r>  -24.3655    1.0000 </r>
       <r>  -24.3647    1.0000 </r>
       <r>  -24.3108    1.0000 </r>
       <r>  -24.3101    1.0000 </r>
       <r>  -24.2887    1.0000 </r>
       <r>  -24.2880    1.0000 </r>
       <r>   -6.1263    1.0000 </r>
       <r>   -6.1140    1.0000 </r>
       <r>   -6.0916    1.0000 </r>
       <r>   -6.0913    1.0000 </r>
       <r>   -6.0576    1.0000 </r>
       <r>   -0.2448    1.0000 </r>
       <r>    1.0071    1.0000 </r>
       <r>    1.4066    1.0000 </r>
       <r>    2.2278    1.0000 </r>
       <r>    2.8254    1.0000 </r>
       <r>    3.3039    1.0000 </r>
       <r>    3.7632    1.0000 </r>
       <r>    4.0140    1.0000 </r>
       <r>    4.4727    1.0000 </r>
       <r>    5.3029    1.0000 </r>
       <r>    5.4612    1.0000 </r>
       <r>    6.0484    1.0000 </r>
       <r>    6.0592    1.0000 </r>
       <r>    6.2872    1.0000 </r>
       <r>    6.3111    1.0000 </r>
       <r>    6.3348    1.0000 </r>
       <r>    6.5224    1.0000 </r>
       <r>    6.9350    1.0000 </r>
       <r>    6.9492    1.0000 </r>
       <r>    6.9685    1.0000 </r>
       <r>    6.9894    1.0000 </r>
       <r>    7.5243    1.0000 </r>
       <r>    7.6725    1.0000 </r>
       <r>    7.6804    1.0000 </r>
       <r>    7.8044    1.0000 </r>
       <r>    7.9824    1.0000 </r>
       <r>    8.1192    0.9959 </r>
       <r>    8.2408    0.8224 </r>
       <r>    8.2456    0.8041 </r>
       <r>    8.4078    0.0754 </r>
       <r>    8.5656    0.0001 </r>
       <r>    9.0532    0.0000 </r>
       <r>    9.2019    0.0000 </r>
       <r>    9.4441    0.0000 </r>
       <r>    9.5247    0.0000 </r>
       <r>    9.6121    0.0000 </r>
       <r>    9.7201    0.0000 </r>
       <r>    9.8041    0.0000 </r>
       <r>   10.0143    0.0000 </r>
       <r>   10.0535    0.0000 </r>
       <r>   10.1890    0.0000 </r>
       <r>   10.1898    0.0000 </r>
       <r>   10.2485    0.0000 </r>
       <r>   10.3259    0.0000 </r>
       <r>   10.3352    0.0000 </r>
       <r>   10.3516    0.0000 </r>
       <r>   10.3676    0.0000 </r>
       <r>   10.4643    0.0000 </r>
       <r>   10.4862    0.0000 </r>
       <r>   10.9426    0.0000 </r>
       <r>   11.0148    0.0000 </r>
      </set>
      <set comment="kpoint 7">
       <r>  -48.3045    1.0000 </r>
       <r>  -48.3040    1.0000 </r>
       <r>  -48.3039    1.0000 </r>
       <r>  -48.3034    1.0000 </r>
       <r>  -48.2551    1.0000 </r>
       <r>  -48.2546    1.0000 </r>
       <r>  -48.2545    1.0000 </r>
       <r>  -48.2540    1.0000 </r>
       <r>  -24.7177    1.0000 </r>
       <r>  -24.7170    1.0000 </r>
       <r>  -24.7041    1.0000 </r>
       <r>  -24.7037    1.0000 </r>
       <r>  -24.7007    1.0000 </r>
       <r>  -24.7001    1.0000 </r>
       <r>  -24.6970    1.0000 </r>
       <r>  -24.6964    1.0000 </r>
       <r>  -24.6657    1.0000 </r>
       <r>  -24.6653    1.0000 </r>
       <r>  -24.6537    1.0000 </r>
       <r>  -24.6532    1.0000 </r>
       <r>  -24.5285    1.0000 </r>
       <r>  -24.5267    1.0000 </r>
       <r>  -24.5247    1.0000 </r>
       <r>  -24.5230    1.0000 </r>
       <r>  -24.4807    1.0000 </r>
       <r>  -24.4796    1.0000 </r>
       <r>  -24.4771    1.0000 </r>
       <r>  -24.4760    1.0000 </r>
       <r>  -24.3001    1.0000 </r>
       <r>  -24.2997    1.0000 </r>
       <r>  -24.2994    1.0000 </r>
       <r>  -24.2990    1.0000 </r>
       <r>   -6.1256    1.0000 </r>
       <r>   -6.1141    1.0000 </r>
       <r>   -6.0917    1.0000 </r>
       <r>   -6.0912    1.0000 </r>
       <r>   -6.0573    1.0000 </r>
       <r>    0.2530    1.0000 </r>
       <r>    0.5839    1.0000 </r>
       <r>    1.4666    1.0000 </r>
       <r>    1.7180    1.0000 </r>
       <r>    3.2202    1.0000 </r>
       <r>    3.4471    1.0000 </r>
       <r>    3.7753    1.0000 </r>
       <r>    3.8812    1.0000 </r>
       <r>    4.4203    1.0000 </r>
       <r>    4.4689    1.0000 </r>
       <r>    5.8272    1.0000 </r>
       <r>    5.9083    1.0000 </r>
       <r>    6.2031    1.0000 </r>
       <r>    6.2099    1.0000 </r>
       <r>    6.2304    1.0000 </r>
       <r>    6.2384    1.0000 </r>
       <r>    7.1877    1.0000 </r>
       <r>    7.1985    1.0000 </r>
       <r>    7.2441    1.0000 </r>
       <r>    7.2582    1.0000 </r>
       <r>    7.2744    1.0000 </r>
       <r>    7.3256    1.0000 </r>
       <r>    7.5932    1.0000 </r>
       <r>    7.6264    1.0000 </r>
       <r>    8.0317    0.9999 </r>
       <r>    8.0989    0.9983 </r>
       <r>    8.1914    0.9477 </r>
       <r>    8.2085    0.9165 </r>
       <r>    8.4331    0.0363 </r>
       <r>    8.4850    0.0057 </r>
       <r>    8.9513    0.0000 </r>
       <r>    8.9761    0.0000 </r>
       <r>    9.0383    0.0000 </r>
       <r>    9.1642    0.0000 </r>
       <r>    9.3578    0.0000 </r>
       <r>    9.3836    0.0000 </r>
       <r>    9.4085    0.0000 </r>
       <r>    9.4334    0.0000 </r>
       <r>    9.9742    0.0000 </r>
       <r>    9.9825    0.0000 </r>
       <r>   10.1952    0.0000 </r>
       <r>   10.2005    0.0000 </r>
       <r>   10.2210    0.0000 </r>
       <r>   10.2362    0.0000 </r>
       <r>   10.2479    0.0000 </r>
       <r>   10.3615    0.0000 </r>
       <r>   10.5417    0.0000 </r>
       <r>   10.5530    0.0000 </r>
       <r>   10.6268    0.0000 </r>
       <r>   10.6361    0.0000 </r>
       <r>   10.7434    0.0000 </r>
      </set>
      <set comment="kpoint 8">
       <r>  -48.3082    1.0000 </r>
       <r>  -48.3076    1.0000 </r>
       <r>  -48.2794    1.0000 </r>
       <r>  -48.2794    1.0000 </r>
       <r>  -48.2789    1.0000 </r>
       <r>  -48.2789    1.0000 </r>
       <r>  -48.2511    1.0000 </r>
       <r>  -48.2506    1.0000 </r>
       <r>  -24.7213    1.0000 </r>
       <r>  -24.7058    1.0000 </r>
       <r>  -24.6908    1.0000 </r>
       <r>  -24.6907    1.0000 </r>
       <r>  -24.6774    1.0000 </r>
       <r>  -24.6773    1.0000 </r>
       <r>  -24.6621    1.0000 </r>
       <r>  -24.6500    1.0000 </r>
       <r>  -24.6383    1.0000 </r>
       <r>  -24.6362    1.0000 </r>
       <r>  -24.6280    1.0000 </r>
       <r>  -24.6260    1.0000 </r>
       <r>  -24.6077    1.0000 </r>
       <r>  -24.6059    1.0000 </r>
       <r>  -24.5969    1.0000 </r>
       <r>  -24.5957    1.0000 </r>
       <r>  -24.4040    1.0000 </r>
       <r>  -24.4026    1.0000 </r>
       <r>  -24.3928    1.0000 </r>
       <r>  -24.3920    1.0000 </r>
       <r>  -24.3793    1.0000 </r>
       <r>  -24.3784    1.0000 </r>
       <r>  -24.3687    1.0000 </r>
       <r>  -24.3678    1.0000 </r>
       <r>   -6.1249    1.0000 </r>
       <r>   -6.1143    1.0000 </r>
       <r>   -6.0915    1.0000 </r>
       <r>   -6.0915    1.0000 </r>
       <r>   -6.0570    1.0000 </r>
       <r>    0.1352    1.0000 </r>
       <r>    1.2557    1.0000 </r>
       <r>    1.7076    1.0000 </r>
       <r>    1.8328    1.0000 </r>
       <r>    2.4759    1.0000 </r>
       <r>    2.6604    1.0000 </r>
       <r>    3.1414    1.0000 </r>
       <r>    3.7361    1.0000 </r>
       <r>    4.1748    1.0000 </r>
       <r>    5.5365    1.0000 </r>
       <r>    5.5761    1.0000 </r>
       <r>    5.9923    1.0000 </r>
       <r>    6.6756    1.0000 </r>
       <r>    6.7291    1.0000 </r>
       <r>    6.7890    1.0000 </r>
       <r>    6.8783    1.0000 </r>
       <r>    7.0101    1.0000 </r>
       <r>    7.0664    1.0000 </r>
       <r>    7.1085    1.0000 </r>
       <r>    7.1433    1.0000 </r>
       <r>    7.2075    1.0000 </r>
       <r>    7.4665    1.0000 </r>
       <r>    7.6154    1.0000 </r>
       <r>    7.8500    1.0000 </r>
       <r>    8.0758    0.9994 </r>
       <r>    8.0874    0.9990 </r>
       <r>    8.1269    0.9944 </r>
       <r>    8.2346    0.8442 </r>
       <r>    8.5614    0.0002 </r>
       <r>    8.5759    0.0001 </r>
       <r>    8.6623    0.0000 </r>
       <r>    8.7718    0.0000 </r>
       <r>    9.3332    0.0000 </r>
       <r>    9.6209    0.0000 </r>
       <r>    9.6331    0.0000 </r>
       <r>    9.6661    0.0000 </r>
       <r>    9.6830    0.0000 </r>
       <r>    9.7436    0.0000 </r>
       <r>    9.8166    0.0000 </r>
       <r>    9.8540    0.0000 </r>
       <r>    9.8563    0.0000 </r>
       <r>    9.8679    0.0000 </r>
       <r>    9.8684    0.0000 </r>
       <r>    9.9876    0.0000 </r>
       <r>   10.1264    0.0000 </r>
       <r>   10.1439    0.0000 </r>
[...]
       <r>  -24.2754    1.0000 </r>
       <r>   -6.1276    1.0000 </r>
       <r>   -6.1136    1.0000 </r>
       <r>   -6.0914    1.0000 </r>
       <r>   -6.0914    1.0000 </r>
       <r>   -6.0583    1.0000 </r>
       <r>   -0.2571    1.0000 </r>
       <r>    0.0745    1.0000 </r>
       <r>    2.3592    1.0000 </r>
       <r>    2.8380    1.0000 </r>
       <r>    2.8511    1.0000 </r>
       <r>    2.8542    1.0000 </r>
       <r>    4.7529    1.0000 </r>
       <r>    4.8878    1.0000 </r>
       <r>    4.9447    1.0000 </r>
       <r>    4.9517    1.0000 </r>
       <r>    5.2085    1.0000 </r>
       <r>    5.3423    1.0000 </r>
       <r>    5.3505    1.0000 </r>
       <r>    5.3526    1.0000 </r>
       <r>    6.2663    1.0000 </r>
       <r>    6.2694    1.0000 </r>
       <r>    6.6569    1.0000 </r>
       <r>    6.6819    1.0000 </r>
       <r>    6.7165    1.0000 </r>
       <r>    6.7294    1.0000 </r>
       <r>    6.7299    1.0000 </r>
       <r>    6.7400    1.0000 </r>
       <r>    7.6646    1.0000 </r>
       <r>    7.6790    1.0000 </r>
       <r>    8.0699    0.9996 </r>
       <r>    8.0701    0.9996 </r>
       <r>    8.0793    0.9993 </r>
       <r>    8.0881    0.9990 </r>
       <r>    8.4821    0.0064 </r>
       <r>    8.5220    0.0011 </r>
       <r>    8.5492    0.0003 </r>
       <r>    8.5508    0.0003 </r>
       <r>    9.9634    0.0000 </r>
       <r>    9.9759    0.0000 </r>
       <r>    9.9919    0.0000 </r>
       <r>    9.9978    0.0000 </r>
       <r>    9.9985    0.0000 </r>
       <r>   10.0065    0.0000 </r>
       <r>   10.0162    0.0000 </r>
       <r>   10.1176    0.0000 </r>
       <r>   10.1234    0.0000 </r>
       <r>   10.1292    0.0000 </r>
       <r>   10.1684    0.0000 </r>
       <r>   10.1966    0.0000 </r>
       <r>   10.2160    0.0000 </r>
       <r>   10.3000    0.0000 </r>
       <r>   10.4644    0.0000 </r>
       <r>   10.5021    0.0000 </r>
       <r>   11.1856    0.0000 </r>
       <r>   11.2006    0.0000 </r>
       <r>   11.2258    0.0000 </r>
      </set>
      <set comment="kpoint 26">
       <r>  -48.3184    1.0000 </r>
       <r>  -48.3184    1.0000 </r>
       <r>  -48.2894    1.0000 </r>
       <r>  -48.2894    1.0000 </r>
       <r>  -48.2686    1.0000 </r>
       <r>  -48.2685    1.0000 </r>
       <r>  -48.2405    1.0000 </r>
       <r>  -48.2405    1.0000 </r>
       <r>  -24.7258    1.0000 </r>
       <r>  -24.7252    1.0000 </r>
       <r>  -24.7153    1.0000 </r>
       <r>  -24.7151    1.0000 </r>
       <r>  -24.6953    1.0000 </r>
       <r>  -24.6949    1.0000 </r>
       <r>  -24.6827    1.0000 </r>
       <r>  -24.6826    1.0000 </r>
       <r>  -24.6734    1.0000 </r>
       <r>  -24.6731    1.0000 </r>
       <r>  -24.6460    1.0000 </r>
       <r>  -24.6456    1.0000 </r>
       <r>  -24.6428    1.0000 </r>
       <r>  -24.6427    1.0000 </r>
       <r>  -24.5902    1.0000 </r>
       <r>  -24.5902    1.0000 </r>
       <r>  -24.4069    1.0000 </r>
       <r>  -24.4068    1.0000 </r>
       <r>  -24.3651    1.0000 </r>
       <r>  -24.3651    1.0000 </r>
       <r>  -24.3105    1.0000 </r>
       <r>  -24.3105    1.0000 </r>
       <r>  -24.2884    1.0000 </r>
       <r>  -24.2884    1.0000 </r>
       <r>   -6.1263    1.0000 </r>
       <r>   -6.1139    1.0000 </r>
       <r>   -6.0917    1.0000 </r>
       <r>   -6.0913    1.0000 </r>
       <r>   -6.0576    1.0000 </r>
       <r>    0.0935    1.0000 </r>
       <r>    0.4500    1.0000 </r>
       <r>    1.6031    1.0000 </r>
       <r>    1.8739    1.0000 </r>
       <r>    2.9473    1.0000 </r>
       <r>    3.1706    1.0000 </r>
       <r>    4.1390    1.0000 </r>
       <r>    4.3043    1.0000 </r>
       <r>    5.2019    1.0000 </r>
       <r>    5.2238    1.0000 </r>
       <r>    5.5780    1.0000 </r>
       <r>    5.6575    1.0000 </r>
       <r>    6.0060    1.0000 </r>
       <r>    6.0086    1.0000 </r>
       <r>    6.2947    1.0000 </r>
       <r>    6.2961    1.0000 </r>
       <r>    6.6494    1.0000 </r>
       <r>    6.6567    1.0000 </r>
       <r>    6.6946    1.0000 </r>
       <r>    6.7047    1.0000 </r>
       <r>    6.8046    1.0000 </r>
       <r>    6.8082    1.0000 </r>
       <r>    7.8042    1.0000 </r>
       <r>    7.8190    1.0000 </r>
       <r>    8.1556    0.9834 </r>
       <r>    8.1563    0.9830 </r>
       <r>    8.3801    0.1480 </r>
       <r>    8.3814    0.1437 </r>
       <r>    8.4730    0.0091 </r>
       <r>    8.4908    0.0045 </r>
       <r>    8.5090    0.0021 </r>
       <r>    8.5588    0.0002 </r>
       <r>    9.4317    0.0000 </r>
       <r>    9.4722    0.0000 </r>
       <r>    9.7430    0.0000 </r>
       <r>    9.7616    0.0000 </r>
       <r>    9.7700    0.0000 </r>
       <r>    9.8362    0.0000 </r>
       <r>    9.9300    0.0000 </r>
       <r>    9.9501    0.0000 </r>
       <r>    9.9520    0.0000 </r>
       <r>   10.0005    0.0000 </r>
       <r>   10.0779    0.0000 </r>
       <r>   10.1378    0.0000 </r>
       <r>   10.2890    0.0000 </r>
       <r>   10.3061    0.0000 </r>
       <r>   10.6405    0.0000 </r>
       <r>   10.6645    0.0000 </r>
       <r>   10.9976    0.0000 </r>
       <r>   11.0121    0.0000 </r>
       <r>   11.0477    0.0000 </r>
      </set>
      <set comment="kpoint 27">
       <r>  -48.3043    1.0000 </r>
       <r>  -48.3042    1.0000 </r>
       <r>  -48.3037    1.0000 </r>
       <r>  -48.3036    1.0000 </r>
       <r>  -48.2548    1.0000 </r>
       <r>  -48.2548    1.0000 </r>
       <r>  -48.2543    1.0000 </r>
       <r>  -48.2543    1.0000 </r>
       <r>  -24.7108    1.0000 </r>
       <r>  -24.7101    1.0000 </r>
       <r>  -24.7101    1.0000 </r>
       <r>  -24.7099    1.0000 </r>
       <r>  -24.6993    1.0000 </r>
       <r>  -24.6992    1.0000 </r>
       <r>  -24.6987    1.0000 </r>
       <r>  -24.6986    1.0000 </r>
       <r>  -24.6599    1.0000 </r>
       <r>  -24.6596    1.0000 </r>
       <r>  -24.6595    1.0000 </r>
       <r>  -24.6591    1.0000 </r>
       <r>  -24.5276    1.0000 </r>
       <r>  -24.5276    1.0000 </r>
       <r>  -24.5239    1.0000 </r>
       <r>  -24.5238    1.0000 </r>
       <r>  -24.4802    1.0000 </r>
       <r>  -24.4801    1.0000 </r>
       <r>  -24.4766    1.0000 </r>
       <r>  -24.4765    1.0000 </r>
       <r>  -24.2997    1.0000 </r>
       <r>  -24.2997    1.0000 </r>
       <r>  -24.2993    1.0000 </r>
       <r>  -24.2993    1.0000 </r>
       <r>   -6.1256    1.0000 </r>
       <r>   -6.1141    1.0000 </r>
       <r>   -6.0918    1.0000 </r>
       <r>   -6.0912    1.0000 </r>
       <r>   -6.0573    1.0000 </r>
       <r>    0.4771    1.0000 </r>
       <r>    1.0216    1.0000 </r>
       <r>    1.0551    1.0000 </r>
       <r>    1.0609    1.0000 </r>
       <r>    3.2918    1.0000 </r>
       <r>    3.6434    1.0000 </r>
       <r>    3.6706    1.0000 </r>
       <r>    3.6735    1.0000 </r>
       <r>    5.6086    1.0000 </r>
       <r>    5.6380    1.0000 </r>
       <r>    5.6669    1.0000 </r>
       <r>    5.6768    1.0000 </r>
       <r>    5.9854    1.0000 </r>
       <r>    6.0753    1.0000 </r>
       <r>    6.0774    1.0000 </r>
       <r>    6.0841    1.0000 </r>
       <r>    6.5727    1.0000 </r>
       <r>    6.6099    1.0000 </r>
       <r>    6.6273    1.0000 </r>
       <r>    6.6291    1.0000 </r>
       <r>    7.5489    1.0000 </r>
       <r>    7.6015    1.0000 </r>
       <r>    7.6091    1.0000 </r>
       <r>    7.6754    1.0000 </r>
       <r>    8.1575    0.9822 </r>
       <r>    8.1620    0.9793 </r>
       <r>    8.1735    0.9697 </r>
       <r>    8.1797    0.9632 </r>
       <r>    8.8236    0.0000 </r>
       <r>    8.8339    0.0000 </r>
       <r>    8.8561    0.0000 </r>
       <r>    8.9521    0.0000 </r>
       <r>    9.1715    0.0000 </r>
       <r>    9.1896    0.0000 </r>
       <r>    9.1942    0.0000 </r>
       <r>    9.2096    0.0000 </r>
       <r>    9.7810    0.0000 </r>
       <r>    9.7938    0.0000 </r>
       <r>    9.7948    0.0000 </r>
       <r>    9.8350    0.0000 </r>
       <r>    9.9117    0.0000 </r>
       <r>    9.9257    0.0000 </r>
       <r>    9.9424    0.0000 </r>
       <r>   10.0322    0.0000 </r>
       <r>   10.5536    0.0000 </r>
       <r>   10.5626    0.0000 </r>
       <r>   10.5669    0.0000 </r>
       <r>   10.5669    0.0000 </r>
       <r>   10.8783    0.0000 </r>
       <r>   10.8898    0.0000 </r>
       <r>   10.9027    0.0000 </r>
      </set>
      <set comment="kpoint 28">
       <r>  -48.3079    1.0000 </r>
       <r>  -48.3079    1.0000 </r>
       <r>  -48.2792    1.0000 </r>
       <r>  -48.2792    1.0000 </r>
       <r>  -48.2791    1.0000 </r>
       <r>  -48.2791    1.0000 </r>
       <r>  -48.2509    1.0000 </r>
       <r>  -48.2509    1.0000 </r>
       <r>  -24.7138    1.0000 </r>
       <r>  -24.7133    1.0000 </r>
       <r>  -24.6843    1.0000 </r>
       <r>  -24.6842    1.0000 </r>
       <r>  -24.6839    1.0000 </r>
       <r>  -24.6838    1.0000 </r>
       <r>  -24.6562    1.0000 </r>
       <r>  -24.6559    1.0000 </r>
       <r>  -24.6373    1.0000 </r>
       <r>  -24.6371    1.0000 </r>
       <r>  -24.6270    1.0000 </r>
       <r>  -24.6269    1.0000 </r>
       <r>  -24.6068    1.0000 </r>
       <r>  -24.6068    1.0000 </r>
       <r>  -24.5963    1.0000 </r>
       <r>  -24.5963    1.0000 </r>
       <r>  -24.4033    1.0000 </r>
       <r>  -24.4032    1.0000 </r>
       <r>  -24.3924    1.0000 </r>
       <r>  -24.3924    1.0000 </r>
       <r>  -24.3789    1.0000 </r>
       <r>  -24.3789    1.0000 </r>
       <r>  -24.3683    1.0000 </r>
       <r>  -24.3683    1.0000 </r>
       <r>   -6.1249    1.0000 </r>
       <r>   -6.1142    1.0000 </r>
       <r>   -6.0915    1.0000 </r>
       <r>   -6.0915    1.0000 </r>
       <r>   -6.0570    1.0000 </r>
       <r>    0.4313    1.0000 </r>
       <r>    0.8182    1.0000 </r>
       <r>    1.7851    1.0000 </r>
       <r>    2.1675    1.0000 </r>
       <r>    2.2119    1.0000 </r>
       <r>    2.2163    1.0000 </r>
       <r>    3.3161    1.0000 </r>
       <r>    3.4805    1.0000 </r>
       <r>    5.4945    1.0000 </r>
       <r>    5.5162    1.0000 </r>
       <r>    6.2326    1.0000 </r>
       <r>    6.2420    1.0000 </r>
       <r>    6.2886    1.0000 </r>
       <r>    6.2993    1.0000 </r>
       <r>    6.4613    1.0000 </r>
       <r>    6.4821    1.0000 </r>
       <r>    6.8429    1.0000 </r>
       <r>    6.8909    1.0000 </r>
       <r>    6.8966    1.0000 </r>
       <r>    6.9094    1.0000 </r>
       <r>    7.1909    1.0000 </r>
       <r>    7.2366    1.0000 </r>
       <r>    7.9801    1.0000 </r>
       <r>    7.9969    1.0000 </r>
       <r>    8.1509    0.9860 </r>
       <r>    8.1635    0.9782 </r>
       <r>    8.4406    0.0286 </r>
       <r>    8.4467    0.0235 </r>
       <r>    8.5251    0.0010 </r>
       <r>    8.5303    0.0008 </r>
       <r>    8.5397    0.0005 </r>
       <r>    8.5517    0.0003 </r>
       <r>    9.2626    0.0000 </r>
       <r>    9.2725    0.0000 </r>
       <r>    9.2765    0.0000 </r>
       <r>    9.2931    0.0000 </r>
       <r>    9.3197    0.0000 </r>
       <r>    9.3370    0.0000 </r>
       <r>    9.5700    0.0000 </r>
       <r>    9.6419    0.0000 </r>
       <r>   10.0636    0.0000 </r>
       <r>   10.0710    0.0000 </r>
       <r>   10.1042    0.0000 </r>
       <r>   10.1107    0.0000 </r>
       <r>   10.1135    0.0000 </r>
       <r>   10.1433    0.0000 </r>
       <r>   10.5531    0.0000 </r>
       <r>   10.5599    0.0000 </r>
       <r>   11.0259    0.0000 </r>
       <r>   11.0626    0.0000 </r>
       <r>   11.5192    0.0000 </r>
      </set>
      <set comment="kpoint 29">
       <r>  -48.2939    1.0000 </r>
       <r>  -48.2938    1.0000 </r>
       <r>  -48.2933    1.0000 </r>
       <r>  -48.2933    1.0000 </r>
       <r>  -48.2653    1.0000 </r>
       <r>  -48.2653    1.0000 </r>
       <r>  -48.2648    1.0000 </r>
       <r>  -48.2647    1.0000 </r>
       <r>  -24.6994    1.0000 </r>
       <r>  -24.6988    1.0000 </r>
       <r>  -24.6987    1.0000 </r>
       <r>  -24.6984    1.0000 </r>
       <r>  -24.6705    1.0000 </r>
       <r>  -24.6701    1.0000 </r>
       <r>  -24.6700    1.0000 </r>
       <r>  -24.6696    1.0000 </r>
       <r>  -24.6176    1.0000 </r>
       <r>  -24.6175    1.0000 </r>
       <r>  -24.6170    1.0000 </r>
       <r>  -24.6170    1.0000 </r>
       <r>  -24.5177    1.0000 </r>
       <r>  -24.5177    1.0000 </r>
       <r>  -24.5140    1.0000 </r>
       <r>  -24.5140    1.0000 </r>
       <r>  -24.4901    1.0000 </r>
       <r>  -24.4901    1.0000 </r>
       <r>  -24.4865    1.0000 </r>
       <r>  -24.4865    1.0000 </r>
       <r>  -24.3855    1.0000 </r>
       <r>  -24.3855    1.0000 </r>
       <r>  -24.3851    1.0000 </r>
       <r>  -24.3850    1.0000 </r>
       <r>   -6.1242    1.0000 </r>
       <r>   -6.1144    1.0000 </r>
       <r>   -6.0916    1.0000 </r>
       <r>   -6.0914    1.0000 </r>
       <r>   -6.0567    1.0000 </r>
       <r>    0.7836    1.0000 </r>
       <r>    1.3812    1.0000 </r>
       <r>    1.4122    1.0000 </r>
       <r>    1.4168    1.0000 </r>
       <r>    2.4149    1.0000 </r>
       <r>    2.7355    1.0000 </r>
       <r>    2.7595    1.0000 </r>
       <r>    2.7617    1.0000 </r>
       <r>    5.8636    1.0000 </r>
       <r>    5.9082    1.0000 </r>
       <r>    5.9180    1.0000 </r>
       <r>    5.9276    1.0000 </r>
       <r>    6.4402    1.0000 </r>
       <r>    6.4735    1.0000 </r>
       <r>    6.4848    1.0000 </r>
       <r>    6.4870    1.0000 </r>
       <r>    7.0809    1.0000 </r>
       <r>    7.1025    1.0000 </r>
       <r>    7.1219    1.0000 </r>
       <r>    7.1377    1.0000 </r>
       <r>    7.7271    1.0000 </r>
       <r>    7.7781    1.0000 </r>
       <r>    7.7839    1.0000 </r>
       <r>    7.8458    1.0000 </r>
       <r>    8.4047    0.0817 </r>
       <r>    8.4056    0.0799 </r>
       <r>    8.4116    0.0679 </r>
       <r>    8.4258    0.0453 </r>
       <r>    8.5294    0.0008 </r>
       <r>    8.5312    0.0007 </r>
       <r>    8.5415    0.0004 </r>
       <r>    8.5651    0.0001 </r>
       <r>    9.1244    0.0000 </r>
       <r>    9.1332    0.0000 </r>
       <r>    9.1405    0.0000 </r>
       <r>    9.1612    0.0000 </r>
       <r>    9.1786    0.0000 </r>
       <r>    9.1882    0.0000 </r>
       <r>    9.2217    0.0000 </r>
       <r>    9.2601    0.0000 </r>
       <r>    9.9883    0.0000 </r>
       <r>    9.9884    0.0000 </r>
       <r>   10.0046    0.0000 </r>
       <r>   10.0404    0.0000 </r>
       <r>   10.2174    0.0000 </r>
       <r>   10.2291    0.0000 </r>
       <r>   10.2333    0.0000 </r>
       <r>   10.2367    0.0000 </r>
       <r>   11.2840    0.0000 </r>
       <r>   11.3062    0.0000 </r>
       <r>   11.3141    0.0000 </r>
      </set>
      <set comment="kpoint 30">
       <r>  -48.2799    1.0000 </r>
       <r>  -48.2799    1.0000 </r>
       <r>  -48.2793    1.0000 </r>
       <r>  -48.2793    1.0000 </r>
       <r>  -48.2793    1.0000 </r>
       <r>  -48.2793    1.0000 </r>
       <r>  -48.2788    1.0000 </r>
       <r>  -48.2787    1.0000 </r>
       <r>  -24.6853    1.0000 </r>
       <r>  -24.6846    1.0000 </r>
       <r>  -24.6846    1.0000 </r>
       <r>  -24.6846    1.0000 </r>
       <r>  -24.6842    1.0000 </r>
       <r>  -24.6842    1.0000 </r>
       <r>  -24.6841    1.0000 </r>
       <r>  -24.6838    1.0000 </r>
       <r>  -24.5166    1.0000 </r>
       <r>  -24.5165    1.0000 </r>
       <r>  -24.5125    1.0000 </r>
       <r>  -24.5123    1.0000 </r>
       <r>  -24.5046    1.0000 </r>
       <r>  -24.5046    1.0000 </r>
       <r>  -24.5046    1.0000 </r>
       <r>  -24.5046    1.0000 </r>
       <r>  -24.4996    1.0000 </r>
       <r>  -24.4996    1.0000 </r>
       <r>  -24.4996    1.0000 </r>
       <r>  -24.4996    1.0000 </r>
       <r>  -24.4919    1.0000 </r>
       <r>  -24.4918    1.0000 </r>
       <r>  -24.4877    1.0000 </r>
       <r>  -24.4876    1.0000 </r>
       <r>   -6.1235    1.0000 </r>
       <r>   -6.1146    1.0000 </r>
       <r>   -6.0915    1.0000 </r>
       <r>   -6.0915    1.0000 </r>
       <r>   -6.0564    1.0000 </r>
       <r>    1.0620    1.0000 </r>
       <r>    1.9341    1.0000 </r>
       <r>    1.9341    1.0000 </r>
       <r>    1.9851    1.0000 </r>
       <r>    1.9905    1.0000 </r>
       <r>    1.9912    1.0000 </r>
       <r>    1.9935    1.0000 </r>
       <r>    1.9935    1.0000 </r>
       <r>    6.1245    1.0000 </r>
       <r>    6.2222    1.0000 </r>
       <r>    6.2222    1.0000 </r>
       <r>    6.2265    1.0000 </r>
       <r>    6.2272    1.0000 </r>
       <r>    6.2339    1.0000 </r>
       <r>    6.2429    1.0000 </r>
       <r>    6.2429    1.0000 </r>
       <r>    7.8255    1.0000 </r>
       <r>    7.8255    1.0000 </r>
       <r>    7.8734    1.0000 </r>
       <r>    7.9026    1.0000 </r>
       <r>    7.9070    1.0000 </r>
       <r>    7.9070    1.0000 </r>
       <r>    7.9097    1.0000 </r>
       <r>    8.0834    0.9992 </r>
       <r>    8.2528    0.7747 </r>
       <r>    8.2528    0.7747 </r>
       <r>    8.2673    0.7090 </r>
       <r>    8.2894    0.5936 </r>
       <r>    8.3201    0.4218 </r>
       <r>    8.3201    0.4218 </r>
       <r>    8.3226    0.4080 </r>
       <r>    8.3620    0.2151 </r>
       <r>    9.0151    0.0000 </r>
       <r>    9.0255    0.0000 </r>
       <r>    9.0277    0.0000 </r>
       <r>    9.0277    0.0000 </r>
       <r>    9.0331    0.0000 </r>
       <r>    9.0354    0.0000 </r>
       <r>    9.1144    0.0000 </r>
       <r>    9.1144    0.0000 </r>
       <r>    9.9533    0.0000 </r>
       <r>    9.9559    0.0000 </r>
       <r>    9.9559    0.0000 </r>
       <r>    9.9560    0.0000 </r>
       <r>    9.9756    0.0000 </r>
       <r>    9.9821    0.0000 </r>
       <r>    9.9827    0.0000 </r>
       <r>    9.9827    0.0000 </r>
       <r>   11.6305    0.0000 </r>
       <r>   11.6627    0.0000 </r>
       <r>   11.6793    0.0000 </r>
      </set>
     </set>
    </set>
   </array>
  </eigenvalues>
  <separator name="orbital magnetization" >
   <v name="MAGDIPOLOUT">      0.00000000      0.00000000      0.00000000</v>
  </separator>
 </calculation>
 <structure name="finalpos" >
  <crystal>
   <varray name="basis" >
    <v>       5.64528606      -0.00000000       0.00000000 </v>
    <v>       0.00000000       5.64528606       0.00000000 </v>
    <v>       0.00000000       0.00000000       8.10998246 </v>
   </varray>
   <i name="volume">    258.45909678 </i>
   <varray name="rec_basis" >
    <v>       0.17713894      -0.00000000      -0.00000000 </v>
    <v>       0.00000000       0.17713894      -0.00000000 </v>
    <v>      -0.00000000      -0.00000000       0.12330483 </v>
   </varray>
  </crystal>
  <varray name="positions" >
   <v>       0.00019716       0.00019716       0.00061719 </v>
   <v>       0.00019716       0.00019716       0.49938281 </v>
   <v>       0.00019716       0.49980284       0.00061719 </v>
   <v>       0.00019716       0.49980284       0.49938281 </v>
   <v>       0.49980284       0.00019716       0.00061719 </v>
   <v>       0.49980284       0.00019716       0.49938281 </v>
   <v>       0.49980284       0.49980284       0.00061719 </v>
   <v>       0.49980284       0.49980284       0.49938281 </v>
   <v>       0.25000000       0.25000000       0.25000000 </v>
   <v>       0.25000000       0.25000000       0.75000000 </v>
   <v>       0.25000000       0.75000000       0.25000000 </v>
   <v>       0.25000000       0.75000000       0.75000000 </v>
   <v>       0.75000000       0.25000000       0.25000000 </v>
   <v>       0.75000000       0.25000000       0.75000000 </v>
   <v>       0.75000000       0.75000000       0.25000000 </v>
   <v>       0.75000000       0.75000000       0.75000000 </v>
  </varray>
 </structure>
</modeling>
