CaNi2                                   
           1
     5.647637    0.000000    0.000000
     0.000000    5.647637    0.000000
     0.000000    0.000000    8.140666
   Ti   Ga   Al
     8     1     7
Direct configuration=     1
   0.00000000  0.00000000  0.00000000
   0.00000000  0.00000000  0.50000000
   0.00000000  0.50000000  0.00000000
   0.00000000  0.50000000  0.50000000
   0.50000000  0.00000000  0.00000000
   0.50000000  0.00000000  0.50000000
   0.50000000  0.50000000  0.00000000
   0.50000000  0.50000000  0.50000000
   0.25000000  0.25000000  0.25000000
   0.25000000  0.25000000  0.75000000
   0.25000000  0.75000000  0.25000000
   0.25000000  0.75000000  0.75000000
   0.75000000  0.25000000  0.25000000
   0.75000000  0.25000000  0.75000000
   0.75000000  0.75000000  0.25000000
   0.75000000  0.75000000  0.75000000
CaNi2                                   
           1
     5.636197    0.000000    0.000000
    -0.000000    5.636197    0.000000
     0.000000    0.000000    8.112126
   Ti   Ga   Al
     8     1     7
Direct configuration=     2
   0.00009985  0.00009985  0.00017138
   0.00009985  0.00009985  0.49982862
   0.00009985  0.49990015  0.00017138
   0.00009985  0.49990015  0.49982862
   0.49990015  0.00009985  0.00017138
   0.49990015  0.00009985  0.49982862
   0.49990015  0.49990015  0.00017138
   0.49990015  0.49990015  0.49982862
   0.25000000  0.25000000  0.25000000
   0.25000000  0.25000000  0.75000000
   0.25000000  0.75000000  0.25000000
   0.25000000  0.75000000  0.75000000
   0.75000000  0.25000000  0.25000000
   0.75000000  0.25000000  0.75000000
   0.75000000  0.75000000  0.25000000
   0.75000000  0.75000000  0.75000000
CaNi2                                   
           1
     5.643419    0.000000    0.000000
    -0.000000    5.643419    0.000000
     0.000000    0.000000    8.118517
   Ti   Ga   Al
     8     1     7
Direct configuration=     3
   0.00013006  0.00013006  0.00025988
   0.00013006  0.00013006  0.49974012
   0.00013006  0.49986994  0.00025988
   0.00013006  0.49986994  0.49974012
   0.49986994  0.00013006  0.00025988
   0.49986994  0.00013006  0.49974012
   0.49986994  0.49986994  0.00025988
   0.49986994  0.49986994  0.49974012
   0.25000000  0.25000000  0.25000000
   0.25000000  0.25000000  0.75000000
   0.25000000  0.75000000  0.25000000
   0.25000000  0.75000000  0.75000000
   0.75000000  0.25000000  0.25000000
   0.75000000  0.25000000  0.75000000
   0.75000000  0.75000000  0.25000000
   0.75000000  0.75000000  0.75000000
CaNi2                                   
           1
     5.644625    0.000000   -0.000000
    -0.000000    5.644625    0.000000
     0.000000    0.000000    8.115744
   Ti   Ga   Al
     8     1     7
Direct configuration=     4
   0.00015944  0.00015944  0.00037377
   0.00015944  0.00015944  0.49962623
   0.00015944  0.49984056  0.00037377
   0.00015944  0.49984056  0.49962623
   0.49984056  0.00015944  0.00037377
   0.49984056  0.00015944  0.49962623
   0.49984056  0.49984056  0.00037377
   0.49984056  0.49984056  0.49962623
   0.25000000  0.25000000  0.25000000
   0.25000000  0.25000000  0.75000000
   0.25000000  0.75000000  0.25000000
   0.25000000  0.75000000  0.75000000
   0.75000000  0.25000000  0.25000000
   0.75000000  0.25000000  0.75000000
   0.75000000  0.75000000  0.25000000
   0.75000000  0.75000000  0.75000000
CaNi2                                   
           1
     5.645286   -0.000000    0.000000
     0.000000    5.645286    0.000000
     0.000000    0.000000    8.109982
   Ti   Ga   Al
     8     1     7
Direct configuration=     5
   0.00019716  0.00019716  0.00061719
   0.00019716  0.00019716  0.49938281
   0.00019716  0.49980284  0.00061719
   0.00019716  0.49980284  0.49938281
   0.49980284  0.00019716  0.00061719
   0.49980284  0.00019716  0.49938281
   0.49980284  0.49980284  0.00061719
   0.49980284  0.49980284  0.49938281
   0.25000000  0.25000000  0.25000000
   0.25000000  0.25000000  0.75000000
   0.25000000  0.75000000  0.25000000
   0.25000000  0.75000000  0.75000000
   0.75000000  0.25000000  0.25000000
   0.75000000  0.25000000  0.75000000
   0.75000000  0.75000000  0.25000000
   0.75000000  0.75000000  0.75000000
