  16  16   0   0
  0.5545275E+02  0.5606952E-09  0.8241707E-09  0.1919991E-08  0.5000000E-15
  1.000000000000000E-004
  CAR 
 unknown system                          
     11.38429293    -60.59914253  301     -0.20624813      1.00000000
    -60.599  0.0000E+00  0.0000E+00
    -60.359  0.0000E+00  0.0000E+00
    -60.119  0.0000E+00  0.0000E+00
    -59.879  0.0000E+00  0.0000E+00
    -59.639  0.0000E+00  0.0000E+00
    -59.399  0.0000E+00  0.0000E+00
    -59.159  0.0000E+00  0.0000E+00
    -58.920  0.0000E+00  0.0000E+00
    -58.680  0.0000E+00  0.0000E+00
    -58.440  0.0000E+00  0.0000E+00
    -58.200 -0.2569E-31 -0.6165E-32
    -57.960 -0.9664E-16 -0.2319E-16
    -57.720 -0.2956E-05 -0.7093E-06
    -57.480 -0.4220E+00 -0.1013E+00
    -57.240  0.1720E+02  0.4025E+01
    -57.000  0.8551E+01  0.6077E+01
    -56.760  0.3314E+02  0.1403E+02
    -56.520 -0.1148E+00  0.1400E+02
    -56.280 -0.5719E-03  0.1400E+02
    -56.040 -0.8976E-12  0.1400E+02
    -55.800  0.0000E+00  0.1400E+02
    -55.560  0.0000E+00  0.1400E+02
    -55.320  0.0000E+00  0.1400E+02
    -55.080  0.0000E+00  0.1400E+02
    -54.840  0.0000E+00  0.1400E+02
    -54.601  0.0000E+00  0.1400E+02
    -54.361  0.0000E+00  0.1400E+02
    -54.121  0.0000E+00  0.1400E+02
    -53.881  0.0000E+00  0.1400E+02
    -53.641  0.0000E+00  0.1400E+02
    -53.401  0.0000E+00  0.1400E+02
    -53.161  0.0000E+00  0.1400E+02
    -52.921  0.0000E+00  0.1400E+02
    -52.681  0.0000E+00  0.1400E+02
    -52.441  0.0000E+00  0.1400E+02
    -52.201  0.0000E+00  0.1400E+02
    -51.961  0.0000E+00  0.1400E+02
    -51.721  0.0000E+00  0.1400E+02
    -51.481  0.0000E+00  0.1400E+02
    -51.241  0.0000E+00  0.1400E+02
    -51.001  0.0000E+00  0.1400E+02
    -50.761  0.0000E+00  0.1400E+02
    -50.521  0.0000E+00  0.1400E+02
    -50.282  0.0000E+00  0.1400E+02
    -50.042  0.0000E+00  0.1400E+02
    -49.802  0.0000E+00  0.1400E+02
    -49.562  0.0000E+00  0.1400E+02
    -49.322  0.0000E+00  0.1400E+02
    -49.082  0.0000E+00  0.1400E+02
    -48.842  0.0000E+00  0.1400E+02
    -48.602  0.0000E+00  0.1400E+02
    -48.362  0.0000E+00  0.1400E+02
    -48.122  0.0000E+00  0.1400E+02
    -47.882  0.0000E+00  0.1400E+02
    -47.642  0.0000E+00  0.1400E+02
    -47.402  0.0000E+00  0.1400E+02
    -47.162  0.0000E+00  0.1400E+02
    -46.922  0.0000E+00  0.1400E+02
    -46.682  0.0000E+00  0.1400E+02
    -46.442  0.0000E+00  0.1400E+02
    -46.202  0.0000E+00  0.1400E+02
    -45.963  0.0000E+00  0.1400E+02
    -45.723  0.0000E+00  0.1400E+02
    -45.483  0.0000E+00  0.1400E+02
    -45.243  0.0000E+00  0.1400E+02
    -45.003  0.0000E+00  0.1400E+02
    -44.763  0.0000E+00  0.1400E+02
    -44.523  0.0000E+00  0.1400E+02
    -44.283  0.0000E+00  0.1400E+02
    -44.043  0.0000E+00  0.1400E+02
    -43.803  0.0000E+00  0.1400E+02
    -43.563  0.0000E+00  0.1400E+02
    -43.323  0.0000E+00  0.1400E+02
    -43.083  0.0000E+00  0.1400E+02
    -42.843  0.0000E+00  0.1400E+02
    -42.603  0.0000E+00  0.1400E+02
    -42.363  0.0000E+00  0.1400E+02
    -42.123  0.0000E+00  0.1400E+02
    -41.883  0.0000E+00  0.1400E+02
    -41.644  0.0000E+00  0.1400E+02
    -41.404  0.0000E+00  0.1400E+02
    -41.164  0.0000E+00  0.1400E+02
    -40.924  0.0000E+00  0.1400E+02
    -40.684  0.0000E+00  0.1400E+02
    -40.444  0.0000E+00  0.1400E+02
    -40.204  0.0000E+00  0.1400E+02
    -39.964  0.0000E+00  0.1400E+02
    -39.724  0.0000E+00  0.1400E+02
    -39.484  0.0000E+00  0.1400E+02
    -39.244  0.0000E+00  0.1400E+02
    -39.004  0.0000E+00  0.1400E+02
    -38.764  0.0000E+00  0.1400E+02
    -38.524  0.0000E+00  0.1400E+02
    -38.284  0.0000E+00  0.1400E+02
    -38.044  0.0000E+00  0.1400E+02
    -37.804  0.0000E+00  0.1400E+02
    -37.564  0.0000E+00  0.1400E+02
    -37.324  0.0000E+00  0.1400E+02
    -37.085  0.0000E+00  0.1400E+02
    -36.845  0.0000E+00  0.1400E+02
    -36.605  0.0000E+00  0.1400E+02
    -36.365  0.0000E+00  0.1400E+02
    -36.125  0.0000E+00  0.1400E+02
    -35.885  0.0000E+00  0.1400E+02
    -35.645  0.0000E+00  0.1400E+02
    -35.405  0.0000E+00  0.1400E+02
    -35.165  0.0000E+00  0.1400E+02
    -34.925  0.0000E+00  0.1400E+02
    -34.685 -0.1000E-35  0.1400E+02
    -34.445 -0.4888E-19  0.1400E+02
    -34.205 -0.2009E-07  0.1400E+02
    -33.965 -0.5380E-01  0.1399E+02
    -33.725  0.7505E+01  0.1579E+02
    -33.485  0.4676E+02  0.2701E+02
    -33.245  0.4424E+02  0.3762E+02
    -33.005  0.6046E+02  0.5213E+02
    -32.766  0.1521E+02  0.5578E+02
    -32.526  0.9277E+00  0.5600E+02
    -32.286 -0.2334E-02  0.5600E+02
    -32.046 -0.5434E-10  0.5600E+02
    -31.806  0.0000E+00  0.5600E+02
    -31.566  0.0000E+00  0.5600E+02
    -31.326  0.0000E+00  0.5600E+02
    -31.086  0.0000E+00  0.5600E+02
    -30.846  0.0000E+00  0.5600E+02
    -30.606  0.0000E+00  0.5600E+02
    -30.366  0.0000E+00  0.5600E+02
    -30.126  0.0000E+00  0.5600E+02
    -29.886  0.0000E+00  0.5600E+02
    -29.646  0.0000E+00  0.5600E+02
    -29.406  0.0000E+00  0.5600E+02
    -29.166  0.0000E+00  0.5600E+02
    -28.926  0.0000E+00  0.5600E+02
    -28.686  0.0000E+00  0.5600E+02
    -28.447  0.0000E+00  0.5600E+02
    -28.207  0.0000E+00  0.5600E+02
    -27.967  0.0000E+00  0.5600E+02
    -27.727  0.0000E+00  0.5600E+02
    -27.487  0.0000E+00  0.5600E+02
    -27.247  0.0000E+00  0.5600E+02
    -27.007  0.0000E+00  0.5600E+02
    -26.767  0.0000E+00  0.5600E+02
    -26.527  0.0000E+00  0.5600E+02
    -26.287  0.0000E+00  0.5600E+02
    -26.047  0.0000E+00  0.5600E+02
    -25.807  0.0000E+00  0.5600E+02
    -25.567  0.0000E+00  0.5600E+02
    -25.327  0.0000E+00  0.5600E+02
    -25.087  0.0000E+00  0.5600E+02
    -24.847  0.0000E+00  0.5600E+02
    -24.607  0.0000E+00  0.5600E+02
    -24.367  0.0000E+00  0.5600E+02
    -24.128  0.0000E+00  0.5600E+02
    -23.888  0.0000E+00  0.5600E+02
    -23.648  0.0000E+00  0.5600E+02
    -23.408  0.0000E+00  0.5600E+02
    -23.168  0.0000E+00  0.5600E+02
    -22.928  0.0000E+00  0.5600E+02
    -22.688  0.0000E+00  0.5600E+02
    -22.448  0.0000E+00  0.5600E+02
    -22.208  0.0000E+00  0.5600E+02
    -21.968  0.0000E+00  0.5600E+02
    -21.728  0.0000E+00  0.5600E+02
    -21.488  0.0000E+00  0.5600E+02
    -21.248  0.0000E+00  0.5600E+02
    -21.008  0.0000E+00  0.5600E+02
    -20.768  0.0000E+00  0.5600E+02
    -20.528  0.0000E+00  0.5600E+02
    -20.288  0.0000E+00  0.5600E+02
    -20.048  0.0000E+00  0.5600E+02
    -19.809  0.0000E+00  0.5600E+02
    -19.569  0.0000E+00  0.5600E+02
    -19.329  0.0000E+00  0.5600E+02
    -19.089  0.0000E+00  0.5600E+02
    -18.849  0.0000E+00  0.5600E+02
    -18.609  0.0000E+00  0.5600E+02
    -18.369  0.0000E+00  0.5600E+02
    -18.129  0.0000E+00  0.5600E+02
    -17.889  0.0000E+00  0.5600E+02
    -17.649  0.0000E+00  0.5600E+02
    -17.409  0.0000E+00  0.5600E+02
    -17.169  0.0000E+00  0.5600E+02
    -16.929  0.0000E+00  0.5600E+02
    -16.689  0.0000E+00  0.5600E+02
    -16.449  0.0000E+00  0.5600E+02
    -16.209  0.0000E+00  0.5600E+02
    -15.969  0.0000E+00  0.5600E+02
    -15.729  0.0000E+00  0.5600E+02
    -15.490 -0.4872E-35  0.5600E+02
    -15.250 -0.2025E-18  0.5600E+02
    -15.010 -0.7460E-07  0.5600E+02
    -14.770 -0.1981E+00  0.5595E+02
    -14.530  0.2806E+02  0.6269E+02
    -14.290  0.1385E+02  0.6601E+02
    -14.050 -0.3845E-01  0.6600E+02
    -13.810 -0.2606E-08  0.6600E+02
    -13.570  0.0000E+00  0.6600E+02
    -13.330  0.0000E+00  0.6600E+02
    -13.090  0.0000E+00  0.6600E+02
    -12.850  0.0000E+00  0.6600E+02
    -12.610  0.0000E+00  0.6600E+02
    -12.370  0.0000E+00  0.6600E+02
    -12.130  0.0000E+00  0.6600E+02
    -11.890  0.0000E+00  0.6600E+02
    -11.650  0.0000E+00  0.6600E+02
    -11.410  0.0000E+00  0.6600E+02
    -11.171  0.0000E+00  0.6600E+02
    -10.931  0.0000E+00  0.6600E+02
    -10.691  0.0000E+00  0.6600E+02
    -10.451  0.0000E+00  0.6600E+02
    -10.211  0.0000E+00  0.6600E+02
     -9.971  0.0000E+00  0.6600E+02
     -9.731  0.0000E+00  0.6600E+02
     -9.491 -0.1623E-31  0.6600E+02
     -9.251 -0.2896E-16  0.6600E+02
     -9.011 -0.4088E-06  0.6600E+02
     -8.771 -0.2239E-01  0.6599E+02
     -8.531  0.6800E+00  0.6616E+02
     -8.291  0.2611E+01  0.6678E+02
     -8.051  0.3053E+01  0.6752E+02
     -7.811 -0.1279E+00  0.6749E+02
     -7.571  0.2996E+01  0.6820E+02
     -7.331  0.3369E+01  0.6901E+02
     -7.091  0.1247E+01  0.6931E+02
     -6.852  0.3011E+01  0.7004E+02
     -6.612  0.3909E+01  0.7097E+02
     -6.372  0.5036E+01  0.7218E+02
     -6.132  0.1239E+01  0.7248E+02
     -5.892  0.7184E+00  0.7265E+02
     -5.652  0.5595E+01  0.7399E+02
     -5.412  0.4748E+01  0.7513E+02
     -5.172  0.4937E+01  0.7632E+02
     -4.932  0.4346E+01  0.7736E+02
     -4.692  0.3101E+01  0.7810E+02
     -4.452  0.5038E+01  0.7931E+02
     -4.212  0.3170E+01  0.8007E+02
     -3.972  0.3953E+01  0.8102E+02
     -3.732  0.3536E+01  0.8187E+02
     -3.492  0.6568E+01  0.8345E+02
     -3.252  0.4286E+01  0.8448E+02
     -3.012  0.5428E+01  0.8578E+02
     -2.772  0.3561E+01  0.8663E+02
     -2.533  0.6239E+01  0.8813E+02
     -2.293  0.9457E+01  0.9040E+02
     -2.053  0.6885E+01  0.9205E+02
     -1.813  0.1160E+02  0.9483E+02
     -1.573  0.1542E+02  0.9853E+02
     -1.333  0.1432E+02  0.1020E+03
     -1.093  0.1331E+02  0.1052E+03
     -0.853  0.1213E+02  0.1081E+03
     -0.613  0.1828E+02  0.1125E+03
     -0.373  0.2102E+02  0.1175E+03
     -0.133  0.2191E+02  0.1228E+03
      0.107  0.2169E+02  0.1280E+03
      0.347  0.1822E+02  0.1323E+03
      0.587  0.1652E+02  0.1363E+03
      0.827  0.1000E+02  0.1387E+03
      1.067  0.1350E+02  0.1419E+03
      1.307  0.2649E+02  0.1483E+03
      1.547  0.2929E+02  0.1553E+03
      1.787  0.1744E+02  0.1595E+03
      2.026  0.2122E+02  0.1646E+03
      2.266  0.1873E+02  0.1691E+03
      2.506  0.1823E+02  0.1735E+03
      2.746  0.8869E+01  0.1756E+03
      2.986  0.1049E+02  0.1781E+03
      3.226  0.8323E+01  0.1801E+03
      3.466  0.9008E+01  0.1823E+03
      3.706  0.1552E+02  0.1860E+03
      3.946  0.1474E+02  0.1895E+03
      4.186  0.1645E+02  0.1935E+03
      4.426  0.1061E+02  0.1960E+03
      4.666  0.1368E+02  0.1993E+03
      4.906  0.1244E+02  0.2023E+03
      5.146  0.1719E+02  0.2064E+03
      5.386  0.1395E+02  0.2098E+03
      5.626  0.2113E+02  0.2148E+03
      5.866  0.1419E+02  0.2182E+03
      6.106  0.1610E+02  0.2221E+03
      6.345  0.1986E+02  0.2269E+03
      6.585  0.1710E+02  0.2310E+03
      6.825  0.2466E+02  0.2369E+03
      7.065  0.1558E+02  0.2406E+03
      7.305  0.1994E+02  0.2454E+03
      7.545  0.1804E+02  0.2497E+03
      7.785  0.1423E+02  0.2532E+03
      8.025  0.8266E+01  0.2551E+03
      8.265  0.3611E+01  0.2560E+03
      8.505 -0.2998E-01  0.2560E+03
      8.745 -0.1469E-06  0.2560E+03
      8.985  0.0000E+00  0.2560E+03
      9.225  0.0000E+00  0.2560E+03
      9.465  0.0000E+00  0.2560E+03
      9.705  0.0000E+00  0.2560E+03
      9.945  0.0000E+00  0.2560E+03
     10.185  0.0000E+00  0.2560E+03
     10.425  0.0000E+00  0.2560E+03
     10.664  0.0000E+00  0.2560E+03
     10.904  0.0000E+00  0.2560E+03
     11.144  0.0000E+00  0.2560E+03
     11.384  0.0000E+00  0.2560E+03
