   16   16    1    1
  0.5545275E+02  0.5606952E-09  0.8241707E-09  0.1919990E-08  0.5000000E-15
  1.000000000000000E-004
  CAR 
 unknown system                          
    121      6    128
 
  0.1276756E-14  0.1276756E-14  0.1276756E-14  0.8333333E-01
      1        -57.327168   1.000000
      2        -57.324943   1.000000
      3        -57.157375   1.000000
      4        -56.941712   1.000000
      5        -56.918646   1.000000
      6        -56.843873   1.000000
      7        -56.825613   1.000000
      8        -33.760235   1.000000
      9        -33.678497   1.000000
     10        -33.652766   1.000000
     11        -33.645666   1.000000
     12        -33.605161   1.000000
     13        -33.573042   1.000000
     14        -33.494727   1.000000
     15        -33.456247   1.000000
     16        -33.303790   1.000000
     17        -33.291116   1.000000
     18        -33.289779   1.000000
     19        -33.271696   1.000000
     20        -33.271292   1.000000
     21        -33.233083   1.000000
     22        -33.201021   1.000000
     23        -33.167322   1.000000
     24        -33.077702   1.000000
     25        -33.077052   1.000000
     26        -33.044570   1.000000
     27        -32.806164   1.000000
     28        -32.783313   1.000000
     29        -14.569107   1.000000
     30        -14.566136   1.000000
     31        -14.552753   1.000000
     32        -14.551074   1.000000
     33        -14.522652   1.000000
     34         -8.632307   1.000000
     35         -7.135912   1.000000
     36         -6.859026   1.000000
     37         -5.444207   1.000000
     38         -5.362036   1.000000
     39         -4.282682   1.000000
     40         -4.125186   1.000000
     41         -4.055674   1.000000
     42         -3.608443   1.000000
     43         -2.875873   1.000000
     44         -2.814437   1.000000
     45         -2.783059   1.000000
     46         -2.323585   1.000000
     47         -1.927343   1.000000
     48         -1.914169   1.000000
     49         -1.875895   1.000000
     50         -1.796066   1.000000
     51         -1.481683   1.000000
     52         -1.397259   1.000000
     53         -1.372011   1.000000
     54         -1.331457   1.000000
     55         -0.948651   1.000000
     56         -0.697854   1.000000
     57         -0.594703   1.000000
     58         -0.569844   1.000002
     59         -0.489442   1.000232
     60         -0.248176   0.822600
     61         -0.072502  -0.033786
     62         -0.017029  -0.011148
     63         -0.001973  -0.006946
     64          0.011698  -0.004292
     65          0.275711  -0.000000
     66          0.278723  -0.000000
     67          0.283745  -0.000000
     68          0.581651  -0.000000
     69          0.730057  -0.000000
     70          0.954278  -0.000000
     71          0.987131  -0.000000
     72          1.101582  -0.000000
     73          1.134599  -0.000000
     74          1.342295  -0.000000
     75          1.410901  -0.000000
     76          1.500601  -0.000000
     77          1.502125  -0.000000
     78          1.642710  -0.000000
     79          1.685631  -0.000000
     80          1.822454   0.000000
     81          1.980278   0.000000
     82          1.993812   0.000000
     83          2.159505   0.000000
     84          2.262141   0.000000
     85          2.297025   0.000000
     86          2.306727   0.000000
     87          2.529777   0.000000
     88          2.608920   0.000000
     89          2.731161   0.000000
     90          3.146532   0.000000
     91          3.150874   0.000000
     92          3.447348   0.000000
     93          3.688226   0.000000
     94          3.809845   0.000000
     95          3.902307   0.000000
     96          3.982804   0.000000
     97          4.095823   0.000000
     98          4.264319   0.000000
     99          4.496218   0.000000
    100          4.698591   0.000000
    101          4.741161   0.000000
    102          4.861612   0.000000
    103          5.200458   0.000000
    104          5.262338   0.000000
    105          5.445204   0.000000
    106          5.563260   0.000000
    107          5.603750   0.000000
    108          5.746721   0.000000
    109          5.766335   0.000000
    110          5.932488   0.000000
    111          5.979987   0.000000
    112          6.017662   0.000000
    113          6.031105   0.000000
    114          6.080409   0.000000
    115          6.277604   0.000000
    116          6.330248   0.000000
    117          6.414049   0.000000
    118          6.430746   0.000000
    119          6.543683   0.000000
    120          6.567925   0.000000
    121          7.110901   0.000000
    122          7.368439   0.000000
    123          7.391243   0.000000
    124          7.441057   0.000000
    125          7.833551   0.000000
    126          7.982157   0.000000
    127          8.023947   0.000000
    128          8.112319   0.000000
 
  0.2500000E+00  0.1276756E-14  0.1276756E-14  0.1666667E+00
      1        -57.327163   1.000000
      2        -57.322262   1.000000
      3        -57.160169   1.000000
      4        -56.936839   1.000000
      5        -56.913459   1.000000
      6        -56.848863   1.000000
      7        -56.830916   1.000000
      8        -33.757569   1.000000
      9        -33.678469   1.000000
     10        -33.650815   1.000000
     11        -33.645572   1.000000
     12        -33.607914   1.000000
     13        -33.506750   1.000000
     14        -33.494955   1.000000
     15        -33.458291   1.000000
     16        -33.298151   1.000000
     17        -33.282128   1.000000
     18        -33.269777   1.000000
     19        -33.241684   1.000000
     20        -33.222589   1.000000
     21        -33.205898   1.000000
     22        -33.203146   1.000000
     23        -33.163487   1.000000
     24        -33.146968   1.000000
     25        -33.081300   1.000000
     26        -33.046223   1.000000
     27        -32.878305   1.000000
     28        -32.855358   1.000000
     29        -14.567363   1.000000
     30        -14.566083   1.000000
     31        -14.552141   1.000000
     32        -14.546872   1.000000
     33        -14.522066   1.000000
     34         -8.343669   1.000000
     35         -6.898783   1.000000
     36         -6.709170   1.000000
     37         -5.800445   1.000000
     38         -5.211970   1.000000
     39         -5.119102   1.000000
     40         -5.022536   1.000000
     41         -3.978303   1.000000
     42         -3.439235   1.000000
     43         -3.286658   1.000000
     44         -2.777075   1.000000
     45         -2.491581   1.000000
     46         -2.033292   1.000000
     47         -1.743256   1.000000
     48         -1.650265   1.000000
     49         -1.438080   1.000000
     50         -1.411386   1.000000
     51         -1.323739   1.000000
     52         -1.233612   1.000000
     53         -1.205495   1.000000
     54         -1.101315   1.000000
     55         -0.958148   1.000000
     56         -0.735593   1.000000
     57         -0.713554   1.000000
     58         -0.431888   1.003206
     59         -0.392849   1.012026
     60         -0.361711   1.025165
     61         -0.327558   1.035437
     62         -0.152942   0.112289
     63         -0.073791  -0.034122
     64          0.062626  -0.000478
     65          0.205542  -0.000000
     66          0.283527  -0.000000
     67          0.348796  -0.000000
     68          0.403155  -0.000000
     69          0.790837  -0.000000
     70          1.060400  -0.000000
     71          1.105491  -0.000000
     72          1.107263  -0.000000
     73          1.231565  -0.000000
     74          1.270804  -0.000000
     75          1.353068  -0.000000
     76          1.420994  -0.000000
     77          1.459705  -0.000000
     78          1.467193  -0.000000
     79          1.531926  -0.000000
     80          1.677716  -0.000000
     81          1.755871  -0.000000
     82          1.936987   0.000000
     83          2.017204   0.000000
     84          2.063122   0.000000
     85          2.154330   0.000000
     86          2.297223   0.000000
     87          2.483398   0.000000
     88          2.526355   0.000000
     89          3.235728   0.000000
     90          3.350721   0.000000
     91          3.506030   0.000000
     92          3.579120   0.000000
     93          3.638475   0.000000
     94          3.657184   0.000000
     95          4.071979   0.000000
     96          4.099286   0.000000
     97          4.130756   0.000000
     98          4.156979   0.000000
     99          4.642623   0.000000
    100          4.712200   0.000000
    101          4.903235   0.000000
    102          5.083935   0.000000
    103          5.111359   0.000000
    104          5.365506   0.000000
    105          5.413481   0.000000
    106          5.565457   0.000000
    107          5.643299   0.000000
    108          5.729711   0.000000
    109          5.818243   0.000000
    110          5.954618   0.000000
    111          6.052178   0.000000
    112          6.098381   0.000000
    113          6.230808   0.000000
    114          6.300757   0.000000
    115          6.337660   0.000000
    116          6.481642   0.000000
    117          6.484537   0.000000
    118          6.638749   0.000000
    119          6.665759   0.000000
    120          6.758467   0.000000
    121          6.783033   0.000000
    122          6.880963   0.000000
    123          7.020251   0.000000
    124          7.113765   0.000000
    125          7.310361   0.000000
    126          7.365881   0.000000
    127          7.805208   0.000000
    128          8.032494   0.000000
 
  0.5000000E+00  0.1276756E-14  0.1276756E-14  0.8333333E-01
      1        -57.327158   1.000000
      2        -57.319485   1.000000
      3        -57.163058   1.000000
      4        -56.931340   1.000000
      5        -56.907501   1.000000
      6        -56.854479   1.000000
      7        -56.836989   1.000000
      8        -33.754808   1.000000
      9        -33.678444   1.000000
     10        -33.648819   1.000000
     11        -33.645482   1.000000
     12        -33.610763   1.000000
     13        -33.495264   1.000000
     14        -33.460378   1.000000
     15        -33.385807   1.000000
     16        -33.291833   1.000000
     17        -33.271790   1.000000
     18        -33.268241   1.000000
     19        -33.265523   1.000000
     20        -33.259314   1.000000
     21        -33.211378   1.000000
     22        -33.158364   1.000000
     23        -33.086074   1.000000
     24        -33.073800   1.000000
     25        -33.060121   1.000000
     26        -33.047896   1.000000
     27        -33.030642   1.000000
     28        -33.001706   1.000000
     29        -14.566225   1.000000
     30        -14.566028   1.000000
     31        -14.551530   1.000000
     32        -14.542063   1.000000
     33        -14.521484   1.000000
     34         -7.719276   1.000000
     35         -7.207116   1.000000
     36         -6.230331   1.000000
     37         -6.183746   1.000000
     38         -5.999355   1.000000
     39         -5.077409   1.000000
     40         -4.479457   1.000000
     41         -4.370768   1.000000
     42         -4.275737   1.000000
     43         -3.565317   1.000000
     44         -2.706985   1.000000
     45         -2.181342   1.000000
     46         -1.740771   1.000000
     47         -1.723150   1.000000
     48         -1.623170   1.000000
     49         -1.284575   1.000000
     50         -1.202708   1.000000
     51         -1.178469   1.000000
     52         -1.162908   1.000000
     53         -1.061590   1.000000
     54         -0.830242   1.000000
     55         -0.634783   1.000000
     56         -0.466831   1.000712
     57         -0.435498   1.002781
     58         -0.396912   1.010682
     59         -0.364446   1.023900
     60         -0.249826   0.832815
     61         -0.243082   0.789512
     62         -0.176652   0.261282
     63         -0.159123   0.146098
     64          0.053141  -0.000754
     65          0.147889  -0.000003
     66          0.370818  -0.000000
     67          0.405763  -0.000000
     68          0.510256  -0.000000
     69          0.848726  -0.000000
     70          0.896155  -0.000000
     71          0.961865  -0.000000
     72          0.983543  -0.000000
     73          1.087148  -0.000000
     74          1.104877  -0.000000
     75          1.147368  -0.000000
     76          1.295734  -0.000000
     77          1.300723  -0.000000
     78          1.303533  -0.000000
     79          1.331478  -0.000000
     80          1.461015  -0.000000
     81          1.469387  -0.000000
     82          1.687697  -0.000000
     83          1.846486   0.000000
     84          1.871025   0.000000
     85          2.299467   0.000000
     86          2.444000   0.000000
     87          2.478650   0.000000
     88          2.848753   0.000000
     89          3.240006   0.000000
     90          3.503656   0.000000
     91          3.507998   0.000000
     92          3.685362   0.000000
     93          3.896426   0.000000
     94          4.090941   0.000000
     95          4.265773   0.000000
     96          4.498395   0.000000
     97          4.653049   0.000000
     98          4.804863   0.000000
     99          4.864210   0.000000
    100          4.887251   0.000000
    101          4.897420   0.000000
    102          5.027545   0.000000
    103          5.045741   0.000000
    104          5.111530   0.000000
    105          5.159275   0.000000
    106          5.471721   0.000000
    107          5.505246   0.000000
    108          5.629364   0.000000
    109          5.666833   0.000000
    110          5.695259   0.000000
    111          5.828353   0.000000
    112          5.911806   0.000000
    113          5.943427   0.000000
    114          5.948178   0.000000
    115          6.026347   0.000000
    116          6.353360   0.000000
    117          6.437675   0.000000
    118          6.674606   0.000000
    119          6.811825   0.000000
    120          6.825094   0.000000
    121          7.057324   0.000000
    122          7.187575   0.000000
    123          7.192952   0.000000
    124          7.211956   0.000000
    125          7.240579   0.000000
    126          7.334982   0.000000
    127          7.475860   0.000000
    128          7.520184   0.000000
 
  0.1276756E-14  0.3333333E+00  0.1276756E-14  0.1666667E+00
      1        -57.327167   1.000000
      2        -57.324944   1.000000
      3        -57.157375   1.000000
      4        -56.941711   1.000000
      5        -56.918648   1.000000
      6        -56.843870   1.000000
      7        -56.825613   1.000000
      8        -33.760235   1.000000
      9        -33.678395   1.000000
     10        -33.652805   1.000000
     11        -33.645661   1.000000
     12        -33.605162   1.000000
     13        -33.573041   1.000000
     14        -33.494731   1.000000
     15        -33.456304   1.000000
     16        -33.301668   1.000000
     17        -33.291823   1.000000
     18        -33.291089   1.000000
     19        -33.271724   1.000000
     20        -33.271290   1.000000
     21        -33.232632   1.000000
     22        -33.201549   1.000000
     23        -33.167323   1.000000
     24        -33.077704   1.000000
     25        -33.077049   1.000000
     26        -33.044574   1.000000
     27        -32.806165   1.000000
     28        -32.783317   1.000000
     29        -14.569062   1.000000
     30        -14.566148   1.000000
     31        -14.552749   1.000000
     32        -14.551072   1.000000
     33        -14.522652   1.000000
     34         -8.428043   1.000000
     35         -7.704084   1.000000
     36         -6.609424   1.000000
     37         -5.741388   1.000000
     38         -4.856293   1.000000
     39         -4.244719   1.000000
     40         -4.135016   1.000000
     41         -3.693908   1.000000
     42         -3.471112   1.000000
     43         -3.121972   1.000000
     44         -2.772884   1.000000
     45         -2.721728   1.000000
     46         -2.589168   1.000000
     47         -2.456433   1.000000
     48         -1.977806   1.000000
     49         -1.881343   1.000000
     50         -1.761203   1.000000
     51         -1.587040   1.000000
     52         -1.501976   1.000000
     53         -1.239928   1.000000
     54         -1.071633   1.000000
     55         -0.917391   1.000000
     56         -0.842685   1.000000
     57         -0.703753   1.000000
     58         -0.629798   1.000000
     59         -0.519203   1.000044
     60         -0.298457   1.015038
     61         -0.161233   0.158498
     62         -0.117584  -0.009015
     63          0.016657  -0.003562
     64          0.180056  -0.000000
     65          0.278445  -0.000000
     66          0.385369  -0.000000
     67          0.459952  -0.000000
     68          0.745138  -0.000000
     69          0.941900  -0.000000
     70          1.049477  -0.000000
     71          1.125420  -0.000000
     72          1.189741  -0.000000
     73          1.265617  -0.000000
     74          1.372166  -0.000000
     75          1.462452  -0.000000
     76          1.488177  -0.000000
     77          1.645251  -0.000000
     78          1.685048  -0.000000
     79          1.809593   0.000000
     80          1.852720   0.000000
     81          1.915643   0.000000
     82          1.962958   0.000000
     83          2.004637   0.000000
     84          2.107640   0.000000
     85          2.223240   0.000000
     86          2.309457   0.000000
     87          2.313824   0.000000
     88          2.531495   0.000000
     89          2.656321   0.000000
     90          2.978157   0.000000
     91          3.235452   0.000000
     92          3.432780   0.000000
     93          3.590426   0.000000
     94          3.612830   0.000000
     95          3.788035   0.000000
     96          3.916263   0.000000
     97          4.112382   0.000000
     98          4.174907   0.000000
     99          4.586850   0.000000
    100          4.601201   0.000000
    101          4.704526   0.000000
    102          4.831797   0.000000
    103          5.058471   0.000000
    104          5.090051   0.000000
    105          5.139120   0.000000
    106          5.308011   0.000000
    107          5.413348   0.000000
    108          5.488364   0.000000
    109          5.632467   0.000000
    110          5.918448   0.000000
    111          6.033686   0.000000
    112          6.198408   0.000000
    113          6.448132   0.000000
    114          6.582316   0.000000
    115          6.643341   0.000000
    116          6.766035   0.000000
    117          6.808641   0.000000
    118          6.811495   0.000000
    119          6.997572   0.000000
    120          7.022444   0.000000
    121          7.155931   0.000000
    122          7.476394   0.000000
    123          7.503349   0.000000
    124          7.553384   0.000000
    125          7.690059   0.000000
    126          7.830630   0.000000
    127          7.984750   0.000000
    128          8.007979   0.000000
 
  0.2500000E+00  0.3333333E+00  0.1276756E-14  0.3333333E+00
      1        -57.327163   1.000000
      2        -57.322262   1.000000
      3        -57.160169   1.000000
      4        -56.936838   1.000000
      5        -56.913461   1.000000
      6        -56.848861   1.000000
      7        -56.830917   1.000000
      8        -33.757571   1.000000
      9        -33.678388   1.000000
     10        -33.650834   1.000000
     11        -33.645569   1.000000
     12        -33.607919   1.000000
     13        -33.506741   1.000000
     14        -33.494964   1.000000
     15        -33.458353   1.000000
     16        -33.296576   1.000000
     17        -33.283580   1.000000
     18        -33.269777   1.000000
     19        -33.241297   1.000000
     20        -33.222572   1.000000
     21        -33.206411   1.000000
     22        -33.203166   1.000000
     23        -33.163490   1.000000
     24        -33.146968   1.000000
     25        -33.081297   1.000000
     26        -33.046228   1.000000
     27        -32.878300   1.000000
     28        -32.855361   1.000000
     29        -14.567317   1.000000
     30        -14.566092   1.000000
     31        -14.552142   1.000000
     32        -14.546871   1.000000
     33        -14.522065   1.000000
     34         -8.151161   1.000000
     35         -7.437885   1.000000
     36         -6.465998   1.000000
     37         -5.653944   1.000000
     38         -5.495165   1.000000
     39         -5.316960   1.000000
     40         -4.561651   1.000000
     41         -3.733405   1.000000
     42         -3.516385   1.000000
     43         -3.194357   1.000000
     44         -2.453153   1.000000
     45         -2.389204   1.000000
     46         -2.238055   1.000000
     47         -2.068166   1.000000
     48         -1.958399   1.000000
     49         -1.761518   1.000000
     50         -1.665576   1.000000
     51         -1.403552   1.000000
     52         -1.207031   1.000000
     53         -1.055088   1.000000
     54         -0.833119   1.000000
     55         -0.801458   1.000000
     56         -0.752559   1.000000
     57         -0.565060   1.000002
     58         -0.502238   1.000117
     59         -0.444789   1.001903
     60         -0.273684   0.950602
     61         -0.211569   0.544958
     62         -0.097080  -0.032212
     63         -0.009242  -0.008796
     64          0.042099  -0.001246
     65          0.103492  -0.000054
     66          0.296539  -0.000000
     67          0.331290  -0.000000
     68          0.469529  -0.000000
     69          0.706720  -0.000000
     70          0.776330  -0.000000
     71          0.966897  -0.000000
     72          1.182980  -0.000000
     73          1.242650  -0.000000
     74          1.273111  -0.000000
     75          1.384144  -0.000000
     76          1.439074  -0.000000
     77          1.513795  -0.000000
     78          1.582026  -0.000000
     79          1.661083  -0.000000
     80          1.796362   0.000000
     81          1.928020   0.000000
     82          1.970160   0.000000
     83          2.129136   0.000000
     84          2.146045   0.000000
     85          2.260836   0.000000
     86          2.367425   0.000000
     87          2.485048   0.000000
     88          2.806989   0.000000
     89          2.907190   0.000000
     90          3.024705   0.000000
     91          3.161220   0.000000
     92          3.419786   0.000000
     93          3.600537   0.000000
     94          3.703186   0.000000
     95          3.814046   0.000000
     96          3.883809   0.000000
     97          4.081979   0.000000
     98          4.194297   0.000000
     99          4.263583   0.000000
    100          4.452166   0.000000
    101          4.556115   0.000000
    102          4.894318   0.000000
    103          5.185940   0.000000
    104          5.232276   0.000000
    105          5.422110   0.000000
    106          5.446470   0.000000
    107          5.585951   0.000000
    108          5.711515   0.000000
    109          6.094054   0.000000
    110          6.185157   0.000000
    111          6.242572   0.000000
    112          6.329211   0.000000
    113          6.522922   0.000000
    114          6.585374   0.000000
    115          6.659611   0.000000
    116          6.723239   0.000000
    117          6.752977   0.000000
    118          6.881489   0.000000
    119          6.970452   0.000000
    120          7.080730   0.000000
    121          7.132710   0.000000
    122          7.243352   0.000000
    123          7.287403   0.000000
    124          7.392879   0.000000
    125          7.470429   0.000000
    126          7.533204   0.000000
    127          7.651418   0.000000
    128          7.778507   0.000000
 
  0.5000000E+00  0.3333333E+00  0.1276756E-14  0.1666667E+00
      1        -57.327159   1.000000
      2        -57.319486   1.000000
      3        -57.163059   1.000000
      4        -56.931340   1.000000
      5        -56.907504   1.000000
      6        -56.854479   1.000000
      7        -56.836992   1.000000
      8        -33.754808   1.000000
      9        -33.678383   1.000000
     10        -33.648822   1.000000
     11        -33.645478   1.000000
     12        -33.610767   1.000000
     13        -33.495262   1.000000
     14        -33.460447   1.000000
     15        -33.385807   1.000000
     16        -33.290932   1.000000
     17        -33.271792   1.000000
     18        -33.268242   1.000000
     19        -33.266433   1.000000
     20        -33.258828   1.000000
     21        -33.211877   1.000000
     22        -33.158368   1.000000
     23        -33.086072   1.000000
     24        -33.073782   1.000000
     25        -33.060137   1.000000
     26        -33.047903   1.000000
     27        -33.030633   1.000000
     28        -33.001713   1.000000
     29        -14.566182   1.000000
     30        -14.566035   1.000000
     31        -14.551534   1.000000
     32        -14.542061   1.000000
     33        -14.521483   1.000000
     34         -7.587444   1.000000
     35         -7.012471   1.000000
     36         -6.687749   1.000000
     37         -6.524086   1.000000
     38         -5.721037   1.000000
     39         -4.935680   1.000000
     40         -4.746076   1.000000
     41         -4.586914   1.000000
     42         -3.794112   1.000000
     43         -3.050726   1.000000
     44         -2.570422   1.000000
     45         -2.214507   1.000000
     46         -1.987838   1.000000
     47         -1.704145   1.000000
     48         -1.700423   1.000000
     49         -1.492655   1.000000
     50         -1.417007   1.000000
     51         -1.413555   1.000000
     52         -0.945370   1.000000
     53         -0.911495   1.000000
     54         -0.694068   1.000000
     55         -0.663462   1.000000
     56         -0.533688   1.000019
     57         -0.407654   1.007637
     58         -0.383487   1.015515
     59         -0.368300   1.022119
     60         -0.308981   1.027736
     61         -0.174727   0.247368
     62         -0.129964   0.020079
     63         -0.129282   0.018127
     64          0.061106  -0.000515
     65          0.146526  -0.000004
     66          0.227158  -0.000000
     67          0.370095  -0.000000
     68          0.457231  -0.000000
     69          0.485001  -0.000000
     70          0.553550  -0.000000
     71          0.609681  -0.000000
     72          0.990411  -0.000000
     73          1.085656  -0.000000
     74          1.144178  -0.000000
     75          1.158882  -0.000000
     76          1.286455  -0.000000
     77          1.435875  -0.000000
     78          1.477224  -0.000000
     79          1.523242  -0.000000
     80          1.721688  -0.000000
     81          1.929978   0.000000
     82          2.009801   0.000000
     83          2.067090   0.000000
     84          2.279932   0.000000
     85          2.306444   0.000000
     86          2.408494   0.000000
     87          2.548512   0.000000
     88          2.744987   0.000000
     89          2.764331   0.000000
     90          2.927185   0.000000
     91          3.425615   0.000000
     92          3.831150   0.000000
     93          3.844665   0.000000
     94          4.004242   0.000000
     95          4.153477   0.000000
     96          4.270144   0.000000
     97          4.308471   0.000000
     98          4.522256   0.000000
     99          4.609454   0.000000
    100          4.728296   0.000000
    101          4.923447   0.000000
    102          4.993594   0.000000
    103          5.017043   0.000000
    104          5.130649   0.000000
    105          5.136742   0.000000
    106          5.163398   0.000000
    107          5.457579   0.000000
    108          5.532027   0.000000
    109          5.541583   0.000000
    110          5.747846   0.000000
    111          5.839315   0.000000
    112          5.961935   0.000000
    113          6.121296   0.000000
    114          6.181186   0.000000
    115          6.321775   0.000000
    116          6.322979   0.000000
    117          6.434364   0.000000
    118          6.650642   0.000000
    119          6.776312   0.000000
    120          7.061088   0.000000
    121          7.070230   0.000000
    122          7.186822   0.000000
    123          7.320118   0.000000
    124          7.606722   0.000000
    125          7.677197   0.000000
    126          7.725062   0.000000
    127          7.752259   0.000000
    128          8.044070   0.000000
