       N       E                     dE             d eps       ncg     rms          rms(c)
DAV:   1     0.829955982647E+03    0.82996E+03   -0.57874E+04  1536   0.819E+02
DAV:   2    -0.556299038873E+01   -0.83552E+03   -0.79331E+03  1856   0.242E+02
DAV:   3    -0.969067236282E+02   -0.91344E+02   -0.89607E+02  3072   0.638E+01
DAV:   4    -0.101132088385E+03   -0.42254E+01   -0.42245E+01  1856   0.141E+01
DAV:   5    -0.101351001986E+03   -0.21891E+00   -0.21891E+00  2688   0.263E+00    0.250E+01
DAV:   6    -0.121834160671E+03   -0.20483E+02   -0.96917E+01  2304   0.295E+01    0.621E+01
DAV:   7    -0.954901867701E+02    0.26344E+02   -0.28599E+02  2304   0.310E+01    0.263E+01
DAV:   8    -0.878372777445E+02    0.76529E+01   -0.52600E+01  2176   0.148E+01    0.154E+01
DAV:   9    -0.859841451609E+02    0.18531E+01   -0.26733E+01  2240   0.874E+00    0.110E+01
DAV:  10    -0.839501079441E+02    0.20340E+01   -0.50972E+00  2176   0.542E+00    0.682E+00
DAV:  11    -0.835079627224E+02    0.44215E+00   -0.19614E+00  2240   0.333E+00    0.442E+00
DAV:  12    -0.833723295957E+02    0.13563E+00   -0.15267E+00  2304   0.359E+00    0.545E+00
DAV:  13    -0.831751446661E+02    0.19718E+00   -0.14743E+00  1984   0.312E+00    0.274E+00
DAV:  14    -0.831924025008E+02   -0.17258E-01   -0.40475E-01  2304   0.231E+00    0.285E+00
DAV:  15    -0.831277455844E+02    0.64657E-01   -0.25165E-01  2048   0.188E+00    0.139E+00
DAV:  16    -0.831461107551E+02   -0.18365E-01   -0.24820E-01  2368   0.124E+00    0.187E+00
DAV:  17    -0.831133957098E+02    0.32715E-01   -0.12457E-01  2368   0.892E-01    0.533E-01
DAV:  18    -0.831141433802E+02   -0.74767E-03   -0.15412E-02  2304   0.313E-01    0.186E-01
DAV:  19    -0.831155663538E+02   -0.14230E-02   -0.24607E-03  2240   0.118E-01    0.103E-01
DAV:  20    -0.831169380721E+02   -0.13717E-02   -0.12031E-03  2240   0.732E-02    0.781E-02
DAV:  21    -0.831172230298E+02   -0.28496E-03   -0.46992E-04  2240   0.520E-02    0.399E-02
DAV:  22    -0.831176346884E+02   -0.41166E-03   -0.11015E-04  1856   0.307E-02    0.208E-02
DAV:  23    -0.831181025502E+02   -0.46786E-03   -0.91264E-05  2176   0.173E-02    0.163E-02
DAV:  24    -0.831183580741E+02   -0.25552E-03   -0.34772E-05  2240   0.112E-02    0.113E-02
DAV:  25    -0.831186406801E+02   -0.28261E-03   -0.16726E-05  2240   0.688E-03    0.547E-03
DAV:  26    -0.831189016050E+02   -0.26092E-03   -0.89135E-06  2176   0.480E-03    0.433E-03
DAV:  27    -0.831190164387E+02   -0.11483E-03   -0.39045E-06  2048   0.340E-03    0.236E-03
DAV:  28    -0.831190746311E+02   -0.58192E-04   -0.24453E-06  1984   0.200E-03    0.975E-04
DAV:  29    -0.831190843919E+02   -0.97608E-05   -0.27077E-07  1728   0.776E-04
   1 F= -.83119084E+02 E0= -.83119386E+02  d E =0.905179E-03
