 vasp.6.5.0 16Dec24 (build Apr 17 2025 17:55:45) complex                        
  
 executed on             LinuxIFC date 2025.06.10  15:01:50
 running   64 mpi-ranks, on    1 nodes
 distrk:  each k-point on   64 cores,    1 groups
 distr:  one band on NCORE=   1 cores,   64 groups


--------------------------------------------------------------------------------------------------------


 INCAR:
   ISTART = 0
   ICHARG = 2
   PREC = N
   LREAL = .FALSE.
   ENCUT = 520
   ALGO = N
   NELM = 500
   EDIFF = 1E-05
   IBRION = -1
   ISIF = 3
   NSW = 0
   EDIFFG = -0.01
   ISMEAR = 1
   SIGMA = 0.1
   LVHAR = .TRUE.
   LVTOT = .TRUE.

 POTCAR:    PAW_PBE Ga_d 06Jul2010                
 POTCAR:    PAW_PBE Ti_sv 26Sep2005               
 POTCAR:    PAW_PBE Al 04Jan2001                  
 -----------------------------------------------------------------------------
|                                                                             |
|           W    W    AA    RRRRR   N    N  II  N    N   GGGG   !!!           |
|           W    W   A  A   R    R  NN   N  II  NN   N  G    G  !!!           |
|           W    W  A    A  R    R  N N  N  II  N N  N  G       !!!           |
|           W WW W  AAAAAA  RRRRR   N  N N  II  N  N N  G  GGG   !            |
|           WW  WW  A    A  R   R   N   NN  II  N   NN  G    G                |
|           W    W  A    A  R    R  N    N  II  N    N   GGGG   !!!           |
|                                                                             |
|     For optimal performance we recommend to set                             |
|       NCORE = 2 up to number-of-cores-per-socket                            |
|     NCORE specifies how many cores store one orbital (NPAR=cpu/NCORE).      |
|     This setting can greatly improve the performance of VASP for DFT.       |
|     The default, NCORE=1 might be grossly inefficient on modern             |
|     multi-core architectures or massively parallel machines. Do your        |
|     own testing! More info at https://www.vasp.at/wiki/index.php/NCORE      |
|     Unfortunately you need to use the default for GW and RPA                |
|     calculations (for HF NCORE is supported but not extensively tested      |
|     yet).                                                                   |
|                                                                             |
 -----------------------------------------------------------------------------

 POTCAR:    PAW_PBE Ga_d 06Jul2010                
   SHA256 =  a60ddf36e14f00ea098d9e3914b3745f1b7105e68786148f49ae384e44b4226c Ga_d/POTCAR           
   COPYR  = (c) Copyright 06Jul2010 Georg Kresse                                                    
   COPYR  = This file is part of the software VASP. Any use, copying, and all other rights are regul
   COPYR  = If you do not have a valid VASP license, you may not use, copy or distribute this file. 
   VRHFIN =Ga: s2p1                                                                                 
   LEXCH  = PE                                                                                      
   EATOM  =  2148.8298 eV,  157.9345 Ry                                                             
                                                                                                    
   TITEL  = PAW_PBE Ga_d 06Jul2010                                                                  
   LULTRA =        F    use ultrasoft PP ?                                                          
   IUNSCR =        1    unscreen: 0-lin 1-nonlin 2-no                                               
   RPACOR =    1.700    partial core radius                                                         
   POMASS =   69.723; ZVAL   =   13.000    mass and valenz                                          
   RCORE  =    2.300    outmost cutoff radius                                                       
   RWIGS  =    2.300; RWIGS  =    1.217    wigner-seitz radius (au A)                               
   ENMAX  =  282.691; ENMIN  =  212.018 eV                                                          
   ICORE  =        3    local potential                                                             
   LCOR   =        T    correct aug charges                                                         
   LPAW   =        T    paw PP                                                                      
   EAUG   =  490.690                                                                                
   DEXC   =    0.000                                                                                
   RMAX   =    2.341    core radius for proj-oper                                                   
   RAUG   =    1.300    factor for augmentation sphere                                              
   RDEP   =    2.413    radius for radial grids                                                     
   RDEPT  =    1.856    core radius for aug-charge                                                  
                                                                                                    
   Atomic configuration                                                                             
    9 entries                                                                                       
     n  l   j            E        occ.                                                              
     1  0  0.50    -10228.7831   2.0000                                                             
     2  0  0.50     -1262.1604   2.0000                                                             
     2  1  1.50     -1098.6333   6.0000                                                             
     3  0  0.50      -148.1110   2.0000                                                             
     3  1  1.50       -98.8436   6.0000                                                             
     3  2  2.50       -19.1549  10.0000                                                             
     4  0  0.50        -8.9483   2.0000                                                             
     4  1  0.50        -2.5791   1.0000                                                             
     4  3  2.50        -2.7416   0.0000                                                             
   Description                                                                                      
     l       E           TYP  RCUT    TYP  RCUT                                                     
     2    -19.1549037     23  2.300                                                                 
     2     -5.4423304     23  2.300                                                                 
     0     -8.9483111     23  2.300                                                                 
     0     68.0291300     23  2.300                                                                 
     1     -2.5790802     23  2.100                                                                 
     1     81.6349560     23  2.300                                                                 
     3      6.8029130     23  2.300                                                                 
  local pseudopotential read in
  partial core-charges read in
  partial kinetic energy density read in
  atomic valenz-charges read in
  non local Contribution for L=           2  read in
    real space projection operators read in
  non local Contribution for L=           2  read in
    real space projection operators read in
  non local Contribution for L=           0  read in
    real space projection operators read in
  non local Contribution for L=           0  read in
    real space projection operators read in
  non local Contribution for L=           1  read in
    real space projection operators read in
  non local Contribution for L=           1  read in
    real space projection operators read in
    PAW grid and wavefunctions read in
 
   number of l-projection  operators is LMAX  =           6
   number of lm-projection operators is LMMAX =          18
 
 POTCAR:    PAW_PBE Ti_sv 26Sep2005               
   SHA256 =  4d747badb5a5ea28d858fbac70885b3f8929d6fd9e5b0dbe1ecb9878dc164da1 Ti_sv/POTCAR          
   COPYR  = (c) Copyright 26Sep2005 Georg Kresse                                                    
   COPYR  = This file is part of the software VASP. Any use, copying, and all other rights are regul
   COPYR  = If you do not have a valid VASP license, you may not use, copy or distribute this file. 
   VRHFIN =Ti: 3p4s3d                                                                               
   LEXCH  = PE                                                                                      
   EATOM  =  1588.0892 eV,  116.7213 Ry                                                             
                                                                                                    
   TITEL  = PAW_PBE Ti_sv 26Sep2005                                                                 
   LULTRA =        F    use ultrasoft PP ?                                                          
   IUNSCR =        1    unscreen: 0-lin 1-nonlin 2-no                                               
   RPACOR =    2.000    partial core radius                                                         
   POMASS =   47.880; ZVAL   =   12.000    mass and valenz                                          
   RCORE  =    2.300    outmost cutoff radius                                                       
   RWIGS  =    2.300; RWIGS  =    1.217    wigner-seitz radius (au A)                               
   ENMAX  =  274.610; ENMIN  =  205.957 eV                                                          
   ICORE  =        3    local potential                                                             
   LCOR   =        T    correct aug charges                                                         
   LPAW   =        T    paw PP                                                                      
   EAUG   =  482.848                                                                                
   RMAX   =    2.348    core radius for proj-oper                                                   
   RAUG   =    1.300    factor for augmentation sphere                                              
   RDEP   =    2.381    radius for radial grids                                                     
   RDEPT  =    1.930    core radius for aug-charge                                                  
                                                                                                    
   Atomic configuration                                                                             
    8 entries                                                                                       
     n  l   j            E        occ.                                                              
     1  0  0.50     -4865.3608   2.0000                                                             
     2  0  0.50      -533.1368   2.0000                                                             
     2  1  1.50      -440.5031   6.0000                                                             
     3  0  0.50       -59.3186   2.0000                                                             
     4  0  0.50        -3.7291   1.0000                                                             
     3  1  1.50       -35.7012   6.0000                                                             
     3  2  2.50        -1.9157   3.0000                                                             
     4  3  2.50        -1.3606   0.0000                                                             
   Description                                                                                      
     l       E           TYP  RCUT    TYP  RCUT                                                     
     0    -59.3185931     23  1.800                                                                 
     0     -3.7290822     23  2.300                                                                 
     1    -35.7012045     23  2.300                                                                 
     1     -1.3605826     23  2.300                                                                 
     2     -1.9156920     23  2.300                                                                 
     2     -0.0236318     23  2.300                                                                 
     3     -1.3605826     23  2.300                                                                 
  local pseudopotential read in
  partial core-charges read in
  partial kinetic energy density read in
  atomic valenz-charges read in
  non local Contribution for L=           0  read in
    real space projection operators read in
  non local Contribution for L=           0  read in
    real space projection operators read in
  non local Contribution for L=           1  read in
    real space projection operators read in
  non local Contribution for L=           1  read in
    real space projection operators read in
  non local Contribution for L=           2  read in
    real space projection operators read in
  non local Contribution for L=           2  read in
    real space projection operators read in
    PAW grid and wavefunctions read in
 
   number of l-projection  operators is LMAX  =           6
   number of lm-projection operators is LMMAX =          18
 
 POTCAR:    PAW_PBE Al 04Jan2001                  
   SHA256 =  17880443556af62b473fe41b62a467bd001ad55d2cabe504a3f22e34d4e9db96 Al/POTCAR             
   COPYR  = (c) Copyright 04Jan2001 Georg Kresse                                                    
   COPYR  = This file is part of the software VASP. Any use, copying, and all other rights are regul
   COPYR  = If you do not have a valid VASP license, you may not use, copy or distribute this file. 
   VRHFIN =Al: s2p1                                                                                 
   LEXCH  = PE                                                                                      
   EATOM  =    53.5387 eV,    3.9350 Ry                                                             
                                                                                                    
   TITEL  = PAW_PBE Al 04Jan2001                                                                    
   LULTRA =        F    use ultrasoft PP ?                                                          
   IUNSCR =        1    unscreen: 0-lin 1-nonlin 2-no                                               
   RPACOR =    1.500    partial core radius                                                         
   POMASS =   26.981; ZVAL   =    3.000    mass and valenz                                          
   RCORE  =    1.900    outmost cutoff radius                                                       
   RWIGS  =    2.650; RWIGS  =    1.402    wigner-seitz radius (au A)                               
   ENMAX  =  240.300; ENMIN  =  180.225 eV                                                          
   ICORE  =        2    local potential                                                             
   LCOR   =        T    correct aug charges                                                         
   LPAW   =        T    paw PP                                                                      
   EAUG   =  291.052                                                                                
   DEXC   =    0.000                                                                                
   RMAX   =    1.939    core radius for proj-oper                                                   
   RAUG   =    1.300    factor for augmentation sphere                                              
   RDEP   =    1.966    radius for radial grids                                                     
   RDEPT  =    1.856    core radius for aug-charge                                                  
                                                                                                    
   Atomic configuration                                                                             
    6 entries                                                                                       
     n  l   j            E        occ.                                                              
     1  0  0.50     -1511.1048   2.0000                                                             
     2  0  0.50      -108.1629   2.0000                                                             
     2  1  1.50       -69.6402   6.0000                                                             
     3  0  0.50        -7.7528   2.0000                                                             
     3  1  1.50        -2.7121   1.0000                                                             
     3  2  2.50        -2.7212   0.0000                                                             
   Description                                                                                      
     l       E           TYP  RCUT    TYP  RCUT                                                     
     0     -7.7528455     23  1.900                                                                 
     0     -3.3096929     23  1.900                                                                 
     1     -2.7120682     23  1.900                                                                 
     1     13.6058260     23  1.900                                                                 
     2     -2.7211652      7  1.900                                                                 
  local pseudopotential read in
  partial core-charges read in
  partial kinetic energy density read in
  atomic valenz-charges read in
  non local Contribution for L=           0  read in
    real space projection operators read in
  non local Contribution for L=           0  read in
    real space projection operators read in
  non local Contribution for L=           1  read in
    real space projection operators read in
  non local Contribution for L=           1  read in
    real space projection operators read in
    PAW grid and wavefunctions read in
 
   number of l-projection  operators is LMAX  =           4
   number of lm-projection operators is LMMAX =           8
 
  PAW_PBE Ga_d 06Jul2010                :
 energy of atom  1       EATOM=-2148.8298
 kinetic energy error for atom=    0.0026 (will be added to EATOM!!)
  PAW_PBE Ti_sv 26Sep2005               :
 energy of atom  2       EATOM=-1588.0892
 kinetic energy error for atom=    0.0042 (will be added to EATOM!!)
  PAW_PBE Al 04Jan2001                  :
 energy of atom  3       EATOM=  -53.5387
 kinetic energy error for atom=    0.0002 (will be added to EATOM!!)
 
 
 POSCAR: Generated by VASPKIT code
  positions in direct lattice
  No initial velocities read in


 exchange-correlation table for PE
   RHO(1)=    0.500       N(1)  =     2000
   RHO(2)=  100.500       N(2)  =     4000
 


--------------------------------------------------------------------------------------------------------


 ion  position               nearest neighbor table
   1  0.000  0.000  0.391-   3 2.80   3 2.80   5 2.80  10 2.88  11 2.88  12 2.88   9 2.88
   2  0.000  0.500  0.391-   4 2.80   4 2.80   6 2.80  12 2.85   9 2.85  10 2.85  11 2.85
   3  0.500  0.000  0.391-   1 2.80   1 2.80   7 2.80  12 2.87   9 2.87  10 2.87  11 2.87
   4  0.500  0.500  0.391-   2 2.80   2 2.80   8 2.80  11 2.85  10 2.85  12 2.85   9 2.85
   5  0.000  0.000  0.537-   7 2.80   7 2.80   1 2.80  11 2.87  10 2.87  12 2.87   9 2.87  14 2.87
                            15 2.87  16 2.87  13 2.87
   6  0.000  0.500  0.537-   8 2.80   8 2.80   2 2.80  12 2.85   9 2.85  10 2.85  11 2.85  16 2.85
                            13 2.85  14 2.85  15 2.85
   7  0.500  0.000  0.537-   5 2.80   5 2.80   3 2.80  10 2.87  11 2.87  12 2.87   9 2.87  16 2.87
                            13 2.87  14 2.87  15 2.87
   8  0.500  0.500  0.537-   6 2.80   6 2.80   4 2.80  11 2.84  10 2.84  12 2.84   9 2.84  15 2.84
                            14 2.84  16 2.84  13 2.84
   9  0.251  0.252  0.464-  13 2.79  11 2.79  11 2.81   8 2.84   6 2.85   4 2.85   2 2.85   7 2.87
                             5 2.87   3 2.87   1 2.88
  10  0.251  0.748  0.464-  14 2.79  12 2.79  12 2.81   8 2.84   6 2.85   4 2.85   2 2.85   7 2.87
                             5 2.87   3 2.87   1 2.88
  11  0.749  0.252  0.464-  15 2.79   9 2.79   9 2.81   8 2.84   6 2.85   4 2.85   2 2.85   7 2.87
                             5 2.87   3 2.87   1 2.88
  12  0.749  0.748  0.464-  16 2.79  10 2.79  10 2.81   8 2.84   6 2.85   4 2.85   2 2.85   7 2.87
                             5 2.87   3 2.87   1 2.88
  13  0.251  0.252  0.609-   9 2.79  15 2.79  15 2.81   8 2.84   6 2.85   7 2.87   5 2.87
  14  0.251  0.748  0.609-  10 2.79  16 2.79  16 2.81   8 2.84   6 2.85   7 2.87   5 2.87
  15  0.749  0.252  0.609-  11 2.79  13 2.79  13 2.81   8 2.84   6 2.85   7 2.87   5 2.87
  16  0.749  0.748  0.609-  12 2.79  14 2.79  14 2.81   8 2.84   6 2.85   7 2.87   5 2.87
 
  LATTYP: Found a simple orthorhombic cell.
 ALAT       =     5.6069519684
 B/A-ratio  =     1.4699085315
 C/A-ratio  =     3.4243034296
  
  Lattice vectors:
  
 A1 = (   5.6069519684,   0.0000000000,   0.0000000000)
 A2 = (   0.0000000000,   8.2417065342,   0.0000000000)
 A3 = (   0.0000000000,   0.0000000000,  19.1999048548)


Analysis of symmetry for initial positions (statically):
=====================================================================
 Subroutine PRICEL returns:
 Original cell was already a primitive cell.
 

 Routine SETGRP: Setting up the symmetry group for a 
 simple orthorhombic supercell.


 Subroutine GETGRP returns: Found  4 space group operations
 (whereof  4 operations were pure point group operations)
 out of a pool of  8 trial point group operations.


The static configuration has the point symmetry C_2v.


Analysis of symmetry for dynamics (positions and initial velocities):
=====================================================================
 Subroutine PRICEL returns:
 Original cell was already a primitive cell.
 

 Routine SETGRP: Setting up the symmetry group for a 
 simple orthorhombic supercell.


 Subroutine GETGRP returns: Found  4 space group operations
 (whereof  4 operations were pure point group operations)
 out of a pool of  8 trial point group operations.


The dynamic configuration has the point symmetry C_2v.


 Subroutine INISYM returns: Found  4 space group operations
 (whereof  4 operations are pure point group operations),
 and found     1 'primitive' translations


----------------------------------------------------------------------------------------

                                     Primitive cell                                     

  volume of cell :     887.2440

  direct lattice vectors                    reciprocal lattice vectors
     5.606951968  0.000000000  0.000000000     0.178350021 -0.000000000 -0.000000000
     0.000000000  8.241706534  0.000000000     0.000000000  0.121334095 -0.000000000
     0.000000000  0.000000000 19.199904855     0.000000000  0.000000000  0.052083591

  length of vectors
     5.606951968  8.241706534 19.199904855     0.178350021  0.121334095  0.052083591

  position of ions in fractional coordinates (direct lattice)
     0.000000000  1.000000000  0.390626936
     0.000000000  0.500000000  0.390626936
     0.500000000  1.000000000  0.390626936
     0.500000000  0.500000000  0.390626936
     0.000000000  1.000000000  0.536642033
     0.000000000  0.500000000  0.536642033
     0.500000000  1.000000000  0.536642033
     0.500000000  0.500000000  0.536642033
     0.250946882  0.252071225  0.463911003
     0.250946882  0.747928775  0.463911003
     0.749053118  0.252071225  0.463911003
     0.749053118  0.747928775  0.463911003
     0.250946882  0.252071225  0.609373064
     0.250946882  0.747928775  0.609373064
     0.749053118  0.252071225  0.609373064
     0.749053118  0.747928775  0.609373064

  ion indices of the primitive-cell ions
   primitive index   ion index
                 1           1
                 2           2
                 3           3
                 4           4
                 5           5
                 6           6
                 7           7
                 8           8
                 9           9
                10          10
                11          11
                12          12
                13          13
                14          14
                15          15
                16          16

----------------------------------------------------------------------------------------

 
 
 KPOINTS: K-Spacing Value to Generate K-Mesh: 0.04

Automatic generation of k-mesh.
 Grid dimensions read from file:
 generate k-points for:    4    3    1

 Generating k-lattice:

  Cartesian coordinates                     Fractional coordinates (reciprocal lattice)
     0.044587505 -0.000000000 -0.000000000     0.250000000  0.000000000  0.000000000
     0.000000000  0.040444698 -0.000000000     0.000000000  0.333333333 -0.000000000
     0.000000000  0.000000000  0.052083591     0.000000000  0.000000000  1.000000000

  Length of vectors
     0.044587505  0.040444698  0.052083591

  Shift w.r.t. Gamma in fractional coordinates (k-lattice)
     0.000000000  0.000000000  0.000000000

 
 Subroutine IBZKPT returns following result:
 ===========================================
 
 Found      6 irreducible k-points:
 
 Following reciprocal coordinates:
            Coordinates               Weight
  0.000000  0.000000  0.000000      1.000000
  0.250000  0.000000  0.000000      2.000000
  0.500000  0.000000  0.000000      1.000000
  0.000000  0.333333  0.000000      2.000000
  0.250000  0.333333  0.000000      4.000000
  0.500000  0.333333  0.000000      2.000000
 
 Following cartesian coordinates:
            Coordinates               Weight
  0.000000  0.000000  0.000000      1.000000
  0.044588  0.000000  0.000000      2.000000
  0.089175  0.000000  0.000000      1.000000
  0.000000  0.040445  0.000000      2.000000
  0.044588  0.040445  0.000000      4.000000
  0.089175  0.040445  0.000000      2.000000
 


--------------------------------------------------------------------------------------------------------




 Dimension of arrays:
   k-points           NKPTS =      6   k-points in BZ     NKDIM =      6   number of bands    NBANDS=    128
   number of dos      NEDOS =    301   number of ions     NIONS =     16
   non local maximal  LDIM  =      6   non local SUM 2l+1 LMDIM =     18
   total plane-waves  NPLWV = 165888
   max r-space proj   IRMAX =      1   max aug-charges    IRDMAX=   7475
   dimension x,y,z NGX =    32 NGY =   48 NGZ =  108
   dimension x,y,z NGXF=    64 NGYF=   96 NGZF=  216
   support grid    NGXF=    64 NGYF=   96 NGZF=  216
   ions per type =               1   7   8
   NGX,Y,Z   is equivalent  to a cutoff of   9.49,  9.68,  9.35 a.u.
   NGXF,Y,Z  is equivalent  to a cutoff of  18.98, 19.36, 18.70 a.u.

 SYSTEM =  unknown system                          
 POSCAR =  Generated by VASPKIT code               

 Startparameter for this run:
   NWRITE =      2    write-flag & timer
   PREC   = n         normal or accurate (medium, high low for compatibility)
   ISTART =      0    job   : 0-new  1-cont  2-samecut
   ICHARG =      2    charge: 1-file 2-atom 10-const
   ISPIN  =      1    spin polarized calculation?
   LNONCOLLINEAR =      F non collinear calculations
   LSORBIT =      F    spin-orbit coupling
   INIWAV =      1    electr: 0-lowe 1-rand  2-diag
   LASPH  =      F    aspherical Exc in radial PAW
 Electronic Relaxation 1
   ENCUT  =  520.0 eV  38.22 Ry    6.18 a.u.  10.43 15.32 35.70*2*pi/ulx,y,z
   ENINI  =  520.0     initial cutoff
   ENAUG  =  490.7 eV  augmentation charge cutoff
   NELM   =    500;   NELMIN=  2; NELMDL= -5     # of ELM steps 
   EDIFF  = 0.1E-04   stopping-criterion for ELM
   LREAL  =      F    real-space projection
   NLSPLINE    = F    spline interpolate recip. space projectors
   LCOMPAT=      F    compatible to vasp.4.4
   GGA_COMPAT  = T    GGA compatible to vasp.4.4-vasp.4.6
   LMAXPAW     = -100 max onsite density
   LMAXMIX     =    2 max onsite mixed and CHGCAR
   VOSKOWN=      0    Vosko Wilk Nusair interpolation
   ROPT   =    0.00000   0.00000   0.00000
 Ionic relaxation
   EDIFFG = -.1E-01   stopping-criterion for IOM
   NSW    =      0    number of steps for IOM
   NBLOCK =      1;   KBLOCK =      1    inner block; outer block 
   IBRION =     -1    ionic relax: 0-MD 1-quasi-New 2-CG
   NFREE  =      0    steps in history (QN), initial steepest desc. (CG)
   ISIF   =      3    stress and relaxation
   IWAVPR =     10    prediction:  0-non 1-charg 2-wave 3-comb
   ISYM   =      2    0-nonsym 1-usesym 2-fastsym
   LCORR  =      T    Harris-Foulkes like correction to forces

   POTIM  = 0.5000    time-step for ionic-motion
   TEIN   =    0.0    initial temperature
   TEBEG  =    0.0;   TEEND  =   0.0 temperature during run
   SMASS  =  -3.00    Nose mass-parameter (am)
   estimated Nose-frequenzy (Omega)   =  0.10E-29 period in steps = 0.13E+47 mass=  -0.718E-27a.u.
   SCALEE = 1.0000    scale energy and forces
   NPACO  =    256;   APACO  = 10.0  distance and # of slots for P.C.
   PSTRESS=    0.0 pullay stress

  Mass of Ions in am
   POMASS =  69.72 47.88 26.98
  Ionic Valenz
   ZVAL   =  13.00 12.00  3.00
  Atomic Wigner-Seitz radii
   RWIGS  =  -1.00 -1.00 -1.00
  virtual crystal weights 
   VCA    =   1.00  1.00  1.00
   NELECT =     121.0000    total number of electrons
   NUPDOWN=      -1.0000    fix difference up-down

 DOS related values:
   EMIN   =  10.00;   EMAX   =-10.00  energy-range for DOS
   EFERMI =   0.00;   METHOD = LEGACY      
   ISMEAR =     1;   SIGMA  =   0.10  broadening in eV -4-tet -1-fermi 0-gaus
   EFERMI_NEDOS =   21; number of points for ismear=-14 and -15

 Electronic relaxation 2 (details)
   IALGO  =     38    algorithm
   LDIAG  =      T    sub-space diagonalisation (order eigenvalues)
   LSUBROT=      F    optimize rotation matrix (better conditioning)
   TURBO    =      0    0=normal 1=particle mesh
   IRESTART =      0    0=no restart 2=restart with 2 vectors
   NREBOOT  =      0    no. of reboots
   NMIN     =      0    reboot dimension
   EREF     =   0.00    reference energy to select bands
   IMIX   =      4    mixing-type and parameters
     AMIX     =   0.40;   BMIX     =  1.00
     AMIX_MAG =   1.60;   BMIX_MAG =  1.00
     AMIN     =   0.10
     WC   =   100.;   INIMIX=   1;  MIXPRE=   1;  MAXMIX= -45

 Intra band minimization:
   WEIMIN = 0.0000     energy-eigenvalue tresh-hold
   EBREAK =  0.20E-07  absolut break condition
   DEPER  =   0.30     relativ break condition  

   TIME   =   0.40     timestep for ELM

  volume/ion in A,a.u.               =      55.45       374.21
  Fermi-wavevector in a.u.,A,eV,Ry     =   0.842666  1.592408  9.661312  0.710086
  Thomas-Fermi vector in A             =   1.957410
 
 Write flags
   LWAVE        =      T    write WAVECAR
   LDOWNSAMPLE  =      F    k-point downsampling of WAVECAR
   LCHARG       =      T    write CHGCAR
   LVTOT        =      F    write LOCPOT, total local potential
   LVHAR        =      T    write LOCPOT, Hartree potential only
   WRT_POTENTIAL=  hartree ionic  ! write potential to hdf5 file
   LELF         =      F    write electronic localiz. function (ELF)
   LORBIT       =      0    0 simple, 1 ext, 2 COOP (PROOUT), +10 PAW based schemes


 Python interface
   PLUGINS active      =      F    recompile with -DPLUGINS to activate
 
 Dipole corrections
   LMONO      =      F    monopole corrections only (constant potential shift)
   LDIPOL     =      F    correct potential (dipole corrections)
   IDIPOL     =      0    1-x, 2-y, 3-z, 4-all directions 
   EPSILON    =  1.0000000 bulk dielectric constant
   LVACPOTAV  =      F  vacuum potentials using an averaging scheme for the charge density
   VACPOTFLAT =  0.1000000 required flatness to determine vacuum potential
 
Coulomb truncation method
  LTRUNCATE          =      F  Coulomb kernel truncation to be used
  IDIMENSIONALITY    =      3  Dimensionality of cutoff (0 molecules / 2 surfaces)
  ISURFACE           =     -1  Direction of surface normal
  LCOARSEN           =      F  Coarsen the charge grid before padding, preferred

 
 Exchange correlation treatment:
   GGA     = PE    functional components
   XC_C    = 1    coefficients multiplying the functional components
   LIBXC   =     F    Libxc                    
   VOSKOWN =     0    Vosko Wilk Nusair interpolation
   LHFCALC =     F    Hartree Fock is set to
   LHFONE  =     F    Hartree Fock one center treatment
   AEXX    =    0.0000 exact exchange contribution

 Parameters of functionals:
   PE:
     No parameter
 
 Van der Waals corrections
   IVDW    =     0    specifies the selected vdW correction

 Linear response parameters
   LEPSILON=     F    determine dielectric tensor
   LRPA    =     F    only Hartree local field effects (RPA)
   LNABLA  =     F    use nabla operator in PAW spheres
   LVEL    =     F    velocity operator in full k-point grid
   CSHIFT  =0.1000    complex shift for real part using Kramers Kronig
   OMEGAMAX=  -1.0    maximum frequency
   DEG_THRESHOLD= 0.2000000E-02 threshold for treating states as degnerate
   RTIME   =   -0.100 relaxation time in fs
  (WPLASMAI=    0.000 imaginary part of plasma frequency in eV, 0.658/RTIME)
   DFIELD  = 0.0000000 0.0000000 0.0000000 field for delta impulse in time
 
  Optional k-point grid parameters
   LKPOINTS_OPT  =     F    use optional k-point grid
   KPOINTS_OPT_MODE=     1    mode for optional k-point grid
 
 Orbital magnetization related:
   ORBITALMAG=     F  switch on orbital magnetization
   LCHIMAG   =     F  perturbation theory with respect to B field
   DQ        =  0.001000  dq finite difference perturbation B field
   LLRAUG    =     F  two centre corrections for induced B field
   LBONE     =     F  B-component reconstruction in AE one-centre
   LVGVCALC  =     T  calculate vGv susceptibility
   LVGVAPPL  =     F  apply vGv susceptibility instead of pGv for G=0

 Random number generation:
   RANDOM_GENERATOR = DEFAULT
   PCG_SEED         = not used


--------------------------------------------------------------------------------------------------------


 Static calculation
 charge density and potential will be updated during run
 non-spin polarized calculation
 Variant of blocked Davidson
 Davidson routine will perform the subspace rotation
 perform sub-space diagonalisation
    after iterative eigenvector-optimisation
 modified Broyden-mixing scheme, WC =      100.0
 initial mixing is a Kerker type mixing with AMIX =  0.4000 and BMIX =      1.0000
 Hartree-type preconditioning will be used
 using additional bands           67
 reciprocal scheme for non local part
 use partial core corrections
 calculate Harris-corrections to forces 
   (improved forces if not selfconsistent)
 use gradient corrections 
 use of overlap-Matrix (Vanderbilt PP)
 Methfessel and Paxton  Order N= 1 SIGMA  =   0.10


--------------------------------------------------------------------------------------------------------


  energy-cutoff  :      520.00
  volume of cell :      887.24
      direct lattice vectors                 reciprocal lattice vectors
     5.606951968  0.000000000  0.000000000     0.178350021 -0.000000000 -0.000000000
     0.000000000  8.241706534  0.000000000     0.000000000  0.121334095 -0.000000000
     0.000000000  0.000000000 19.199904855     0.000000000  0.000000000  0.052083591

  length of vectors
     5.606951968  8.241706534 19.199904855     0.178350021  0.121334095  0.052083591


 
 k-points in units of 2pi/SCALE and weight: K-Spacing Value to Generate K-Mesh: 0.04
   0.00000000  0.00000000  0.00000000       0.083
   0.04458751  0.00000000  0.00000000       0.167
   0.08917501  0.00000000  0.00000000       0.083
   0.00000000  0.04044470  0.00000000       0.167
   0.04458751  0.04044470  0.00000000       0.333
   0.08917501  0.04044470  0.00000000       0.167
 
 k-points in reciprocal lattice and weights: K-Spacing Value to Generate K-Mesh: 0.04
   0.00000000  0.00000000  0.00000000       0.083
   0.25000000  0.00000000  0.00000000       0.167
   0.50000000  0.00000000  0.00000000       0.083
   0.00000000  0.33333333  0.00000000       0.167
   0.25000000  0.33333333  0.00000000       0.333
   0.50000000  0.33333333  0.00000000       0.167
 
 position of ions in fractional coordinates (direct lattice) 
   0.00000000  0.00000000  0.39062694
   0.00000000  0.50000000  0.39062694
   0.50000000  0.00000000  0.39062694
   0.50000000  0.50000000  0.39062694
   0.00000000  0.00000000  0.53664203
   0.00000000  0.50000000  0.53664203
   0.50000000  0.00000000  0.53664203
   0.50000000  0.50000000  0.53664203
   0.25094688  0.25207123  0.46391100
   0.25094688  0.74792877  0.46391100
   0.74905312  0.25207123  0.46391100
   0.74905312  0.74792877  0.46391100
   0.25094688  0.25207123  0.60937306
   0.25094688  0.74792877  0.60937306
   0.74905312  0.25207123  0.60937306
   0.74905312  0.74792877  0.60937306
 
 position of ions in cartesian coordinates  (Angst):
   0.00000000  0.00000000  7.50000000
   0.00000000  4.12085327  7.50000000
   2.80347598  0.00000000  7.50000000
   2.80347598  4.12085327  7.50000000
   0.00000000  0.00000000 10.30347598
   0.00000000  4.12085327 10.30347598
   2.80347598  0.00000000 10.30347598
   2.80347598  4.12085327 10.30347598
   1.40704711  2.07749706  8.90704711
   1.40704711  6.16420947  8.90704711
   4.19990485  2.07749706  8.90704711
   4.19990485  6.16420947  8.90704711
   1.40704711  2.07749706 11.69990485
   1.40704711  6.16420947 11.69990485
   4.19990485  2.07749706 11.69990485
   4.19990485  6.16420947 11.69990485
 


--------------------------------------------------------------------------------------------------------


 k-point     1 :   0.0000 0.0000 0.0000  plane waves:   23949
 k-point     2 :   0.2500 0.0000 0.0000  plane waves:   23891
 k-point     3 :   0.5000 0.0000 0.0000  plane waves:   23808
 k-point     4 :   0.0000 0.3333 0.0000  plane waves:   23932
 k-point     5 :   0.2500 0.3333 0.0000  plane waves:   23878
 k-point     6 :   0.5000 0.3333 0.0000  plane waves:   23860

 maximum and minimum number of plane-waves per node :     23949    23808

 maximum number of plane-waves:     23949
 maximum index in each direction: 
   IXMAX=   10   IYMAX=   15   IZMAX=   35
   IXMIN=  -10   IYMIN=  -15   IZMIN=  -35


 serial   3D FFT for wavefunctions
 parallel 3D FFT for charge:
    minimum data exchange during FFTs selected (reduces bandwidth)


 total amount of memory used by VASP MPI-rank0   112658. kBytes
=======================================================================

   base                                    :      30000. kBytes
   nonl-proj                               :      68352. kBytes
   fftplans                                :       1402. kBytes
   grid                                    :       7999. kBytes
   one-center                              :        248. kBytes
   wavefun                                 :       4657. kBytes
 
     INWAV:  cpu time      0.0000: real time      0.0000
 Broyden mixing: mesh for mixing (old mesh)
   NGX = 21   NGY = 31   NGZ = 71
  (NGX  = 64   NGY  = 96   NGZ  =216)
  gives a total of  46221 points

 initial charge density was supplied:
 charge density of overlapping atoms calculated
 number of electron     121.0000000 magnetization 
 keeping initial charge density in first step


--------------------------------------------------------------------------------------------------------


 Maximum index for augmentation-charges          448 (set IRDMAX)


--------------------------------------------------------------------------------------------------------


 First call to EWALD:  gamma=   0.184
 Maximum number of real-space cells   4x   3x   2
 Maximum number of reciprocal cells   2x   2x   5

    FEWALD:  cpu time      0.0013: real time      0.0013


--------------------------------------- Ionic step        1  -------------------------------------------




--------------------------------------- Iteration      1(   1)  ---------------------------------------


    POTLOK:  cpu time      0.0238: real time      0.0238
    SETDIJ:  cpu time      0.0020: real time      0.0020
     EDDAV:  cpu time      1.4534: real time      1.4544
       DOS:  cpu time      0.0022: real time      0.0022
    --------------------------------------------
      LOOP:  cpu time      1.4814: real time      1.4825

 eigenvalue-minimisations  :  1536
 total energy-change (2. order) : 0.8299560E+03  (-0.5787443E+04)
 number of electron     121.0000000 magnetization 
 augmentation part      121.0000000 magnetization 

 Free energy of the ion-electron system (eV)
  ---------------------------------------------------
  alpha Z        PSCENC =        92.03755193
  Ewald energy   TEWEN  =     15474.45623346
  -Hartree energ DENC   =    -27108.24778145
  -exchange      EXHF   =         0.00000000
  -V(xc)+E(xc)   XCENC  =       261.52267426
  PAW double counting   =     10984.71331719   -10925.53584238
  entropy T*S    EENTRO =         0.00589133
  eigenvalues    EBANDS =     -1642.72583637
  atomic energy  EATOM  =     13693.72977468
  Solvation  Ediel_sol  =         0.00000000
  ---------------------------------------------------
  free energy    TOTEN  =       829.95598265 eV

  energy without entropy =      829.95009132  energy(sigma->0) =      829.95401887


--------------------------------------------------------------------------------------------------------




--------------------------------------- Iteration      1(   2)  ---------------------------------------


     EDDAV:  cpu time      1.7484: real time      1.7490
       DOS:  cpu time      0.0003: real time      0.0003
    --------------------------------------------
      LOOP:  cpu time      1.7487: real time      1.7493

 eigenvalue-minimisations  :  1856
 total energy-change (2. order) :-0.8355190E+03  (-0.7933133E+03)
 number of electron     121.0000000 magnetization 
 augmentation part      121.0000000 magnetization 

 Free energy of the ion-electron system (eV)
  ---------------------------------------------------
  alpha Z        PSCENC =        92.03755193
  Ewald energy   TEWEN  =     15474.45623346
  -Hartree energ DENC   =    -27108.24778145
  -exchange      EXHF   =         0.00000000
  -V(xc)+E(xc)   XCENC  =       261.52267426
  PAW double counting   =     10984.71331719   -10925.53584238
  entropy T*S    EENTRO =        -0.00740901
  eigenvalues    EBANDS =     -2478.23150907
  atomic energy  EATOM  =     13693.72977468
  Solvation  Ediel_sol  =         0.00000000
  ---------------------------------------------------
  free energy    TOTEN  =        -5.56299039 eV

  energy without entropy =       -5.55558138  energy(sigma->0) =       -5.56052072


--------------------------------------------------------------------------------------------------------




--------------------------------------- Iteration      1(   3)  ---------------------------------------


     EDDAV:  cpu time      3.3728: real time      3.3733
       DOS:  cpu time      0.0003: real time      0.0003
    --------------------------------------------
      LOOP:  cpu time      3.3732: real time      3.3736

 eigenvalue-minimisations  :  3072
 total energy-change (2. order) :-0.9134373E+02  (-0.8960694E+02)
 number of electron     121.0000000 magnetization 
 augmentation part      121.0000000 magnetization 

 Free energy of the ion-electron system (eV)
  ---------------------------------------------------
  alpha Z        PSCENC =        92.03755193
  Ewald energy   TEWEN  =     15474.45623346
  -Hartree energ DENC   =    -27108.24778145
  -exchange      EXHF   =         0.00000000
  -V(xc)+E(xc)   XCENC  =       261.52267426
  PAW double counting   =     10984.71331719   -10925.53584238
  entropy T*S    EENTRO =         0.00459798
  eigenvalues    EBANDS =     -2569.58724930
  atomic energy  EATOM  =     13693.72977468
  Solvation  Ediel_sol  =         0.00000000
  ---------------------------------------------------
  free energy    TOTEN  =       -96.90672363 eV

  energy without entropy =      -96.91132161  energy(sigma->0) =      -96.90825629


--------------------------------------------------------------------------------------------------------




--------------------------------------- Iteration      1(   4)  ---------------------------------------


     EDDAV:  cpu time      1.7432: real time      1.7433
       DOS:  cpu time      0.0003: real time      0.0003
    --------------------------------------------
      LOOP:  cpu time      1.7435: real time      1.7436

 eigenvalue-minimisations  :  1856
 total energy-change (2. order) :-0.4225365E+01  (-0.4224536E+01)
 number of electron     121.0000000 magnetization 
 augmentation part      121.0000000 magnetization 

 Free energy of the ion-electron system (eV)
  ---------------------------------------------------
  alpha Z        PSCENC =        92.03755193
  Ewald energy   TEWEN  =     15474.45623346
  -Hartree energ DENC   =    -27108.24778145
  -exchange      EXHF   =         0.00000000
  -V(xc)+E(xc)   XCENC  =       261.52267426
  PAW double counting   =     10984.71331719   -10925.53584238
  entropy T*S    EENTRO =         0.00353927
  eigenvalues    EBANDS =     -2573.81155534
  atomic energy  EATOM  =     13693.72977468
  Solvation  Ediel_sol  =         0.00000000
  ---------------------------------------------------
  free energy    TOTEN  =      -101.13208838 eV

  energy without entropy =     -101.13562765  energy(sigma->0) =     -101.13326814


--------------------------------------------------------------------------------------------------------




--------------------------------------- Iteration      1(   5)  ---------------------------------------


     EDDAV:  cpu time      2.8034: real time      2.8037
       DOS:  cpu time      0.0003: real time      0.0003
    CHARGE:  cpu time      0.0353: real time      0.0353
    MIXING:  cpu time      0.0006: real time      0.0006
    --------------------------------------------
      LOOP:  cpu time      2.8396: real time      2.8399

 eigenvalue-minimisations  :  2688
 total energy-change (2. order) :-0.2189136E+00  (-0.2189060E+00)
 number of electron     120.9999919 magnetization 
 augmentation part       31.9994770 magnetization 

 Broyden mixing:
  rms(total) = 0.25037E+01    rms(broyden)= 0.25036E+01
  rms(prec ) = 0.29944E+01
  weight for this iteration     100.00

 Free energy of the ion-electron system (eV)
  ---------------------------------------------------
  alpha Z        PSCENC =        92.03755193
  Ewald energy   TEWEN  =     15474.45623346
  -Hartree energ DENC   =    -27108.24778145
  -exchange      EXHF   =         0.00000000
  -V(xc)+E(xc)   XCENC  =       261.52267426
  PAW double counting   =     10984.71331719   -10925.53584238
  entropy T*S    EENTRO =         0.00348249
  eigenvalues    EBANDS =     -2574.03041216
  atomic energy  EATOM  =     13693.72977468
  Solvation  Ediel_sol  =         0.00000000
  ---------------------------------------------------
  free energy    TOTEN  =      -101.35100199 eV

  energy without entropy =     -101.35448447  energy(sigma->0) =     -101.35216281


--------------------------------------------------------------------------------------------------------




--------------------------------------- Iteration      1(   6)  ---------------------------------------


    POTLOK:  cpu time      0.0199: real time      0.0199
    SETDIJ:  cpu time      0.0019: real time      0.0018
     EDDAV:  cpu time      2.4034: real time      2.4038
       DOS:  cpu time      0.0003: real time      0.0003
    CHARGE:  cpu time      0.0349: real time      0.0349
    MIXING:  cpu time      0.0007: real time      0.0007
    --------------------------------------------
      LOOP:  cpu time      2.4610: real time      2.4614

 eigenvalue-minimisations  :  2304
 total energy-change (2. order) :-0.2048316E+02  (-0.9691686E+01)
 number of electron     120.9999983 magnetization 
 augmentation part       40.9787722 magnetization 

 Broyden mixing:
  rms(total) = 0.62110E+01    rms(broyden)= 0.62109E+01
  rms(prec ) = 0.85920E+01
  weight for this iteration     100.00

 eigenvalues of (default mixing * dielectric matrix)
  average eigenvalue GAMMA=   0.2436
  0.2436

 Free energy of the ion-electron system (eV)
  ---------------------------------------------------
  alpha Z        PSCENC =        92.03755193
  Ewald energy   TEWEN  =     15474.45623346
  -Hartree energ DENC   =    -26935.16046934
  -exchange      EXHF   =         0.00000000
  -V(xc)+E(xc)   XCENC  =       251.53047770
  PAW double counting   =     11599.03924965   -11542.91222892
  entropy T*S    EENTRO =         0.00233283
  eigenvalues    EBANDS =     -2754.55708268
  atomic energy  EATOM  =     13693.72977468
  Solvation  Ediel_sol  =         0.00000000
  ---------------------------------------------------
  free energy    TOTEN  =      -121.83416067 eV

  energy without entropy =     -121.83649350  energy(sigma->0) =     -121.83493828


--------------------------------------------------------------------------------------------------------




--------------------------------------- Iteration      1(   7)  ---------------------------------------


    POTLOK:  cpu time      0.0197: real time      0.0197
    SETDIJ:  cpu time      0.0019: real time      0.0019
     EDDAV:  cpu time      2.4095: real time      2.4100
       DOS:  cpu time      0.0003: real time      0.0003
    CHARGE:  cpu time      0.0347: real time      0.0347
    MIXING:  cpu time      0.0006: real time      0.0006
    --------------------------------------------
      LOOP:  cpu time      2.4668: real time      2.4673

 eigenvalue-minimisations  :  2304
 total energy-change (2. order) : 0.2634397E+02  (-0.2859914E+02)
 number of electron     120.9999892 magnetization 
 augmentation part       35.6526422 magnetization 

 Broyden mixing:
  rms(total) = 0.26292E+01    rms(broyden)= 0.26290E+01
  rms(prec ) = 0.37091E+01
  weight for this iteration     100.00

 eigenvalues of (default mixing * dielectric matrix)
  average eigenvalue GAMMA=   0.3917
  0.6254  0.1580

 Free energy of the ion-electron system (eV)
  ---------------------------------------------------
  alpha Z        PSCENC =        92.03755193
  Ewald energy   TEWEN  =     15474.45623346
  -Hartree energ DENC   =    -27028.54804100
  -exchange      EXHF   =         0.00000000
  -V(xc)+E(xc)   XCENC  =       255.06357960
  PAW double counting   =     11778.02787420   -11718.68159945
  entropy T*S    EENTRO =        -0.00138473
  eigenvalues    EBANDS =     -2641.57417547
  atomic energy  EATOM  =     13693.72977468
  Solvation  Ediel_sol  =         0.00000000
  ---------------------------------------------------
  free energy    TOTEN  =       -95.49018677 eV

  energy without entropy =      -95.48880204  energy(sigma->0) =      -95.48972519


--------------------------------------------------------------------------------------------------------




--------------------------------------- Iteration      1(   8)  ---------------------------------------


    POTLOK:  cpu time      0.0196: real time      0.0196
    SETDIJ:  cpu time      0.0022: real time      0.0022
     EDDAV:  cpu time      2.2031: real time      2.2036
       DOS:  cpu time      0.0003: real time      0.0003
    CHARGE:  cpu time      0.0345: real time      0.0345
    MIXING:  cpu time      0.0007: real time      0.0007
    --------------------------------------------
      LOOP:  cpu time      2.2605: real time      2.2610

 eigenvalue-minimisations  :  2176
 total energy-change (2. order) : 0.7652909E+01  (-0.5260037E+01)
 number of electron     120.9999916 magnetization 
 augmentation part       33.0766610 magnetization 

 Broyden mixing:
  rms(total) = 0.15360E+01    rms(broyden)= 0.15358E+01
  rms(prec ) = 0.19293E+01
  weight for this iteration     100.00

 eigenvalues of (default mixing * dielectric matrix)
  average eigenvalue GAMMA=   0.4392
  0.8943  0.2622  0.1612

 Free energy of the ion-electron system (eV)
  ---------------------------------------------------
  alpha Z        PSCENC =        92.03755193
  Ewald energy   TEWEN  =     15474.45623346
  -Hartree energ DENC   =    -27132.02968736
  -exchange      EXHF   =         0.00000000
  -V(xc)+E(xc)   XCENC  =       257.73135842
  PAW double counting   =     12083.25788728   -12019.46017803
  entropy T*S    EENTRO =        -0.00022721
  eigenvalues    EBANDS =     -2537.55999093
  atomic energy  EATOM  =     13693.72977468
  Solvation  Ediel_sol  =         0.00000000
  ---------------------------------------------------
  free energy    TOTEN  =       -87.83727774 eV

  energy without entropy =      -87.83705054  energy(sigma->0) =      -87.83720201


--------------------------------------------------------------------------------------------------------




--------------------------------------- Iteration      1(   9)  ---------------------------------------


    POTLOK:  cpu time      0.0196: real time      0.0196
    SETDIJ:  cpu time      0.0019: real time      0.0019
     EDDAV:  cpu time      2.2969: real time      2.2970
       DOS:  cpu time      0.0003: real time      0.0003
    CHARGE:  cpu time      0.0345: real time      0.0345
    MIXING:  cpu time      0.0007: real time      0.0007
    --------------------------------------------
      LOOP:  cpu time      2.3539: real time      2.3540

 eigenvalue-minimisations  :  2240
 total energy-change (2. order) : 0.1853133E+01  (-0.2673283E+01)
 number of electron     120.9999915 magnetization 
 augmentation part       33.2390760 magnetization 

 Broyden mixing:
  rms(total) = 0.11015E+01    rms(broyden)= 0.11014E+01
  rms(prec ) = 0.14004E+01
  weight for this iteration     100.00

 eigenvalues of (default mixing * dielectric matrix)
  average eigenvalue GAMMA=   0.5146
  1.3174  0.3484  0.1568  0.2357

 Free energy of the ion-electron system (eV)
  ---------------------------------------------------
  alpha Z        PSCENC =        92.03755193
  Ewald energy   TEWEN  =     15474.45623346
  -Hartree energ DENC   =    -27132.43080926
  -exchange      EXHF   =         0.00000000
  -V(xc)+E(xc)   XCENC  =       257.22916800
  PAW double counting   =     12279.73741480   -12213.93765608
  entropy T*S    EENTRO =        -0.00717981
  eigenvalues    EBANDS =     -2536.79864287
  atomic energy  EATOM  =     13693.72977468
  Solvation  Ediel_sol  =         0.00000000
  ---------------------------------------------------
  free energy    TOTEN  =       -85.98414516 eV

  energy without entropy =      -85.97696535  energy(sigma->0) =      -85.98175189


--------------------------------------------------------------------------------------------------------




--------------------------------------- Iteration      1(  10)  ---------------------------------------


    POTLOK:  cpu time      0.0197: real time      0.0197
    SETDIJ:  cpu time      0.0018: real time      0.0018
     EDDAV:  cpu time      2.2328: real time      2.2330
       DOS:  cpu time      0.0003: real time      0.0003
    CHARGE:  cpu time      0.0346: real time      0.0346
    MIXING:  cpu time      0.0007: real time      0.0007
    --------------------------------------------
      LOOP:  cpu time      2.2899: real time      2.2901

 eigenvalue-minimisations  :  2176
 total energy-change (2. order) : 0.2034037E+01  (-0.5097159E+00)
 number of electron     120.9999910 magnetization 
 augmentation part       33.7486213 magnetization 

 Broyden mixing:
  rms(total) = 0.68223E+00    rms(broyden)= 0.68219E+00
  rms(prec ) = 0.84714E+00
  weight for this iteration     100.00

 eigenvalues of (default mixing * dielectric matrix)
  average eigenvalue GAMMA=   0.5067
  1.4670  0.3527  0.3527  0.1624  0.1986

 Free energy of the ion-electron system (eV)
  ---------------------------------------------------
  alpha Z        PSCENC =        92.03755193
  Ewald energy   TEWEN  =     15474.45623346
  -Hartree energ DENC   =    -27116.24827673
  -exchange      EXHF   =         0.00000000
  -V(xc)+E(xc)   XCENC  =       256.11603627
  PAW double counting   =     12488.31256948   -12420.73462389
  entropy T*S    EENTRO =        -0.00578033
  eigenvalues    EBANDS =     -2551.61359281
  atomic energy  EATOM  =     13693.72977468
  Solvation  Ediel_sol  =         0.00000000
  ---------------------------------------------------
  free energy    TOTEN  =       -83.95010794 eV

  energy without entropy =      -83.94432761  energy(sigma->0) =      -83.94818117


--------------------------------------------------------------------------------------------------------




--------------------------------------- Iteration      1(  11)  ---------------------------------------


    POTLOK:  cpu time      0.0195: real time      0.0196
    SETDIJ:  cpu time      0.0019: real time      0.0019
     EDDAV:  cpu time      2.3063: real time      2.3066
       DOS:  cpu time      0.0003: real time      0.0003
    CHARGE:  cpu time      0.0345: real time      0.0345
    MIXING:  cpu time      0.0007: real time      0.0007
    --------------------------------------------
      LOOP:  cpu time      2.3632: real time      2.3635

 eigenvalue-minimisations  :  2240
 total energy-change (2. order) : 0.4421452E+00  (-0.1961435E+00)
 number of electron     120.9999912 magnetization 
 augmentation part       33.8960482 magnetization 

 Broyden mixing:
  rms(total) = 0.44221E+00    rms(broyden)= 0.44217E+00
  rms(prec ) = 0.54695E+00
  weight for this iteration     100.00

 eigenvalues of (default mixing * dielectric matrix)
  average eigenvalue GAMMA=   0.6086
  1.8050  0.8564  0.4123  0.1596  0.2258  0.1925

 Free energy of the ion-electron system (eV)
  ---------------------------------------------------
  alpha Z        PSCENC =        92.03755193
  Ewald energy   TEWEN  =     15474.45623346
  -Hartree energ DENC   =    -27115.41940634
  -exchange      EXHF   =         0.00000000
  -V(xc)+E(xc)   XCENC  =       255.80038750
  PAW double counting   =     12573.93707641   -12504.87660157
  entropy T*S    EENTRO =         0.00178859
  eigenvalues    EBANDS =     -2553.17476739
  atomic energy  EATOM  =     13693.72977468
  Solvation  Ediel_sol  =         0.00000000
  ---------------------------------------------------
  free energy    TOTEN  =       -83.50796272 eV

  energy without entropy =      -83.50975131  energy(sigma->0) =      -83.50855892


--------------------------------------------------------------------------------------------------------




--------------------------------------- Iteration      1(  12)  ---------------------------------------


    POTLOK:  cpu time      0.0197: real time      0.0197
    SETDIJ:  cpu time      0.0018: real time      0.0018
     EDDAV:  cpu time      2.4322: real time      2.4324
       DOS:  cpu time      0.0003: real time      0.0003
    CHARGE:  cpu time      0.0347: real time      0.0347
    MIXING:  cpu time      0.0007: real time      0.0007
    --------------------------------------------
      LOOP:  cpu time      2.4895: real time      2.4898

 eigenvalue-minimisations  :  2304
 total energy-change (2. order) : 0.1356331E+00  (-0.1526720E+00)
 number of electron     120.9999917 magnetization 
 augmentation part       34.2220155 magnetization 

 Broyden mixing:
  rms(total) = 0.54539E+00    rms(broyden)= 0.54535E+00
  rms(prec ) = 0.68002E+00
  weight for this iteration     100.00

 eigenvalues of (default mixing * dielectric matrix)
  average eigenvalue GAMMA=   0.6108
  2.0400  1.0534  0.3911  0.2586  0.2116  0.1605  0.1605

 Free energy of the ion-electron system (eV)
  ---------------------------------------------------
  alpha Z        PSCENC =        92.03755193
  Ewald energy   TEWEN  =     15474.45623346
  -Hartree energ DENC   =    -27121.78528838
  -exchange      EXHF   =         0.00000000
  -V(xc)+E(xc)   XCENC  =       255.34034964
  PAW double counting   =     12745.16042805   -12671.59160181
  entropy T*S    EENTRO =        -0.01579269
  eigenvalues    EBANDS =     -2550.70398448
  atomic energy  EATOM  =     13693.72977468
  Solvation  Ediel_sol  =         0.00000000
  ---------------------------------------------------
  free energy    TOTEN  =       -83.37232960 eV

  energy without entropy =      -83.35653691  energy(sigma->0) =      -83.36706537


--------------------------------------------------------------------------------------------------------




--------------------------------------- Iteration      1(  13)  ---------------------------------------


    POTLOK:  cpu time      0.0199: real time      0.0199
    SETDIJ:  cpu time      0.0018: real time      0.0018
     EDDAV:  cpu time      1.9842: real time      1.9845
       DOS:  cpu time      0.0003: real time      0.0003
    CHARGE:  cpu time      0.0348: real time      0.0348
    MIXING:  cpu time      0.0007: real time      0.0007
    --------------------------------------------
      LOOP:  cpu time      2.0418: real time      2.0420

 eigenvalue-minimisations  :  1984
 total energy-change (2. order) : 0.1971849E+00  (-0.1474314E+00)
 number of electron     120.9999916 magnetization 
 augmentation part       34.3350931 magnetization 

 Broyden mixing:
  rms(total) = 0.27380E+00    rms(broyden)= 0.27372E+00
  rms(prec ) = 0.32802E+00
  weight for this iteration     100.00

 eigenvalues of (default mixing * dielectric matrix)
  average eigenvalue GAMMA=   0.6626
  1.7250  1.7250  0.6680  0.4451  0.2413  0.1973  0.1602  0.1391

 Free energy of the ion-electron system (eV)
  ---------------------------------------------------
  alpha Z        PSCENC =        92.03755193
  Ewald energy   TEWEN  =     15474.45623346
  -Hartree energ DENC   =    -27127.88075821
  -exchange      EXHF   =         0.00000000
  -V(xc)+E(xc)   XCENC  =       255.21858646
  PAW double counting   =     12822.31778780   -12745.91712126
  entropy T*S    EENTRO =         0.01006636
  eigenvalues    EBANDS =     -2547.14726589
  atomic energy  EATOM  =     13693.72977468
  Solvation  Ediel_sol  =         0.00000000
  ---------------------------------------------------
  free energy    TOTEN  =       -83.17514467 eV

  energy without entropy =      -83.18521103  energy(sigma->0) =      -83.17850012


--------------------------------------------------------------------------------------------------------




--------------------------------------- Iteration      1(  14)  ---------------------------------------


    POTLOK:  cpu time      0.0198: real time      0.0198
    SETDIJ:  cpu time      0.0019: real time      0.0019
     EDDAV:  cpu time      2.3886: real time      2.3888
       DOS:  cpu time      0.0003: real time      0.0003
    CHARGE:  cpu time      0.0352: real time      0.0352
    MIXING:  cpu time      0.0008: real time      0.0008
    --------------------------------------------
      LOOP:  cpu time      2.4466: real time      2.4468

 eigenvalue-minimisations  :  2304
 total energy-change (2. order) :-0.1725783E-01  (-0.4047523E-01)
 number of electron     120.9999916 magnetization 
 augmentation part       34.2574448 magnetization 

 Broyden mixing:
  rms(total) = 0.28458E+00    rms(broyden)= 0.28456E+00
  rms(prec ) = 0.34289E+00
  weight for this iteration     100.00

 eigenvalues of (default mixing * dielectric matrix)
  average eigenvalue GAMMA=   0.6703
  1.8731  1.8731  0.8558  0.4396  0.2504  0.2504  0.1933  0.1603  0.1370

 Free energy of the ion-electron system (eV)
  ---------------------------------------------------
  alpha Z        PSCENC =        92.03755193
  Ewald energy   TEWEN  =     15474.45623346
  -Hartree energ DENC   =    -27140.65928148
  -exchange      EXHF   =         0.00000000
  -V(xc)+E(xc)   XCENC  =       255.45093032
  PAW double counting   =     12825.68331522   -12746.41258433
  entropy T*S    EENTRO =         0.00049300
  eigenvalues    EBANDS =     -2537.47883530
  atomic energy  EATOM  =     13693.72977468
  Solvation  Ediel_sol  =         0.00000000
  ---------------------------------------------------
  free energy    TOTEN  =       -83.19240250 eV

  energy without entropy =      -83.19289550  energy(sigma->0) =      -83.19256683


--------------------------------------------------------------------------------------------------------




--------------------------------------- Iteration      1(  15)  ---------------------------------------


    POTLOK:  cpu time      0.0198: real time      0.0198
    SETDIJ:  cpu time      0.0019: real time      0.0019
     EDDAV:  cpu time      2.0558: real time      2.0559
       DOS:  cpu time      0.0003: real time      0.0003
    CHARGE:  cpu time      0.0347: real time      0.0347
    MIXING:  cpu time      0.0008: real time      0.0008
    --------------------------------------------
      LOOP:  cpu time      2.1132: real time      2.1134

 eigenvalue-minimisations  :  2048
 total energy-change (2. order) : 0.6465692E-01  (-0.2516477E-01)
 number of electron     120.9999916 magnetization 
 augmentation part       34.1707823 magnetization 

 Broyden mixing:
  rms(total) = 0.13855E+00    rms(broyden)= 0.13852E+00
  rms(prec ) = 0.17043E+00
  weight for this iteration     100.00

 eigenvalues of (default mixing * dielectric matrix)
  average eigenvalue GAMMA=   0.6853
  1.9844  1.9844  0.8973  0.6419  0.4193  0.2414  0.2064  0.1598  0.1802  0.1376

 Free energy of the ion-electron system (eV)
  ---------------------------------------------------
  alpha Z        PSCENC =        92.03755193
  Ewald energy   TEWEN  =     15474.45623346
  -Hartree energ DENC   =    -27146.91178759
  -exchange      EXHF   =         0.00000000
  -V(xc)+E(xc)   XCENC  =       255.60722709
  PAW double counting   =     12808.46798411   -12728.21693203
  entropy T*S    EENTRO =        -0.00028440
  eigenvalues    EBANDS =     -2532.29751283
  atomic energy  EATOM  =     13693.72977468
  Solvation  Ediel_sol  =         0.00000000
  ---------------------------------------------------
  free energy    TOTEN  =       -83.12774558 eV

  energy without entropy =      -83.12746118  energy(sigma->0) =      -83.12765078


--------------------------------------------------------------------------------------------------------




--------------------------------------- Iteration      1(  16)  ---------------------------------------


    POTLOK:  cpu time      0.0199: real time      0.0199
    SETDIJ:  cpu time      0.0018: real time      0.0018
     EDDAV:  cpu time      2.4903: real time      2.4905
       DOS:  cpu time      0.0003: real time      0.0003
    CHARGE:  cpu time      0.0347: real time      0.0347
    MIXING:  cpu time      0.0008: real time      0.0008
    --------------------------------------------
      LOOP:  cpu time      2.5478: real time      2.5480

 eigenvalue-minimisations  :  2368
 total energy-change (2. order) :-0.1836517E-01  (-0.2481952E-01)
 number of electron     120.9999917 magnetization 
 augmentation part       34.1823850 magnetization 

 Broyden mixing:
  rms(total) = 0.18674E+00    rms(broyden)= 0.18672E+00
  rms(prec ) = 0.23117E+00
  weight for this iteration     100.00

 eigenvalues of (default mixing * dielectric matrix)
  average eigenvalue GAMMA=   0.7016
  2.1602  2.1602  0.9753  0.8882  0.4251  0.2434  0.2163  0.2001  0.1589  0.1377
  0.1518

 Free energy of the ion-electron system (eV)
  ---------------------------------------------------
  alpha Z        PSCENC =        92.03755193
  Ewald energy   TEWEN  =     15474.45623346
  -Hartree energ DENC   =    -27152.87466521
  -exchange      EXHF   =         0.00000000
  -V(xc)+E(xc)   XCENC  =       255.68997404
  PAW double counting   =     12808.94657074   -12727.65216259
  entropy T*S    EENTRO =         0.00422282
  eigenvalues    EBANDS =     -2527.48361064
  atomic energy  EATOM  =     13693.72977468
  Solvation  Ediel_sol  =         0.00000000
  ---------------------------------------------------
  free energy    TOTEN  =       -83.14611076 eV

  energy without entropy =      -83.15033358  energy(sigma->0) =      -83.14751836


--------------------------------------------------------------------------------------------------------




--------------------------------------- Iteration      1(  17)  ---------------------------------------


    POTLOK:  cpu time      0.0198: real time      0.0198
    SETDIJ:  cpu time      0.0019: real time      0.0019
     EDDAV:  cpu time      2.4970: real time      2.4973
       DOS:  cpu time      0.0003: real time      0.0003
    CHARGE:  cpu time      0.0353: real time      0.0353
    MIXING:  cpu time      0.0008: real time      0.0008
    --------------------------------------------
      LOOP:  cpu time      2.5551: real time      2.5553

 eigenvalue-minimisations  :  2368
 total energy-change (2. order) : 0.3271505E-01  (-0.1245724E-01)
 number of electron     120.9999917 magnetization 
 augmentation part       34.1545910 magnetization 

 Broyden mixing:
  rms(total) = 0.53269E-01    rms(broyden)= 0.53242E-01
  rms(prec ) = 0.73828E-01
  weight for this iteration     100.00

 eigenvalues of (default mixing * dielectric matrix)
  average eigenvalue GAMMA=   0.7658
  2.3352  2.3352  1.2995  0.8428  0.8428  0.4294  0.2376  0.2246  0.1958  0.1599
  0.1380  0.1487

 Free energy of the ion-electron system (eV)
  ---------------------------------------------------
  alpha Z        PSCENC =        92.03755193
  Ewald energy   TEWEN  =     15474.45623346
  -Hartree energ DENC   =    -27161.22590040
  -exchange      EXHF   =         0.00000000
  -V(xc)+E(xc)   XCENC  =       255.80034241
  PAW double counting   =     12811.53617685   -12728.88860627
  entropy T*S    EENTRO =         0.00161653
  eigenvalues    EBANDS =     -2520.56058491
  atomic energy  EATOM  =     13693.72977468
  Solvation  Ediel_sol  =         0.00000000
  ---------------------------------------------------
  free energy    TOTEN  =       -83.11339571 eV

  energy without entropy =      -83.11501224  energy(sigma->0) =      -83.11393455


--------------------------------------------------------------------------------------------------------




--------------------------------------- Iteration      1(  18)  ---------------------------------------


    POTLOK:  cpu time      0.0197: real time      0.0197
    SETDIJ:  cpu time      0.0018: real time      0.0018
     EDDAV:  cpu time      2.4380: real time      2.4383
       DOS:  cpu time      0.0003: real time      0.0003
    CHARGE:  cpu time      0.0348: real time      0.0348
    MIXING:  cpu time      0.0009: real time      0.0009
    --------------------------------------------
      LOOP:  cpu time      2.4956: real time      2.4959

 eigenvalue-minimisations  :  2304
 total energy-change (2. order) :-0.7476704E-03  (-0.1541216E-02)
 number of electron     120.9999916 magnetization 
 augmentation part       34.1070263 magnetization 

 Broyden mixing:
  rms(total) = 0.18626E-01    rms(broyden)= 0.18617E-01
  rms(prec ) = 0.29917E-01
  weight for this iteration     100.00

 eigenvalues of (default mixing * dielectric matrix)
  average eigenvalue GAMMA=   0.8097
  2.4424  2.4424  1.2849  1.2849  0.8613  0.6763  0.4296  0.2378  0.2240  0.1959
  0.1599  0.1381  0.1485

 Free energy of the ion-electron system (eV)
  ---------------------------------------------------
  alpha Z        PSCENC =        92.03755193
  Ewald energy   TEWEN  =     15474.45623346
  -Hartree energ DENC   =    -27169.01089494
  -exchange      EXHF   =         0.00000000
  -V(xc)+E(xc)   XCENC  =       255.91811392
  PAW double counting   =     12795.31043739   -12712.06502250
  entropy T*S    EENTRO =         0.00167148
  eigenvalues    EBANDS =     -2513.49200881
  atomic energy  EATOM  =     13693.72977468
  Solvation  Ediel_sol  =         0.00000000
  ---------------------------------------------------
  free energy    TOTEN  =       -83.11414338 eV

  energy without entropy =      -83.11581486  energy(sigma->0) =      -83.11470054


--------------------------------------------------------------------------------------------------------




--------------------------------------- Iteration      1(  19)  ---------------------------------------


    POTLOK:  cpu time      0.0197: real time      0.0197
    SETDIJ:  cpu time      0.0018: real time      0.0018
     EDDAV:  cpu time      2.3362: real time      2.3365
       DOS:  cpu time      0.0003: real time      0.0003
    CHARGE:  cpu time      0.0345: real time      0.0345
    MIXING:  cpu time      0.0009: real time      0.0009
    --------------------------------------------
      LOOP:  cpu time      2.3934: real time      2.3937

 eigenvalue-minimisations  :  2240
 total energy-change (2. order) :-0.1422974E-02  (-0.2460692E-03)
 number of electron     120.9999916 magnetization 
 augmentation part       34.1017034 magnetization 

 Broyden mixing:
  rms(total) = 0.10251E-01    rms(broyden)= 0.10249E-01
  rms(prec ) = 0.16883E-01
  weight for this iteration     100.00

 eigenvalues of (default mixing * dielectric matrix)
  average eigenvalue GAMMA=   0.9049
  2.7486  2.7486  1.7859  1.3843  0.9397  0.8601  0.6681  0.4293  0.2377  0.2241
  0.1959  0.1599  0.1381  0.1485

 Free energy of the ion-electron system (eV)
  ---------------------------------------------------
  alpha Z        PSCENC =        92.03755193
  Ewald energy   TEWEN  =     15474.45623346
  -Hartree energ DENC   =    -27174.43937388
  -exchange      EXHF   =         0.00000000
  -V(xc)+E(xc)   XCENC  =       255.95827790
  PAW double counting   =     12790.48139230   -12707.00583314
  entropy T*S    EENTRO =         0.00092633
  eigenvalues    EBANDS =     -2508.33451594
  atomic energy  EATOM  =     13693.72977468
  Solvation  Ediel_sol  =         0.00000000
  ---------------------------------------------------
  free energy    TOTEN  =       -83.11556635 eV

  energy without entropy =      -83.11649269  energy(sigma->0) =      -83.11587513


--------------------------------------------------------------------------------------------------------




--------------------------------------- Iteration      1(  20)  ---------------------------------------


    POTLOK:  cpu time      0.0203: real time      0.0203
    SETDIJ:  cpu time      0.0018: real time      0.0018
     EDDAV:  cpu time      2.3405: real time      2.3409
       DOS:  cpu time      0.0003: real time      0.0003
    CHARGE:  cpu time      0.0348: real time      0.0348
    MIXING:  cpu time      0.0009: real time      0.0009
    --------------------------------------------
      LOOP:  cpu time      2.3987: real time      2.3991

 eigenvalue-minimisations  :  2240
 total energy-change (2. order) :-0.1371718E-02  (-0.1203123E-03)
 number of electron     120.9999916 magnetization 
 augmentation part       34.0992606 magnetization 

 Broyden mixing:
  rms(total) = 0.78065E-02    rms(broyden)= 0.78060E-02
  rms(prec ) = 0.11358E-01
  weight for this iteration     100.00

 eigenvalues of (default mixing * dielectric matrix)
  average eigenvalue GAMMA=   0.9843
  3.6736  2.6067  1.8571  1.6821  0.9770  0.9770  0.7709  0.6873  0.4294  0.2377
  0.2241  0.1959  0.1599  0.1381  0.1485

 Free energy of the ion-electron system (eV)
  ---------------------------------------------------
  alpha Z        PSCENC =        92.03755193
  Ewald energy   TEWEN  =     15474.45623346
  -Hartree energ DENC   =    -27180.98916710
  -exchange      EXHF   =         0.00000000
  -V(xc)+E(xc)   XCENC  =       255.98861887
  PAW double counting   =     12782.80714129   -12699.22421496
  entropy T*S    EENTRO =         0.00077383
  eigenvalues    EBANDS =     -2501.92365008
  atomic energy  EATOM  =     13693.72977468
  Solvation  Ediel_sol  =         0.00000000
  ---------------------------------------------------
  free energy    TOTEN  =       -83.11693807 eV

  energy without entropy =      -83.11771190  energy(sigma->0) =      -83.11719602


--------------------------------------------------------------------------------------------------------




--------------------------------------- Iteration      1(  21)  ---------------------------------------


    POTLOK:  cpu time      0.0201: real time      0.0201
    SETDIJ:  cpu time      0.0019: real time      0.0019
     EDDAV:  cpu time      2.3291: real time      2.3302
       DOS:  cpu time      0.0003: real time      0.0003
    CHARGE:  cpu time      0.0374: real time      0.0374
    MIXING:  cpu time      0.0009: real time      0.0009
    --------------------------------------------
      LOOP:  cpu time      2.3898: real time      2.3908

 eigenvalue-minimisations  :  2240
 total energy-change (2. order) :-0.2849577E-03  (-0.4699198E-04)
 number of electron     120.9999916 magnetization 
 augmentation part       34.1032086 magnetization 

 Broyden mixing:
  rms(total) = 0.39901E-02    rms(broyden)= 0.39897E-02
  rms(prec ) = 0.60304E-02
  weight for this iteration     100.00

 eigenvalues of (default mixing * dielectric matrix)
  average eigenvalue GAMMA=   1.0310
  4.0027  2.7017  1.8459  1.8459  1.1184  1.1184  0.8429  0.8429  0.6430  0.4294
  0.2377  0.2241  0.1959  0.1599  0.1381  0.1485

 Free energy of the ion-electron system (eV)
  ---------------------------------------------------
  alpha Z        PSCENC =        92.03755193
  Ewald energy   TEWEN  =     15474.45623346
  -Hartree energ DENC   =    -27183.78353685
  -exchange      EXHF   =         0.00000000
  -V(xc)+E(xc)   XCENC  =       255.99035656
  PAW double counting   =     12779.68183776   -12696.14625532
  entropy T*S    EENTRO =         0.00091566
  eigenvalues    EBANDS =     -2499.08410091
  atomic energy  EATOM  =     13693.72977468
  Solvation  Ediel_sol  =         0.00000000
  ---------------------------------------------------
  free energy    TOTEN  =       -83.11722303 eV

  energy without entropy =      -83.11813869  energy(sigma->0) =      -83.11752825


--------------------------------------------------------------------------------------------------------




--------------------------------------- Iteration      1(  22)  ---------------------------------------


    POTLOK:  cpu time      0.0202: real time      0.0202
    SETDIJ:  cpu time      0.0017: real time      0.0017
     EDDAV:  cpu time      1.8210: real time      1.8212
       DOS:  cpu time      0.0003: real time      0.0003
    CHARGE:  cpu time      0.0350: real time      0.0350
    MIXING:  cpu time      0.0010: real time      0.0009
    --------------------------------------------
      LOOP:  cpu time      1.8791: real time      1.8793

 eigenvalue-minimisations  :  1856
 total energy-change (2. order) :-0.4116586E-03  (-0.1101488E-04)
 number of electron     120.9999916 magnetization 
 augmentation part       34.1036050 magnetization 

 Broyden mixing:
  rms(total) = 0.20834E-02    rms(broyden)= 0.20832E-02
  rms(prec ) = 0.36238E-02
  weight for this iteration     100.00

 eigenvalues of (default mixing * dielectric matrix)
  average eigenvalue GAMMA=   1.1405
  4.5992  3.0973  2.1576  2.1576  1.5167  1.0418  1.0418  0.8033  0.8033  0.6359
  0.4294  0.2377  0.2241  0.1959  0.1599  0.1381  0.1485

 Free energy of the ion-electron system (eV)
  ---------------------------------------------------
  alpha Z        PSCENC =        92.03755193
  Ewald energy   TEWEN  =     15474.45623346
[...]
     39      -5.3170      2.00000
     40      -4.5617      2.00000
     41      -3.7334      2.00000
     42      -3.5164      2.00000
     43      -3.1944      2.00000
     44      -2.4532      2.00000
     45      -2.3892      2.00000
     46      -2.2381      2.00000
     47      -2.0682      2.00000
     48      -1.9584      2.00000
     49      -1.7615      2.00000
     50      -1.6656      2.00000
     51      -1.4036      2.00000
     52      -1.2070      2.00000
     53      -1.0551      2.00000
     54      -0.8331      2.00000
     55      -0.8015      2.00000
     56      -0.7526      2.00000
     57      -0.5651      2.00000
     58      -0.5022      2.00023
     59      -0.4448      2.00381
     60      -0.2737      1.90120
     61      -0.2116      1.08992
     62      -0.0971     -0.06442
     63      -0.0092     -0.01759
     64       0.0421     -0.00249
     65       0.1035     -0.00011
     66       0.2965     -0.00000
     67       0.3313     -0.00000
     68       0.4695     -0.00000
     69       0.7067     -0.00000
     70       0.7763     -0.00000
     71       0.9669     -0.00000
     72       1.1830     -0.00000
     73       1.2426     -0.00000
     74       1.2731     -0.00000
     75       1.3841     -0.00000
     76       1.4391     -0.00000
     77       1.5138     -0.00000
     78       1.5820     -0.00000
     79       1.6611     -0.00000
     80       1.7964      0.00000
     81       1.9280      0.00000
     82       1.9702      0.00000
     83       2.1291      0.00000
     84       2.1460      0.00000
     85       2.2608      0.00000
     86       2.3674      0.00000
     87       2.4850      0.00000
     88       2.8070      0.00000
     89       2.9072      0.00000
     90       3.0247      0.00000
     91       3.1612      0.00000
     92       3.4198      0.00000
     93       3.6005      0.00000
     94       3.7032      0.00000
     95       3.8140      0.00000
     96       3.8838      0.00000
     97       4.0820      0.00000
     98       4.1943      0.00000
     99       4.2636      0.00000
    100       4.4522      0.00000
    101       4.5561      0.00000
    102       4.8943      0.00000
    103       5.1859      0.00000
    104       5.2323      0.00000
    105       5.4221      0.00000
    106       5.4465      0.00000
    107       5.5860      0.00000
    108       5.7115      0.00000
    109       6.0941      0.00000
    110       6.1852      0.00000
    111       6.2426      0.00000
    112       6.3292      0.00000
    113       6.5229      0.00000
    114       6.5854      0.00000
    115       6.6596      0.00000
    116       6.7232      0.00000
    117       6.7530      0.00000
    118       6.8815      0.00000
    119       6.9705      0.00000
    120       7.0807      0.00000
    121       7.1327      0.00000
    122       7.2434      0.00000
    123       7.2874      0.00000
    124       7.3929      0.00000
    125       7.4704      0.00000
    126       7.5332      0.00000
    127       7.6514      0.00000
    128       7.7785      0.00000

 k-point     6 :       0.5000    0.3333    0.0000
  band No.  band energies     occupation 
      1     -57.3272      2.00000
      2     -57.3195      2.00000
      3     -57.1631      2.00000
      4     -56.9313      2.00000
      5     -56.9075      2.00000
      6     -56.8545      2.00000
      7     -56.8370      2.00000
      8     -33.7548      2.00000
      9     -33.6784      2.00000
     10     -33.6488      2.00000
     11     -33.6455      2.00000
     12     -33.6108      2.00000
     13     -33.4953      2.00000
     14     -33.4604      2.00000
     15     -33.3858      2.00000
     16     -33.2909      2.00000
     17     -33.2718      2.00000
     18     -33.2682      2.00000
     19     -33.2664      2.00000
     20     -33.2588      2.00000
     21     -33.2119      2.00000
     22     -33.1584      2.00000
     23     -33.0861      2.00000
     24     -33.0738      2.00000
     25     -33.0601      2.00000
     26     -33.0479      2.00000
     27     -33.0306      2.00000
     28     -33.0017      2.00000
     29     -14.5662      2.00000
     30     -14.5660      2.00000
     31     -14.5515      2.00000
     32     -14.5421      2.00000
     33     -14.5215      2.00000
     34      -7.5874      2.00000
     35      -7.0125      2.00000
     36      -6.6877      2.00000
     37      -6.5241      2.00000
     38      -5.7210      2.00000
     39      -4.9357      2.00000
     40      -4.7461      2.00000
     41      -4.5869      2.00000
     42      -3.7941      2.00000
     43      -3.0507      2.00000
     44      -2.5704      2.00000
     45      -2.2145      2.00000
     46      -1.9878      2.00000
     47      -1.7041      2.00000
     48      -1.7004      2.00000
     49      -1.4927      2.00000
     50      -1.4170      2.00000
     51      -1.4136      2.00000
     52      -0.9454      2.00000
     53      -0.9115      2.00000
     54      -0.6941      2.00000
     55      -0.6635      2.00000
     56      -0.5337      2.00004
     57      -0.4077      2.01527
     58      -0.3835      2.03103
     59      -0.3683      2.04424
     60      -0.3090      2.05547
     61      -0.1747      0.49474
     62      -0.1300      0.04016
     63      -0.1293      0.03625
     64       0.0611     -0.00103
     65       0.1465     -0.00001
     66       0.2272     -0.00000
     67       0.3701     -0.00000
     68       0.4572     -0.00000
     69       0.4850     -0.00000
     70       0.5535     -0.00000
     71       0.6097     -0.00000
     72       0.9904     -0.00000
     73       1.0857     -0.00000
     74       1.1442     -0.00000
     75       1.1589     -0.00000
     76       1.2865     -0.00000
     77       1.4359     -0.00000
     78       1.4772     -0.00000
     79       1.5232     -0.00000
     80       1.7217     -0.00000
     81       1.9300      0.00000
     82       2.0098      0.00000
     83       2.0671      0.00000
     84       2.2799      0.00000
     85       2.3064      0.00000
     86       2.4085      0.00000
     87       2.5485      0.00000
     88       2.7450      0.00000
     89       2.7643      0.00000
     90       2.9272      0.00000
     91       3.4256      0.00000
     92       3.8311      0.00000
     93       3.8447      0.00000
     94       4.0042      0.00000
     95       4.1535      0.00000
     96       4.2701      0.00000
     97       4.3085      0.00000
     98       4.5223      0.00000
     99       4.6095      0.00000
    100       4.7283      0.00000
    101       4.9234      0.00000
    102       4.9936      0.00000
    103       5.0170      0.00000
    104       5.1306      0.00000
    105       5.1367      0.00000
    106       5.1634      0.00000
    107       5.4576      0.00000
    108       5.5320      0.00000
    109       5.5416      0.00000
    110       5.7478      0.00000
    111       5.8393      0.00000
    112       5.9619      0.00000
    113       6.1213      0.00000
    114       6.1812      0.00000
    115       6.3218      0.00000
    116       6.3230      0.00000
    117       6.4344      0.00000
    118       6.6506      0.00000
    119       6.7763      0.00000
    120       7.0611      0.00000
    121       7.0702      0.00000
    122       7.1868      0.00000
    123       7.3201      0.00000
    124       7.6067      0.00000
    125       7.6772      0.00000
    126       7.7251      0.00000
    127       7.7523      0.00000
    128       8.0441      0.00000


--------------------------------------------------------------------------------------------------------


 soft charge-density along one line, spin component           1
         0         1         2         3         4         5         6         7         8         9
 total charge-density along one line
 
 pseudopotential strength for first ion, spin component:           1
-17.312   0.000   0.000  -0.000  -0.000   4.026  -0.000   0.000
  0.000 -17.330  -0.000  -0.000   0.000  -0.000   4.036   0.000
  0.000  -0.000 -17.314   0.000  -0.020   0.000   0.000   4.027
 -0.000  -0.000   0.000 -17.289   0.000   0.000   0.000  -0.000
 -0.000   0.000  -0.020   0.000 -17.317   0.000  -0.000   0.012
  4.026  -0.000   0.000   0.000   0.000   2.908   0.000  -0.000
 -0.000   4.036   0.000   0.000  -0.000   0.000   2.901   0.000
  0.000   0.000   4.027  -0.000   0.012  -0.000   0.000   2.907
  0.000   0.000  -0.000   4.013  -0.000  -0.000   0.000   0.000
  0.000  -0.000   0.012  -0.000   4.028   0.000   0.000  -0.007
 -0.000  -0.000   0.000   0.000  -0.002   0.000   0.000  -0.002
  0.000   0.000  -0.002  -0.000  -0.005  -0.000  -0.000   0.002
 -0.000  -0.000   0.000  -0.000  -0.000  -0.000   0.006  -0.000
 -0.000   0.000   0.000  -0.000   0.000   0.000   0.000   0.006
  0.000  -0.000  -0.000   0.000  -0.000   0.000   0.000   0.000
 -0.000   0.006  -0.000   0.000  -0.000   0.000  -0.018   0.000
  0.000   0.000   0.006  -0.000  -0.001  -0.000  -0.000  -0.021
  0.000   0.000   0.000   0.004  -0.000  -0.000  -0.000  -0.000
 total augmentation occupancy for first ion, spin component:           1
  2.001   0.000  -0.000   0.000  -0.000   0.008   0.000  -0.000   0.000   0.000  -0.000  -0.000   0.000  -0.000   0.000  -0.000
  0.000   2.000   0.000   0.000  -0.000   0.000   0.005   0.000   0.000  -0.000  -0.000  -0.000   0.015   0.000   0.000  -0.001
 -0.000   0.000   2.001   0.000  -0.002  -0.000   0.000   0.008   0.000  -0.004  -0.001  -0.000   0.000   0.018   0.000  -0.000
  0.000   0.000   0.000   2.000   0.000   0.000   0.000   0.000   0.006   0.000  -0.000  -0.000   0.000   0.000   0.007  -0.000
 -0.000  -0.000  -0.002   0.000   2.002   0.000  -0.000  -0.004   0.000   0.009   0.004   0.001  -0.000  -0.005   0.000   0.000
  0.008   0.000  -0.000   0.000   0.000   0.020   0.000  -0.000   0.000   0.000  -0.000   0.000   0.000  -0.000   0.000   0.000
  0.000   0.005   0.000   0.000  -0.000   0.000   0.015   0.000   0.000  -0.000  -0.000  -0.000   0.066   0.000   0.000   0.001
 -0.000   0.000   0.008   0.000  -0.004  -0.000   0.000   0.009   0.000   0.000  -0.019  -0.000   0.000   0.060   0.000   0.000
  0.000   0.000   0.000   0.006   0.000   0.000   0.000   0.000   0.013   0.000  -0.000  -0.000   0.000   0.000   0.055   0.000
  0.000  -0.000  -0.004   0.000   0.009   0.000  -0.000   0.000   0.000   0.010   0.043  -0.000  -0.000  -0.014   0.000  -0.000
 -0.000  -0.000  -0.001  -0.000   0.004  -0.000  -0.000  -0.019  -0.000   0.043   1.690   0.016  -0.000  -0.071  -0.000   0.000
 -0.000  -0.000  -0.000  -0.000   0.001   0.000  -0.000  -0.000  -0.000  -0.000   0.016   0.001   0.000   0.010   0.000   0.000
  0.000   0.015   0.000   0.000  -0.000   0.000   0.066   0.000   0.000  -0.000  -0.000   0.000   0.596   0.000   0.000   0.009
 -0.000   0.000   0.018   0.000  -0.005  -0.000   0.000   0.060   0.000  -0.014  -0.071   0.010   0.000   0.798   0.000   0.000
  0.000   0.000   0.000   0.007   0.000   0.000   0.000   0.000   0.055   0.000  -0.000   0.000   0.000   0.000   0.874   0.000
 -0.000  -0.001  -0.000  -0.000   0.000   0.000   0.001   0.000   0.000  -0.000   0.000   0.000   0.009   0.000   0.000   0.000
  0.000  -0.000  -0.001  -0.000  -0.000  -0.000   0.000   0.001   0.000  -0.000   0.001   0.000   0.000   0.009   0.000   0.000
 -0.000  -0.000  -0.000  -0.001  -0.000   0.000   0.000   0.000   0.001   0.000   0.000   0.000   0.000   0.000   0.011   0.000


------------------------ aborting loop because EDIFF is reached ----------------------------------------


    CHARGE:  cpu time      0.0357: real time      0.0357
    FORLOC:  cpu time      0.0011: real time      0.0011
    FORNL :  cpu time      0.4024: real time      0.4025
    STRESS:  cpu time      1.5176: real time      1.5178
    FORCOR:  cpu time      0.0184: real time      0.0185
    FORHAR:  cpu time      0.0042: real time      0.0042
    MIXING:  cpu time      0.0011: real time      0.0011
    OFIELD:  cpu time      0.0000: real time      0.0000

  FORCE on cell =-STRESS in cart. coord.  units (eV):
  Direction    XX          YY          ZZ          XY          YZ          ZX
  --------------------------------------------------------------------------------------
  Alpha Z    92.03755    92.03755    92.03755
  Ewald   22007.60572 20059.60110-26592.76017     0.00000    -0.00000     0.00000
  Hartree 25033.04590 23461.47150-21307.31828    -0.00000    -0.00000    -0.00000
  E(xc)    -585.30640  -587.11807  -587.66081    -0.00000    -0.00000     0.00000
  Local  -48456.39481-44894.14349 46532.08881    -0.00000     0.00000    -0.00000
  n-local   -99.48305   -55.11213   -71.80736    -0.78318     0.00000    -0.00000
  augment   559.82050   536.63548   541.40576     0.00000     0.00000    -0.00000
  Kinetic  1441.59675  1371.06872  1389.42126     0.62768    -0.00000    -0.00000
  Fock        0.00000     0.00000     0.00000     0.00000     0.00000     0.00000
  -------------------------------------------------------------------------------------
  Total      -7.07785   -15.55935    -4.59324    -0.00000    -0.00000    -0.00000
  in kB     -12.78111   -28.09693    -8.29443    -0.00000    -0.00000    -0.00000
  external pressure =      -16.39 kB  Pullay stress =        0.00 kB


 VOLUME and BASIS-vectors are now :
 -----------------------------------------------------------------------------
  energy-cutoff  :      520.00
  volume of cell :      887.24
      direct lattice vectors                 reciprocal lattice vectors
     5.606951968  0.000000000  0.000000000     0.178350021 -0.000000000 -0.000000000
     0.000000000  8.241706534  0.000000000     0.000000000  0.121334095 -0.000000000
     0.000000000  0.000000000 19.199904855     0.000000000  0.000000000  0.052083591

  length of vectors
     5.606951968  8.241706534 19.199904855     0.178350021  0.121334095  0.052083591


 FORCES acting on ions
    electron-ion (+dipol)            ewald-force                    non-local-force                 convergence-correction
 -----------------------------------------------------------------------------------------------
   0.116E-13 -.665E-13 0.126E+04   -.100E-13 -.241E-14 -.127E+04   0.979E-16 0.979E-16 0.626E+01   -.901E-14 -.789E-13 -.173E-03
   0.192E-14 0.966E-12 0.118E+04   0.935E-14 -.423E-13 -.117E+04   -.821E-16 -.821E-16 -.525E+01   -.706E-14 0.118E-12 -.153E-03
   0.363E-12 0.552E-13 0.118E+04   -.761E-14 0.483E-14 -.117E+04   -.862E-16 -.862E-16 -.552E+01   -.307E-13 -.269E-13 -.272E-03
   0.382E-12 0.109E-11 0.118E+04   0.178E-13 0.280E-13 -.117E+04   -.747E-16 -.747E-16 -.478E+01   -.380E-13 0.104E-12 -.422E-03
   -.661E-14 -.552E-13 -.863E+03   -.627E-13 -.144E-13 0.865E+03   -.137E-16 -.137E-16 -.875E+00   0.175E-13 -.833E-13 -.102E-02
   -.712E-14 0.800E-12 -.849E+03   -.383E-13 0.146E-13 0.849E+03   -.121E-17 -.121E-17 -.776E-01   0.325E-13 0.387E-14 -.458E-03
   0.419E-12 0.193E-12 -.856E+03   -.696E-14 -.144E-13 0.855E+03   0.155E-16 0.155E-16 0.991E+00   -.765E-14 -.765E-13 -.172E-02
   0.405E-12 0.130E-11 -.848E+03   -.522E-13 0.389E-15 0.848E+03   0.108E-16 0.108E-16 0.690E+00   0.248E-14 0.159E-13 -.473E-03
   -.445E+00 0.557E+00 0.485E+02   0.103E+01 0.408E+00 -.482E+02   -.432E+00 -.949E+00 -.718E+00   0.383E-04 -.107E-03 -.192E-03
   -.445E+00 -.557E+00 0.485E+02   0.103E+01 -.408E+00 -.482E+02   -.432E+00 0.949E+00 -.718E+00   0.383E-04 0.107E-03 -.192E-03
   0.445E+00 0.557E+00 0.485E+02   -.103E+01 0.408E+00 -.482E+02   0.432E+00 -.949E+00 -.718E+00   -.383E-04 -.107E-03 -.192E-03
   0.445E+00 -.557E+00 0.485E+02   -.103E+01 -.408E+00 -.482E+02   0.432E+00 0.949E+00 -.718E+00   -.383E-04 0.107E-03 -.192E-03
   0.387E+00 0.157E+01 -.395E+03   -.291E+00 -.139E+01 0.390E+03   -.140E+00 -.262E+00 0.420E+01   -.424E-04 0.103E-04 -.142E-03
   0.387E+00 -.157E+01 -.395E+03   -.291E+00 0.139E+01 0.390E+03   -.140E+00 0.262E+00 0.420E+01   -.424E-04 -.103E-04 -.142E-03
   -.387E+00 0.157E+01 -.395E+03   0.291E+00 -.139E+01 0.390E+03   0.140E+00 -.262E+00 0.420E+01   0.424E-04 0.103E-04 -.142E-03
   -.387E+00 -.157E+01 -.395E+03   0.291E+00 0.139E+01 0.390E+03   0.140E+00 0.262E+00 0.420E+01   0.424E-04 -.103E-04 -.142E-03
 -----------------------------------------------------------------------------------------------
   0.164E-11 0.369E-11 -.536E+01   -.150E-14 0.266E-14 0.000E+00   0.555E-16 0.111E-15 0.537E+01   -.399E-13 -.183E-13 -.603E-02
 
 
 POSITION                                       TOTAL-FORCE (eV/Angst)
 -----------------------------------------------------------------------------------
      0.00000      0.00000      7.50000        -0.000000     -0.000000     -0.412428
      0.00000      4.12085      7.50000         0.000000      0.000000      0.266615
      2.80348      0.00000      7.50000         0.000000      0.000000      0.870987
      2.80348      4.12085      7.50000         0.000000      0.000000      0.906959
      0.00000      0.00000     10.30348         0.000000      0.000000      0.594556
      0.00000      4.12085     10.30348        -0.000000     -0.000000     -0.097592
      2.80348      0.00000     10.30348         0.000000      0.000000      0.165977
      2.80348      4.12085     10.30348         0.000000      0.000000      0.626869
      1.40705      2.07750      8.90705         0.151874      0.016749     -0.367704
      1.40705      6.16421      8.90705         0.151874     -0.016749     -0.367704
      4.19990      2.07750      8.90705        -0.151874      0.016749     -0.367704
      4.19990      6.16421      8.90705        -0.151874     -0.016749     -0.367704
      1.40705      2.07750     11.69990        -0.043233     -0.079936     -0.362782
      1.40705      6.16421     11.69990        -0.043233      0.079936     -0.362782
      4.19990      2.07750     11.69990         0.043233     -0.079936     -0.362782
      4.19990      6.16421     11.69990         0.043233      0.079936     -0.362782
 -----------------------------------------------------------------------------------
    total drift:                                0.000000      0.000000      0.004276


--------------------------------------------------------------------------------------------------------



  FREE ENERGIE OF THE ION-ELECTRON SYSTEM (eV)
  ---------------------------------------------------
  free  energy   TOTEN  =       -83.11908439 eV

  energy  without entropy=      -83.11998957  energy(sigma->0) =      -83.11938612
 


--------------------------------------------------------------------------------------------------------


    POTLOK:  cpu time      0.0205: real time      0.0205


--------------------------------------------------------------------------------------------------------


 writing wavefunctions
     LOOP+:  cpu time     70.3375: real time     70.3489
    4ORBIT:  cpu time      0.0000: real time      0.0000

 total amount of memory used by VASP MPI-rank0   112658. kBytes
=======================================================================

   base                                    :      30000. kBytes
   nonl-proj                               :      68352. kBytes
   fftplans                                :       1402. kBytes
   grid                                    :       7999. kBytes
   one-center                              :        248. kBytes
   wavefun                                 :       4657. kBytes
 
  
  
 General timing and accounting informations for this job:
 ========================================================
  
                  Total CPU time used (sec):       74.081
                            User time (sec):       70.905
                          System time (sec):        3.176
                         Elapsed time (sec):       74.345
  
                   Maximum memory used (kb):      311296.
                   Average memory used (kb):          N/A
  
                          Minor page faults:        46286
                          Major page faults:           20
                 Voluntary context switches:          152
