<?xml version="1.0" encoding="ISO-8859-1"?>
<modeling>
 <generator>
  <i name="program" type="string">vasp </i>
  <i name="version" type="string">6.5.0  </i>
  <i name="subversion" type="string">16Dec24 (build Apr 17 2025 17:55:45) complex                          parallel </i>
  <i name="platform" type="string">LinuxIFC </i>
  <i name="date" type="string">2025 06 10 </i>
  <i name="time" type="string">15:01:50 </i>
 </generator>
 <incar>
  <i type="int" name="ISTART">     0</i>
  <i type="string" name="PREC">N</i>
  <i type="string" name="ALGO">N</i>
  <i type="int" name="ICHARG">     2</i>
  <i type="int" name="NELM">   500</i>
  <i type="int" name="IBRION">    -1</i>
  <i name="EDIFF">      0.00001000</i>
  <i name="EDIFFG">     -0.01000000</i>
  <i type="int" name="NSW">     0</i>
  <i type="int" name="ISIF">     3</i>
  <i name="ENCUT">    520.00000000</i>
  <i type="logical" name="LREAL"> F  </i>
  <i type="int" name="ISMEAR">     1</i>
  <i name="SIGMA">      0.10000000</i>
  <i type="logical" name="LVTOT"> T  </i>
  <i type="logical" name="LVHAR"> T  </i>
 </incar>
 <primitive_cell>
  <structure name="primitive_cell" >
   <crystal>
    <varray name="basis" >
     <v>       5.60695197       0.00000000       0.00000000 </v>
     <v>       0.00000000       8.24170653       0.00000000 </v>
     <v>       0.00000000       0.00000000      19.19990485 </v>
    </varray>
    <i name="volume">    887.24397461 </i>
    <varray name="rec_basis" >
     <v>       0.17835002      -0.00000000      -0.00000000 </v>
     <v>       0.00000000       0.12133409      -0.00000000 </v>
     <v>       0.00000000       0.00000000       0.05208359 </v>
    </varray>
   </crystal>
   <varray name="positions" >
    <v>       0.00000000       1.00000000       0.39062694 </v>
    <v>       0.00000000       0.50000000       0.39062694 </v>
    <v>       0.50000000       1.00000000       0.39062694 </v>
    <v>       0.50000000       0.50000000       0.39062694 </v>
    <v>       0.00000000       1.00000000       0.53664203 </v>
    <v>       0.00000000       0.50000000       0.53664203 </v>
    <v>       0.50000000       1.00000000       0.53664203 </v>
    <v>       0.50000000       0.50000000       0.53664203 </v>
    <v>       0.25094688       0.25207123       0.46391100 </v>
    <v>       0.25094688       0.74792877       0.46391100 </v>
    <v>       0.74905312       0.25207123       0.46391100 </v>
    <v>       0.74905312       0.74792877       0.46391100 </v>
    <v>       0.25094688       0.25207123       0.60937306 </v>
    <v>       0.25094688       0.74792877       0.60937306 </v>
    <v>       0.74905312       0.25207123       0.60937306 </v>
    <v>       0.74905312       0.74792877       0.60937306 </v>
   </varray>
  </structure>
  <varray name="primitive_index" >
   <v type="int" >        1 </v>
   <v type="int" >        2 </v>
   <v type="int" >        3 </v>
   <v type="int" >        4 </v>
   <v type="int" >        5 </v>
   <v type="int" >        6 </v>
   <v type="int" >        7 </v>
   <v type="int" >        8 </v>
   <v type="int" >        9 </v>
   <v type="int" >       10 </v>
   <v type="int" >       11 </v>
   <v type="int" >       12 </v>
   <v type="int" >       13 </v>
   <v type="int" >       14 </v>
   <v type="int" >       15 </v>
   <v type="int" >       16 </v>
  </varray>
 </primitive_cell>
 <kpoints>
  <generation param="Gamma">
   <v type="int" name="divisions">       4        3        1 </v>
   <v name="usershift">      0.00000000       0.00000000       0.00000000 </v>
   <v name="genvec1">      0.25000000       0.00000000       0.00000000 </v>
   <v name="genvec2">      0.00000000       0.33333333      -0.00000000 </v>
   <v name="genvec3">      0.00000000       0.00000000       1.00000000 </v>
   <v name="shift">      0.00000000       0.00000000       0.00000000 </v>
  </generation>
  <varray name="kpointlist" >
   <v>       0.00000000       0.00000000       0.00000000 </v>
   <v>       0.25000000       0.00000000       0.00000000 </v>
   <v>       0.50000000       0.00000000       0.00000000 </v>
   <v>       0.00000000       0.33333333       0.00000000 </v>
   <v>       0.25000000       0.33333333       0.00000000 </v>
   <v>       0.50000000       0.33333333       0.00000000 </v>
  </varray>
  <varray name="weights" >
   <v>       0.08333333 </v>
   <v>       0.16666667 </v>
   <v>       0.08333333 </v>
   <v>       0.16666667 </v>
   <v>       0.33333333 </v>
   <v>       0.16666667 </v>
  </varray>
 </kpoints>
 <parameters>
  <separator name="general" >
   <i type="string" name="SYSTEM">unknown system</i>
   <i type="logical" name="LCOMPAT"> F  </i>
  </separator>
  <separator name="electronic" >
   <i type="string" name="PREC">n</i>
   <i name="ENMAX">    520.00000000</i>
   <i name="ENAUG">    490.69000000</i>
   <i name="EDIFF">      0.00001000</i>
   <i type="int" name="IALGO">    38</i>
   <i type="int" name="IWAVPR">    10</i>
   <i type="int" name="NBANDS">   128</i>
   <i type="int" name="NBANDSLOW">    -1</i>
   <i type="int" name="NBANDSHIGH">    -1</i>
   <i name="NELECT">    121.00000000</i>
   <i type="int" name="TURBO">     0</i>
   <i type="int" name="IRESTART">     0</i>
   <i type="int" name="NREBOOT">     0</i>
   <i type="int" name="NMIN">     0</i>
   <i name="EREF">      0.00000000</i>
   <separator name="electronic smearing" >
    <i type="int" name="ISMEAR">     1</i>
    <i name="SIGMA">      0.10000000</i>
    <i name="KSPACING">      0.50000000</i>
    <i type="logical" name="KGAMMA"> T  </i>
    <i type="logical" name="KBLOWUP"> T  </i>
   </separator>
   <separator name="electronic projectors" >
    <i type="logical" name="LREAL"> F  </i>
    <v name="ROPT">      0.00000000      0.00000000      0.00000000</v>
    <i type="int" name="LMAXPAW">  -100</i>
    <i type="int" name="LMAXMIX">     2</i>
    <i type="logical" name="NLSPLINE"> F  </i>
   </separator>
   <separator name="electronic startup" >
    <i type="int" name="ISTART">     0</i>
    <i type="int" name="ICHARG">     2</i>
    <i type="int" name="INIWAV">     1</i>
   </separator>
   <separator name="electronic spin" >
    <i type="int" name="ISPIN">     1</i>
    <i type="logical" name="LNONCOLLINEAR"> F  </i>
    <v name="MAGMOM">      1.00000000      1.00000000      1.00000000      1.00000000      1.00000000      1.00000000      1.00000000      1.00000000      1.00000000      1.00000000      1.00000000      1.00000000      1.00000000      1.00000000      1.00000000      1.00000000</v>
    <i name="NUPDOWN">     -1.00000000</i>
    <i type="logical" name="LSORBIT"> F  </i>
    <v name="SAXIS">      0.00000000      0.00000000      1.00000000</v>
    <i type="logical" name="LSPIRAL"> F  </i>
    <v name="QSPIRAL">      0.00000000      0.00000000      0.00000000</v>
    <i type="logical" name="LZEROZ"> F  </i>
   </separator>
   <separator name="electronic exchange-correlation" >
    <i type="logical" name="LASPH"> F  </i>
   </separator>
   <separator name="electronic convergence" >
    <i type="int" name="NELM">   500</i>
    <i type="int" name="NELMDL">    -5</i>
    <i type="int" name="NELMIN">     2</i>
    <i name="ENINI">    520.00000000</i>
    <separator name="electronic convergence detail" >
     <i type="logical" name="LDIAG"> T  </i>
     <i type="logical" name="LSUBROT"> F  </i>
     <i name="WEIMIN">      0.00000000</i>
     <i name="EBREAK">      0.00000002</i>
     <i name="DEPER">      0.30000000</i>
     <i type="int" name="NRMM">     4</i>
     <i name="TIME">      0.40000000</i>
    </separator>
   </separator>
   <separator name="electronic mixer" >
    <i name="AMIX">      0.40000000</i>
    <i name="BMIX">      1.00000000</i>
    <i name="AMIN">      0.10000000</i>
    <i name="AMIX_MAG">      1.60000000</i>
    <i name="BMIX_MAG">      1.00000000</i>
    <separator name="electronic mixer details" >
     <i type="int" name="IMIX">     4</i>
     <i type="logical" name="MIXFIRST"> F  </i>
     <i type="int" name="MAXMIX">   -45</i>
     <i name="WC">    100.00000000</i>
     <i type="int" name="INIMIX">     1</i>
     <i type="int" name="MIXPRE">     1</i>
     <i type="int" name="MREMOVE">     5</i>
    </separator>
   </separator>
   <separator name="electronic dipolcorrection" >
    <i type="logical" name="LDIPOL"> F  </i>
    <i type="logical" name="LMONO"> F  </i>
    <i type="int" name="IDIPOL">     0</i>
    <i name="EPSILON">      1.00000000</i>
    <v name="DIPOL">   -100.00000000   -100.00000000   -100.00000000</v>
    <i name="EFIELD">      0.00000000</i>
    <i type="logical" name="LVACPOTAV"> F  </i>
   </separator>
  </separator>
  <separator name="grids" >
   <i type="int" name="NGX">    32</i>
   <i type="int" name="NGY">    48</i>
   <i type="int" name="NGZ">   108</i>
   <i type="int" name="NGXF">    64</i>
   <i type="int" name="NGYF">    96</i>
   <i type="int" name="NGZF">   216</i>
   <i type="logical" name="ADDGRID"> F  </i>
  </separator>
  <separator name="ionic" >
   <i type="int" name="NSW">     0</i>
   <i type="int" name="IBRION">    -1</i>
   <i type="int" name="MDALGO">     0</i>
   <i type="int" name="ISIF">     3</i>
   <i name="PSTRESS">      0.00000000</i>
   <i name="EDIFFG">     -0.01000000</i>
   <i type="int" name="NFREE">     0</i>
   <i name="POTIM">      0.50000000</i>
   <i name="SMASS">     -3.00000000</i>
   <i name="SCALEE">      1.00000000</i>
  </separator>
  <separator name="ionic md" >
   <i name="TEBEG">      0.00010000</i>
   <i name="TEEND">      0.00010000</i>
   <i type="int" name="NBLOCK">     1</i>
   <i type="int" name="KBLOCK">     1</i>
   <i type="int" name="NPACO">   256</i>
   <i name="APACO">     10.00000000</i>
  </separator>
  <separator name="symmetry" >
   <i type="int" name="ISYM">     2</i>
   <i name="SYMPREC">      0.00001000</i>
  </separator>
  <separator name="dos" >
   <i type="int" name="LORBIT">     0</i>
   <v name="RWIGS">     -1.00000000     -1.00000000     -1.00000000</v>
   <i type="int" name="NEDOS">   301</i>
   <i name="EMIN">     10.00000000</i>
   <i name="EMAX">    -10.00000000</i>
   <i name="EFERMI">      0.00000000</i>
  </separator>
  <separator name="writing" >
   <i type="int" name="NWRITE">     2</i>
   <i type="logical" name="LWAVE"> T  </i>
   <i type="logical" name="LDOWNSAMPLE"> F  </i>
   <i type="logical" name="LCHARG"> T  </i>
   <i type="logical" name="LPARD"> F  </i>
   <i type="logical" name="LVTOT"> F  </i>
   <i type="logical" name="LVHAR"> T  </i>
   <i type="logical" name="LELF"> F  </i>
   <i type="logical" name="LOPTICS"> F  </i>
   <v name="STM">      0.00000000      0.00000000      0.00000000      0.00000000      0.00000000      0.00000000      0.00000000</v>
  </separator>
  <separator name="performance" >
   <i type="int" name="NPAR">    64</i>
   <i type="int" name="NSIM">     4</i>
   <i type="int" name="NBLK">    -1</i>
   <i type="logical" name="LPLANE"> T  </i>
   <i type="logical" name="LSCALAPACK"> T  </i>
   <i type="logical" name="LSCAAWARE"> F  </i>
   <i type="logical" name="LSCALU"> F  </i>
   <i type="logical" name="LASYNC"> F  </i>
   <i type="logical" name="LORBITALREAL"> F  </i>
  </separator>
  <separator name="miscellaneous" >
   <i type="int" name="IDIOT">     3</i>
   <i type="int" name="PHON_NSTRUCT">    -1</i>
   <i type="logical" name="LMUSIC"> F  </i>
   <v name="POMASS">     69.72300000     47.88000000     26.98100000</v>
   <v name="DARWINR">      0.00000000      0.00000000      0.00000000</v>
   <v name="DARWINV">      1.00000000      1.00000000      1.00000000</v>
   <i type="logical" name="LCORR"> T  </i>
  </separator>
  <i type="logical" name="GGA_COMPAT"> T  </i>
  <i type="logical" name="LBERRY"> F  </i>
  <i type="int" name="ICORELEVEL">     0</i>
  <i type="logical" name="LDAU"> F  </i>
  <i type="int" name="I_CONSTRAINED_M">     0</i>
  <separator name="electronic exchange-correlation" >
   <i type="string" name="GGA    ">PE</i>
   <i type="string" name="XC_C">1</i>
   <i type="int" name="VOSKOWN">     0</i>
   <i type="logical" name="LHFCALC"> F  </i>
   <i type="string" name="PRECFOCK"></i>
   <i type="logical" name="LSYMGRAD"> F  </i>
   <i type="logical" name="LHFONE"> F  </i>
   <i type="logical" name="LRHFCALC"> F  </i>
   <i type="logical" name="LTHOMAS"> F  </i>
   <i type="logical" name="LMODELHF"> F  </i>
   <i type="logical" name="LFOCKACE"> F  </i>
   <i name="ENCUT4O">     -1.00000000</i>
   <i type="int" name="EXXOEP">     0</i>
   <i type="int" name="FOURORBIT">     0</i>
   <i name="AEXX">      0.00000000</i>
   <i name="HFALPHA">      0.00000000</i>
   <i name="MCALPHA">      0.00000000</i>
   <i name="ALDAX">      1.00000000</i>
   <i name="AGGAX">      1.00000000</i>
   <i name="AMGGAX">      1.00000000</i>
   <i name="ALDAC">      1.00000000</i>
   <i name="AGGAC">      1.00000000</i>
   <i name="AMGGAC">      1.00000000</i>
   <i type="int" name="NKREDX">     1</i>
   <i type="int" name="NKREDY">     1</i>
   <i type="int" name="NKREDZ">     1</i>
   <i type="logical" name="SHIFTRED"> F  </i>
   <i type="logical" name="ODDONLY"> F  </i>
   <i type="logical" name="EVENONLY"> F  </i>
   <i type="int" name="LMAXFOCK">     0</i>
   <i type="int" name="NMAXFOCKAE">     0</i>
   <i type="logical" name="LFOCKAEDFT"> F  </i>
   <i name="HFSCREEN">      0.00000000</i>
   <i name="HFSCREENC">      0.00000000</i>
   <i type="int" name="NBANDSGWLOW">     0</i>
  </separator>
  <separator name="vdW DFT" >
   <i type="logical" name="LUSE_VDW"> F  </i>
   <i type="int" name="IVDW_NL">    -1</i>
   <i type="logical" name="LSPIN_VDW"> F  </i>
   <i name="ZAB_VDW">     -0.84910000</i>
   <i name="GAMMA_VDW">      1.39626340</i>
   <i name="ALPHA_VDW">      0.00000000</i>
   <i name="PARAM1">      0.12340000</i>
   <i name="PARAM2">      1.00000000</i>
   <i name="BPARAM">      6.30000000</i>
   <i name="CPARAM">      0.00930000</i>
  </separator>
  <separator name="model GW" >
   <i type="int" name="MODEL_GW">     0</i>
   <i name="MODEL_EPS0">     33.27164905</i>
   <i name="MODEL_ALPHA">      1.00000000</i>
  </separator>
  <separator name="linear response parameters" >
   <i type="logical" name="LEPSILON"> F  </i>
   <i type="logical" name="LRPA"> F  </i>
   <i type="logical" name="LNABLA"> F  </i>
   <i type="logical" name="LVEL"> F  </i>
   <i name="CSHIFT">      0.10000000</i>
   <i name="OMEGAMAX">     -1.00000000</i>
   <i name="DEG_THRESHOLD">      0.00200000</i>
   <i name="RTIME">     -0.10000000</i>
   <i name="WPLASMAI">      0.00000000</i>
   <v name="DFIELD">      0.00000000      0.00000000      0.00000000</v>
   <v name="WPLASMA">      0.00000000      0.00000000      0.00000000      0.00000000      0.00000000      0.00000000      0.00000000      0.00000000      0.00000000</v>
  </separator>
  <separator name="orbital magnetization" >
   <i type="logical" name="NUCIND"> F  </i>
   <v name="MAGPOS">      0.00000000      0.00000000      0.00000000</v>
   <i type="logical" name="LNICSALL"> T  </i>
   <i type="logical" name="ORBITALMAG"> F  </i>
   <i type="logical" name="LMAGBLOCH"> F  </i>
   <i type="logical" name="LCHIMAG"> F  </i>
   <i type="logical" name="LGAUGE"> T  </i>
   <i type="int" name="MAGATOM">     0</i>
   <v name="MAGDIPOL">      0.00000000      0.00000000      0.00000000</v>
   <v name="AVECCONST">      0.00000000      0.00000000      0.00000000</v>
  </separator>
  <separator name="response functions" >
   <i type="logical" name="LALL_IN_ONE"> F  </i>
   <i type="int" name="IALL_IN_ONE">    -1</i>
   <i type="int" name="NBANDS_WAVE">    -1</i>
   <i type="logical" name="LFINITE_TEMPERATURE"> F  </i>
   <i type="logical" name="LADDER"> F  </i>
   <i type="logical" name="LRPAFORCE"> F  </i>
   <i type="logical" name="LFXC"> F  </i>
   <i type="logical" name="LHARTREE"> T  </i>
   <i type="int" name="IBSE">     2</i>
   <v type="int" name="KPOINT">    -1     0     0     0</v>
   <i type="logical" name="LTCTC"> F  </i>
   <i type="logical" name="LTCTE"> F  </i>
   <i type="logical" name="LTETE"> F  </i>
   <i type="logical" name="LTRIPLET"> F  </i>
   <i type="logical" name="LFXCEPS"> F  </i>
   <i type="logical" name="LFXHEG"> F  </i>
   <i type="int" name="NATURALO">     2</i>
   <i type="logical" name="LHOLEGF"> F  </i>
   <i type="logical" name="L2ORDER"> F  </i>
   <i type="logical" name="LDMP1"> F  </i>
   <i type="logical" name="LMP2LT"> F  </i>
   <i type="logical" name="LSMP2LT"> F  </i>
   <i type="logical" name="LGWLF"> F  </i>
   <i name="ENCUTGW">     -1.60000002</i>
   <i name="ENCUTGWSOFT">     -1.60000002</i>
   <i name="ENCUTLF">     -1.00000000</i>
   <i type="logical" name="ESF_SPLINES"> F  </i>
   <i name="ESF_CONV">      0.01000000</i>
   <i type="int" name="ESF_NINTER">    15</i>
   <i type="int" name="LMAXMP2">    -1</i>
   <i name="SCISSOR">      0.00000000</i>
   <i type="int" name="NOMEGA">     0</i>
   <i type="int" name="NOMEGAR">     0</i>
   <i type="int" name="NBANDSGW">    -1</i>
   <i type="int" name="NBANDSO">    -1</i>
   <i type="int" name="NBANDSV">    -1</i>
   <i type="int" name="NELMGW">     1</i>
   <i type="int" name="NELMHF">     1</i>
   <i type="int" name="DIM">     3</i>
   <i type="int" name="IESPILON">     4</i>
   <i type="int" name="ANTIRES">     0</i>
   <i name="OMEGAMAX">    -30.00000000</i>
   <i name="OMEGAMIN">    -30.00000000</i>
   <i name="OMEGATL">   -200.00000000</i>
   <i type="int" name="OMEGAGRID">     0</i>
   <i name="CSHIFT">     -0.10000000</i>
   <i type="logical" name="LSELFENERGY"> F  </i>
   <i type="logical" name="LSPECTRAL"> F  </i>
   <i type="logical" name="LSPECTRALGW"> F  </i>
   <i type="logical" name="LSINGLES"> F  </i>
   <i type="logical" name="LFERMIGW"> F  </i>
   <i type="logical" name="ODDONLYGW"> F  </i>
   <i type="logical" name="EVENONLYGW"> F  </i>
   <i type="int" name="NKREDLFX">     1</i>
   <i type="int" name="NKREDLFY">     1</i>
   <i type="int" name="NKREDLFZ">     1</i>
   <i type="int" name="MAXMEM">  2800</i>
   <i type="int" name="TELESCOPE">     0</i>
   <i type="int" name="NTAUPAR">    -1</i>
   <i type="int" name="NOMEGAPAR">    -1</i>
   <i name="DAMP_NEWTON">      0.80000001</i>
   <i name="LAMBDA">      1.00000000</i>
  </separator>
  <separator name="External order field" >
   <i name="OFIELD_KAPPA">      0.00000000</i>
   <v name="OFIELD_K">      0.00000000      0.00000000      0.00000000</v>
   <i name="OFIELD_Q6_NEAR">      0.00000000</i>
   <i name="OFIELD_Q6_FAR">      0.00000000</i>
   <i name="OFIELD_A">      0.00000000</i>
  </separator>
  <separator name="optional k-points parameters" >
   <i type="int" name="KPOINTS_OPT_MODE">     1</i>
   <i type="logical" name="LKPOINTS_OPT"> F  </i>
  </separator>
 </parameters>
 <atominfo>
  <atoms>      16 </atoms>
  <types>       3 </types>
  <array name="atoms" >
   <dimension dim="1">ion</dimension>
   <field type="string">element</field>
   <field type="int">atomtype</field>
   <set>
    <rc><c>Ga</c><c>   1</c></rc>
    <rc><c>Ti</c><c>   2</c></rc>
    <rc><c>Ti</c><c>   2</c></rc>
    <rc><c>Ti</c><c>   2</c></rc>
    <rc><c>Ti</c><c>   2</c></rc>
    <rc><c>Ti</c><c>   2</c></rc>
    <rc><c>Ti</c><c>   2</c></rc>
    <rc><c>Ti</c><c>   2</c></rc>
    <rc><c>Al</c><c>   3</c></rc>
    <rc><c>Al</c><c>   3</c></rc>
    <rc><c>Al</c><c>   3</c></rc>
    <rc><c>Al</c><c>   3</c></rc>
    <rc><c>Al</c><c>   3</c></rc>
    <rc><c>Al</c><c>   3</c></rc>
    <rc><c>Al</c><c>   3</c></rc>
    <rc><c>Al</c><c>   3</c></rc>
   </set>
  </array>
  <array name="atomtypes" >
   <dimension dim="1">type</dimension>
   <field type="int">atomspertype</field>
   <field type="string">element</field>
   <field>mass</field>
   <field>valence</field>
   <field type="string">pseudopotential</field>
   <set>
    <rc><c>   1</c><c>Ga</c><c>     69.72300000</c><c>     13.00000000</c><c>  PAW_PBE Ga_d 06Jul2010                </c></rc>
    <rc><c>   7</c><c>Ti</c><c>     47.88000000</c><c>     12.00000000</c><c>  PAW_PBE Ti_sv 26Sep2005               </c></rc>
    <rc><c>   8</c><c>Al</c><c>     26.98100000</c><c>      3.00000000</c><c>  PAW_PBE Al 04Jan2001                  </c></rc>
   </set>
  </array>
 </atominfo>
 <structure name="initialpos" >
  <crystal>
   <varray name="basis" >
    <v>       5.60695197       0.00000000       0.00000000 </v>
    <v>       0.00000000       8.24170653       0.00000000 </v>
    <v>       0.00000000       0.00000000      19.19990485 </v>
   </varray>
   <i name="volume">    887.24397461 </i>
   <varray name="rec_basis" >
    <v>       0.17835002      -0.00000000      -0.00000000 </v>
    <v>       0.00000000       0.12133409      -0.00000000 </v>
    <v>       0.00000000       0.00000000       0.05208359 </v>
   </varray>
  </crystal>
  <varray name="positions" >
   <v>       0.00000000       0.00000000       0.39062694 </v>
   <v>       0.00000000       0.50000000       0.39062694 </v>
   <v>       0.50000000       0.00000000       0.39062694 </v>
   <v>       0.50000000       0.50000000       0.39062694 </v>
   <v>       0.00000000       0.00000000       0.53664203 </v>
   <v>       0.00000000       0.50000000       0.53664203 </v>
   <v>       0.50000000       0.00000000       0.53664203 </v>
   <v>       0.50000000       0.50000000       0.53664203 </v>
   <v>       0.25094688       0.25207123       0.46391100 </v>
   <v>       0.25094688       0.74792877       0.46391100 </v>
   <v>       0.74905312       0.25207123       0.46391100 </v>
   <v>       0.74905312       0.74792877       0.46391100 </v>
   <v>       0.25094688       0.25207123       0.60937306 </v>
   <v>       0.25094688       0.74792877       0.60937306 </v>
   <v>       0.74905312       0.25207123       0.60937306 </v>
   <v>       0.74905312       0.74792877       0.60937306 </v>
  </varray>
 </structure>
 <calculation>
  <scstep>
   <time name="dav">    1.45    1.45</time>
   <time name="total">    1.48    1.48</time>
   <energy>
    <i name="alphaZ">     92.03755193 </i>
    <i name="ewald">  15474.45623346 </i>
    <i name="hartreedc"> -27108.24778145 </i>
    <i name="XCdc">    261.52267426 </i>
    <i name="pawpsdc">  10984.71331719 </i>
    <i name="pawaedc"> -10925.53584238 </i>
    <i name="eentropy">      0.00589133 </i>
    <i name="bandstr">  -1642.72583637 </i>
    <i name="atom">  13693.72977468 </i>
    <i name="e_fr_energy">    829.95598265 </i>
    <i name="e_wo_entrp">    829.95009132 </i>
    <i name="e_0_energy">    829.95401887 </i>
   </energy>
  </scstep>
  <scstep>
   <time name="dav">    1.75    1.75</time>
   <time name="total">    1.75    1.75</time>
   <energy>
    <i name="e_fr_energy">     -5.56299039 </i>
    <i name="e_wo_entrp">     -5.55558138 </i>
    <i name="e_0_energy">     -5.56052072 </i>
   </energy>
  </scstep>
  <scstep>
   <time name="dav">    3.37    3.37</time>
   <time name="total">    3.37    3.37</time>
   <energy>
    <i name="e_fr_energy">    -96.90672363 </i>
    <i name="e_wo_entrp">    -96.91132161 </i>
    <i name="e_0_energy">    -96.90825629 </i>
   </energy>
  </scstep>
  <scstep>
   <time name="dav">    1.74    1.74</time>
   <time name="total">    1.74    1.74</time>
   <energy>
    <i name="e_fr_energy">   -101.13208838 </i>
    <i name="e_wo_entrp">   -101.13562765 </i>
    <i name="e_0_energy">   -101.13326814 </i>
   </energy>
  </scstep>
  <scstep>
   <time name="dav">    2.80    2.80</time>
   <time name="total">    2.84    2.84</time>
   <energy>
    <i name="e_fr_energy">   -101.35100199 </i>
    <i name="e_wo_entrp">   -101.35448447 </i>
    <i name="e_0_energy">   -101.35216281 </i>
   </energy>
  </scstep>
  <scstep>
   <time name="dav">    2.40    2.40</time>
   <time name="total">    2.46    2.46</time>
   <energy>
    <i name="e_fr_energy">   -121.83416067 </i>
    <i name="e_wo_entrp">   -121.83649350 </i>
    <i name="e_0_energy">   -121.83493828 </i>
   </energy>
  </scstep>
  <scstep>
   <time name="dav">    2.41    2.41</time>
   <time name="total">    2.47    2.47</time>
   <energy>
    <i name="e_fr_energy">    -95.49018677 </i>
    <i name="e_wo_entrp">    -95.48880204 </i>
    <i name="e_0_energy">    -95.48972519 </i>
   </energy>
  </scstep>
  <scstep>
   <time name="dav">    2.20    2.20</time>
   <time name="total">    2.26    2.26</time>
   <energy>
    <i name="e_fr_energy">    -87.83727774 </i>
    <i name="e_wo_entrp">    -87.83705054 </i>
    <i name="e_0_energy">    -87.83720201 </i>
   </energy>
  </scstep>
  <scstep>
   <time name="dav">    2.30    2.30</time>
   <time name="total">    2.35    2.35</time>
   <energy>
    <i name="e_fr_energy">    -85.98414516 </i>
    <i name="e_wo_entrp">    -85.97696535 </i>
    <i name="e_0_energy">    -85.98175189 </i>
   </energy>
  </scstep>
  <scstep>
   <time name="dav">    2.23    2.23</time>
   <time name="total">    2.29    2.29</time>
   <energy>
    <i name="e_fr_energy">    -83.95010794 </i>
    <i name="e_wo_entrp">    -83.94432761 </i>
    <i name="e_0_energy">    -83.94818117 </i>
   </energy>
  </scstep>
  <scstep>
   <time name="dav">    2.31    2.31</time>
   <time name="total">    2.36    2.36</time>
   <energy>
    <i name="e_fr_energy">    -83.50796272 </i>
    <i name="e_wo_entrp">    -83.50975131 </i>
    <i name="e_0_energy">    -83.50855892 </i>
   </energy>
  </scstep>
  <scstep>
   <time name="dav">    2.43    2.43</time>
   <time name="total">    2.49    2.49</time>
   <energy>
    <i name="e_fr_energy">    -83.37232960 </i>
    <i name="e_wo_entrp">    -83.35653691 </i>
    <i name="e_0_energy">    -83.36706537 </i>
   </energy>
  </scstep>
  <scstep>
   <time name="dav">    1.98    1.98</time>
   <time name="total">    2.04    2.04</time>
   <energy>
    <i name="e_fr_energy">    -83.17514467 </i>
    <i name="e_wo_entrp">    -83.18521103 </i>
    <i name="e_0_energy">    -83.17850012 </i>
   </energy>
  </scstep>
  <scstep>
   <time name="dav">    2.39    2.39</time>
   <time name="total">    2.45    2.45</time>
   <energy>
    <i name="e_fr_energy">    -83.19240250 </i>
    <i name="e_wo_entrp">    -83.19289550 </i>
    <i name="e_0_energy">    -83.19256683 </i>
   </energy>
  </scstep>
  <scstep>
   <time name="dav">    2.06    2.06</time>
   <time name="total">    2.11    2.11</time>
   <energy>
    <i name="e_fr_energy">    -83.12774558 </i>
    <i name="e_wo_entrp">    -83.12746118 </i>
    <i name="e_0_energy">    -83.12765078 </i>
   </energy>
  </scstep>
  <scstep>
   <time name="dav">    2.49    2.49</time>
   <time name="total">    2.55    2.55</time>
   <energy>
    <i name="e_fr_energy">    -83.14611076 </i>
    <i name="e_wo_entrp">    -83.15033358 </i>
    <i name="e_0_energy">    -83.14751836 </i>
   </energy>
  </scstep>
  <scstep>
   <time name="dav">    2.50    2.50</time>
   <time name="total">    2.56    2.56</time>
   <energy>
    <i name="e_fr_energy">    -83.11339571 </i>
    <i name="e_wo_entrp">    -83.11501224 </i>
    <i name="e_0_energy">    -83.11393455 </i>
   </energy>
  </scstep>
  <scstep>
   <time name="dav">    2.44    2.44</time>
   <time name="total">    2.50    2.50</time>
   <energy>
    <i name="e_fr_energy">    -83.11414338 </i>
    <i name="e_wo_entrp">    -83.11581486 </i>
    <i name="e_0_energy">    -83.11470054 </i>
   </energy>
  </scstep>
  <scstep>
   <time name="dav">    2.34    2.34</time>
   <time name="total">    2.39    2.39</time>
   <energy>
    <i name="e_fr_energy">    -83.11556635 </i>
    <i name="e_wo_entrp">    -83.11649269 </i>
    <i name="e_0_energy">    -83.11587513 </i>
   </energy>
  </scstep>
  <scstep>
   <time name="dav">    2.34    2.34</time>
   <time name="total">    2.40    2.40</time>
   <energy>
    <i name="e_fr_energy">    -83.11693807 </i>
    <i name="e_wo_entrp">    -83.11771190 </i>
    <i name="e_0_energy">    -83.11719602 </i>
   </energy>
  </scstep>
  <scstep>
   <time name="dav">    2.33    2.33</time>
   <time name="total">    2.39    2.39</time>
   <energy>
    <i name="e_fr_energy">    -83.11722303 </i>
    <i name="e_wo_entrp">    -83.11813869 </i>
    <i name="e_0_energy">    -83.11752825 </i>
   </energy>
  </scstep>
  <scstep>
   <time name="dav">    1.82    1.82</time>
   <time name="total">    1.88    1.88</time>
   <energy>
    <i name="e_fr_energy">    -83.11763469 </i>
    <i name="e_wo_entrp">    -83.11853551 </i>
    <i name="e_0_energy">    -83.11793496 </i>
   </energy>
  </scstep>
  <scstep>
   <time name="dav">    2.27    2.27</time>
   <time name="total">    2.33    2.33</time>
   <energy>
    <i name="e_fr_energy">    -83.11810255 </i>
    <i name="e_wo_entrp">    -83.11907974 </i>
    <i name="e_0_energy">    -83.11842828 </i>
   </energy>
  </scstep>
  <scstep>
   <time name="dav">    2.33    2.33</time>
   <time name="total">    2.39    2.39</time>
   <energy>
    <i name="e_fr_energy">    -83.11835807 </i>
    <i name="e_wo_entrp">    -83.11923763 </i>
    <i name="e_0_energy">    -83.11865126 </i>
   </energy>
  </scstep>
  <scstep>
   <time name="dav">    2.34    2.34</time>
   <time name="total">    2.39    2.39</time>
   <energy>
    <i name="e_fr_energy">    -83.11864068 </i>
    <i name="e_wo_entrp">    -83.11955630 </i>
    <i name="e_0_energy">    -83.11894589 </i>
   </energy>
  </scstep>
  <scstep>
   <time name="dav">    2.23    2.23</time>
   <time name="total">    2.29    2.29</time>
   <energy>
    <i name="e_fr_energy">    -83.11890160 </i>
    <i name="e_wo_entrp">    -83.11978336 </i>
    <i name="e_0_energy">    -83.11919552 </i>
   </energy>
  </scstep>
  <scstep>
   <time name="dav">    2.05    2.06</time>
   <time name="total">    2.12    2.12</time>
   <energy>
    <i name="e_fr_energy">    -83.11901644 </i>
    <i name="e_wo_entrp">    -83.11992164 </i>
    <i name="e_0_energy">    -83.11931817 </i>
   </energy>
  </scstep>
  <scstep>
   <time name="dav">    1.96    1.96</time>
   <time name="total">    2.03    2.03</time>
   <energy>
    <i name="e_fr_energy">    -83.11907463 </i>
    <i name="e_wo_entrp">    -83.11998227 </i>
    <i name="e_0_energy">    -83.11937718 </i>
   </energy>
  </scstep>
  <scstep>
   <time name="dav">    1.82    1.82</time>
   <time name="total">    1.84    1.84</time>
   <energy>
    <i name="alphaZ">     92.03755193 </i>
    <i name="ewald">  15474.45623346 </i>
    <i name="hartreedc"> -27187.22120476 </i>
    <i name="XCdc">    255.98540909 </i>
    <i name="pawpsdc">  12779.48024452 </i>
    <i name="pawaedc"> -12696.05280718 </i>
    <i name="eentropy">      0.00090518 </i>
    <i name="bandstr">  -2495.53519132 </i>
    <i name="atom">  13693.72977468 </i>
    <i name="e_fr_energy">    -83.11908439 </i>
    <i name="e_wo_entrp">    -83.11998957 </i>
    <i name="e_0_energy">    -83.11938612 </i>
   </energy>
  </scstep>
  <structure>
   <crystal>
    <varray name="basis" >
     <v>       5.60695197       0.00000000       0.00000000 </v>
     <v>       0.00000000       8.24170653       0.00000000 </v>
     <v>       0.00000000       0.00000000      19.19990485 </v>
    </varray>
    <i name="volume">    887.24397461 </i>
    <varray name="rec_basis" >
     <v>       0.17835002      -0.00000000      -0.00000000 </v>
     <v>       0.00000000       0.12133409      -0.00000000 </v>
     <v>       0.00000000       0.00000000       0.05208359 </v>
    </varray>
   </crystal>
   <varray name="positions" >
    <v>       0.00000000       0.00000000       0.39062694 </v>
    <v>       0.00000000       0.50000000       0.39062694 </v>
    <v>       0.50000000       0.00000000       0.39062694 </v>
    <v>       0.50000000       0.50000000       0.39062694 </v>
    <v>       0.00000000       0.00000000       0.53664203 </v>
    <v>       0.00000000       0.50000000       0.53664203 </v>
    <v>       0.50000000       0.00000000       0.53664203 </v>
    <v>       0.50000000       0.50000000       0.53664203 </v>
    <v>       0.25094688       0.25207123       0.46391100 </v>
    <v>       0.25094688       0.74792877       0.46391100 </v>
    <v>       0.74905312       0.25207123       0.46391100 </v>
    <v>       0.74905312       0.74792877       0.46391100 </v>
    <v>       0.25094688       0.25207123       0.60937306 </v>
    <v>       0.25094688       0.74792877       0.60937306 </v>
    <v>       0.74905312       0.25207123       0.60937306 </v>
    <v>       0.74905312       0.74792877       0.60937306 </v>
   </varray>
  </structure>
  <varray name="forces" >
   <v>      -0.00000000      -0.00000000      -0.41242777 </v>
   <v>       0.00000000       0.00000000       0.26661515 </v>
   <v>       0.00000000       0.00000000       0.87098715 </v>
   <v>       0.00000000       0.00000000       0.90695853 </v>
   <v>       0.00000000       0.00000000       0.59455586 </v>
   <v>      -0.00000000      -0.00000000      -0.09759199 </v>
   <v>       0.00000000       0.00000000       0.16597662 </v>
   <v>       0.00000000       0.00000000       0.62686896 </v>
   <v>       0.15187387       0.01674864      -0.36770371 </v>
   <v>       0.15187387      -0.01674864      -0.36770371 </v>
   <v>      -0.15187387       0.01674864      -0.36770371 </v>
   <v>      -0.15187387      -0.01674864      -0.36770371 </v>
   <v>      -0.04323340      -0.07993604      -0.36278192 </v>
   <v>      -0.04323340       0.07993604      -0.36278192 </v>
   <v>       0.04323340      -0.07993604      -0.36278192 </v>
   <v>       0.04323340       0.07993604      -0.36278192 </v>
  </varray>
  <varray name="stress" >
   <v>     -12.78111492      -0.00000000      -0.00000000 </v>
   <v>      -0.00000000     -28.09693187      -0.00000000 </v>
   <v>      -0.00000000      -0.00000000      -8.29443022 </v>
  </varray>
  <energy>
   <i name="e_fr_energy">    -83.11908439 </i>
   <i name="e_wo_entrp">    -83.11998957 </i>
   <i name="e_0_energy">    -83.11938612 </i>
  </energy>
  <time name="totalsc">   70.34   70.35</time>
  <eigenvalues>
   <array>
    <dimension dim="1">band</dimension>
    <dimension dim="2">kpoint</dimension>
    <dimension dim="3">spin</dimension>
    <field>eigene</field>
    <field>occ</field>
    <set>
     <set comment="spin 1">
      <set comment="kpoint 1">
       <r>  -57.3272    1.0000 </r>
       <r>  -57.3249    1.0000 </r>
       <r>  -57.1574    1.0000 </r>
       <r>  -56.9417    1.0000 </r>
       <r>  -56.9186    1.0000 </r>
       <r>  -56.8439    1.0000 </r>
       <r>  -56.8256    1.0000 </r>
       <r>  -33.7602    1.0000 </r>
       <r>  -33.6785    1.0000 </r>
       <r>  -33.6528    1.0000 </r>
       <r>  -33.6457    1.0000 </r>
       <r>  -33.6052    1.0000 </r>
       <r>  -33.5730    1.0000 </r>
       <r>  -33.4947    1.0000 </r>
       <r>  -33.4562    1.0000 </r>
       <r>  -33.3038    1.0000 </r>
       <r>  -33.2911    1.0000 </r>
       <r>  -33.2898    1.0000 </r>
       <r>  -33.2717    1.0000 </r>
       <r>  -33.2713    1.0000 </r>
       <r>  -33.2331    1.0000 </r>
       <r>  -33.2010    1.0000 </r>
       <r>  -33.1673    1.0000 </r>
       <r>  -33.0777    1.0000 </r>
       <r>  -33.0771    1.0000 </r>
       <r>  -33.0446    1.0000 </r>
       <r>  -32.8062    1.0000 </r>
       <r>  -32.7833    1.0000 </r>
       <r>  -14.5691    1.0000 </r>
       <r>  -14.5661    1.0000 </r>
       <r>  -14.5528    1.0000 </r>
       <r>  -14.5511    1.0000 </r>
       <r>  -14.5227    1.0000 </r>
       <r>   -8.6323    1.0000 </r>
       <r>   -7.1359    1.0000 </r>
       <r>   -6.8590    1.0000 </r>
       <r>   -5.4442    1.0000 </r>
       <r>   -5.3620    1.0000 </r>
       <r>   -4.2827    1.0000 </r>
       <r>   -4.1252    1.0000 </r>
       <r>   -4.0557    1.0000 </r>
       <r>   -3.6084    1.0000 </r>
       <r>   -2.8759    1.0000 </r>
       <r>   -2.8144    1.0000 </r>
       <r>   -2.7831    1.0000 </r>
       <r>   -2.3236    1.0000 </r>
       <r>   -1.9273    1.0000 </r>
       <r>   -1.9142    1.0000 </r>
       <r>   -1.8759    1.0000 </r>
       <r>   -1.7961    1.0000 </r>
       <r>   -1.4817    1.0000 </r>
       <r>   -1.3973    1.0000 </r>
       <r>   -1.3720    1.0000 </r>
       <r>   -1.3315    1.0000 </r>
       <r>   -0.9487    1.0000 </r>
       <r>   -0.6979    1.0000 </r>
       <r>   -0.5947    1.0000 </r>
       <r>   -0.5698    1.0000 </r>
       <r>   -0.4894    1.0002 </r>
       <r>   -0.2482    0.8226 </r>
       <r>   -0.0725   -0.0338 </r>
       <r>   -0.0170   -0.0111 </r>
       <r>   -0.0020   -0.0069 </r>
       <r>    0.0117   -0.0043 </r>
       <r>    0.2757   -0.0000 </r>
       <r>    0.2787   -0.0000 </r>
       <r>    0.2837   -0.0000 </r>
       <r>    0.5817   -0.0000 </r>
       <r>    0.7301   -0.0000 </r>
       <r>    0.9543   -0.0000 </r>
       <r>    0.9871   -0.0000 </r>
       <r>    1.1016   -0.0000 </r>
       <r>    1.1346   -0.0000 </r>
       <r>    1.3423   -0.0000 </r>
       <r>    1.4109   -0.0000 </r>
       <r>    1.5006   -0.0000 </r>
       <r>    1.5021   -0.0000 </r>
       <r>    1.6427   -0.0000 </r>
       <r>    1.6856   -0.0000 </r>
       <r>    1.8225    0.0000 </r>
       <r>    1.9803    0.0000 </r>
       <r>    1.9938    0.0000 </r>
       <r>    2.1595    0.0000 </r>
       <r>    2.2621    0.0000 </r>
       <r>    2.2970    0.0000 </r>
       <r>    2.3067    0.0000 </r>
       <r>    2.5298    0.0000 </r>
       <r>    2.6089    0.0000 </r>
       <r>    2.7312    0.0000 </r>
       <r>    3.1465    0.0000 </r>
       <r>    3.1509    0.0000 </r>
       <r>    3.4473    0.0000 </r>
       <r>    3.6882    0.0000 </r>
       <r>    3.8098    0.0000 </r>
       <r>    3.9023    0.0000 </r>
       <r>    3.9828    0.0000 </r>
       <r>    4.0958    0.0000 </r>
       <r>    4.2643    0.0000 </r>
       <r>    4.4962    0.0000 </r>
       <r>    4.6986    0.0000 </r>
       <r>    4.7412    0.0000 </r>
       <r>    4.8616    0.0000 </r>
       <r>    5.2005    0.0000 </r>
       <r>    5.2623    0.0000 </r>
       <r>    5.4452    0.0000 </r>
       <r>    5.5633    0.0000 </r>
       <r>    5.6038    0.0000 </r>
       <r>    5.7467    0.0000 </r>
       <r>    5.7663    0.0000 </r>
       <r>    5.9325    0.0000 </r>
       <r>    5.9800    0.0000 </r>
       <r>    6.0177    0.0000 </r>
       <r>    6.0311    0.0000 </r>
       <r>    6.0804    0.0000 </r>
       <r>    6.2776    0.0000 </r>
       <r>    6.3302    0.0000 </r>
       <r>    6.4140    0.0000 </r>
       <r>    6.4307    0.0000 </r>
       <r>    6.5437    0.0000 </r>
       <r>    6.5679    0.0000 </r>
       <r>    7.1109    0.0000 </r>
       <r>    7.3684    0.0000 </r>
       <r>    7.3912    0.0000 </r>
       <r>    7.4411    0.0000 </r>
       <r>    7.8336    0.0000 </r>
       <r>    7.9822    0.0000 </r>
       <r>    8.0239    0.0000 </r>
       <r>    8.1123    0.0000 </r>
      </set>
      <set comment="kpoint 2">
       <r>  -57.3272    1.0000 </r>
       <r>  -57.3223    1.0000 </r>
       <r>  -57.1602    1.0000 </r>
       <r>  -56.9368    1.0000 </r>
       <r>  -56.9135    1.0000 </r>
       <r>  -56.8489    1.0000 </r>
       <r>  -56.8309    1.0000 </r>
       <r>  -33.7576    1.0000 </r>
       <r>  -33.6785    1.0000 </r>
       <r>  -33.6508    1.0000 </r>
       <r>  -33.6456    1.0000 </r>
       <r>  -33.6079    1.0000 </r>
       <r>  -33.5068    1.0000 </r>
       <r>  -33.4950    1.0000 </r>
       <r>  -33.4583    1.0000 </r>
       <r>  -33.2982    1.0000 </r>
       <r>  -33.2821    1.0000 </r>
       <r>  -33.2698    1.0000 </r>
       <r>  -33.2417    1.0000 </r>
       <r>  -33.2226    1.0000 </r>
       <r>  -33.2059    1.0000 </r>
       <r>  -33.2031    1.0000 </r>
       <r>  -33.1635    1.0000 </r>
       <r>  -33.1470    1.0000 </r>
       <r>  -33.0813    1.0000 </r>
       <r>  -33.0462    1.0000 </r>
       <r>  -32.8783    1.0000 </r>
       <r>  -32.8554    1.0000 </r>
       <r>  -14.5674    1.0000 </r>
       <r>  -14.5661    1.0000 </r>
       <r>  -14.5521    1.0000 </r>
       <r>  -14.5469    1.0000 </r>
       <r>  -14.5221    1.0000 </r>
       <r>   -8.3437    1.0000 </r>
       <r>   -6.8988    1.0000 </r>
       <r>   -6.7092    1.0000 </r>
       <r>   -5.8004    1.0000 </r>
       <r>   -5.2120    1.0000 </r>
       <r>   -5.1191    1.0000 </r>
       <r>   -5.0225    1.0000 </r>
       <r>   -3.9783    1.0000 </r>
       <r>   -3.4392    1.0000 </r>
       <r>   -3.2867    1.0000 </r>
       <r>   -2.7771    1.0000 </r>
       <r>   -2.4916    1.0000 </r>
       <r>   -2.0333    1.0000 </r>
       <r>   -1.7433    1.0000 </r>
       <r>   -1.6503    1.0000 </r>
       <r>   -1.4381    1.0000 </r>
       <r>   -1.4114    1.0000 </r>
       <r>   -1.3237    1.0000 </r>
       <r>   -1.2336    1.0000 </r>
       <r>   -1.2055    1.0000 </r>
       <r>   -1.1013    1.0000 </r>
       <r>   -0.9581    1.0000 </r>
       <r>   -0.7356    1.0000 </r>
       <r>   -0.7136    1.0000 </r>
       <r>   -0.4319    1.0032 </r>
       <r>   -0.3928    1.0120 </r>
       <r>   -0.3617    1.0252 </r>
       <r>   -0.3276    1.0354 </r>
       <r>   -0.1529    0.1123 </r>
       <r>   -0.0738   -0.0341 </r>
       <r>    0.0626   -0.0005 </r>
       <r>    0.2055   -0.0000 </r>
       <r>    0.2835   -0.0000 </r>
       <r>    0.3488   -0.0000 </r>
       <r>    0.4032   -0.0000 </r>
       <r>    0.7908   -0.0000 </r>
       <r>    1.0604   -0.0000 </r>
       <r>    1.1055   -0.0000 </r>
       <r>    1.1073   -0.0000 </r>
       <r>    1.2316   -0.0000 </r>
       <r>    1.2708   -0.0000 </r>
       <r>    1.3531   -0.0000 </r>
       <r>    1.4210   -0.0000 </r>
       <r>    1.4597   -0.0000 </r>
       <r>    1.4672   -0.0000 </r>
       <r>    1.5319   -0.0000 </r>
       <r>    1.6777   -0.0000 </r>
       <r>    1.7559   -0.0000 </r>
       <r>    1.9370    0.0000 </r>
       <r>    2.0172    0.0000 </r>
       <r>    2.0631    0.0000 </r>
       <r>    2.1543    0.0000 </r>
       <r>    2.2972    0.0000 </r>
       <r>    2.4834    0.0000 </r>
       <r>    2.5264    0.0000 </r>
       <r>    3.2357    0.0000 </r>
       <r>    3.3507    0.0000 </r>
       <r>    3.5060    0.0000 </r>
       <r>    3.5791    0.0000 </r>
       <r>    3.6385    0.0000 </r>
       <r>    3.6572    0.0000 </r>
       <r>    4.0720    0.0000 </r>
       <r>    4.0993    0.0000 </r>
       <r>    4.1308    0.0000 </r>
       <r>    4.1570    0.0000 </r>
       <r>    4.6426    0.0000 </r>
       <r>    4.7122    0.0000 </r>
       <r>    4.9032    0.0000 </r>
       <r>    5.0839    0.0000 </r>
       <r>    5.1114    0.0000 </r>
       <r>    5.3655    0.0000 </r>
       <r>    5.4135    0.0000 </r>
       <r>    5.5655    0.0000 </r>
       <r>    5.6433    0.0000 </r>
       <r>    5.7297    0.0000 </r>
       <r>    5.8182    0.0000 </r>
       <r>    5.9546    0.0000 </r>
       <r>    6.0522    0.0000 </r>
       <r>    6.0984    0.0000 </r>
       <r>    6.2308    0.0000 </r>
       <r>    6.3008    0.0000 </r>
       <r>    6.3377    0.0000 </r>
       <r>    6.4816    0.0000 </r>
       <r>    6.4845    0.0000 </r>
       <r>    6.6387    0.0000 </r>
       <r>    6.6658    0.0000 </r>
       <r>    6.7585    0.0000 </r>
       <r>    6.7830    0.0000 </r>
       <r>    6.8810    0.0000 </r>
       <r>    7.0203    0.0000 </r>
       <r>    7.1138    0.0000 </r>
       <r>    7.3104    0.0000 </r>
       <r>    7.3659    0.0000 </r>
       <r>    7.8052    0.0000 </r>
       <r>    8.0325    0.0000 </r>
      </set>
      <set comment="kpoint 3">
       <r>  -57.3272    1.0000 </r>
       <r>  -57.3195    1.0000 </r>
       <r>  -57.1631    1.0000 </r>
       <r>  -56.9313    1.0000 </r>
       <r>  -56.9075    1.0000 </r>
       <r>  -56.8545    1.0000 </r>
       <r>  -56.8370    1.0000 </r>
       <r>  -33.7548    1.0000 </r>
       <r>  -33.6784    1.0000 </r>
       <r>  -33.6488    1.0000 </r>
       <r>  -33.6455    1.0000 </r>
       <r>  -33.6108    1.0000 </r>
       <r>  -33.4953    1.0000 </r>
       <r>  -33.4604    1.0000 </r>
       <r>  -33.3858    1.0000 </r>
       <r>  -33.2918    1.0000 </r>
       <r>  -33.2718    1.0000 </r>
       <r>  -33.2682    1.0000 </r>
       <r>  -33.2655    1.0000 </r>
       <r>  -33.2593    1.0000 </r>
       <r>  -33.2114    1.0000 </r>
       <r>  -33.1584    1.0000 </r>
       <r>  -33.0861    1.0000 </r>
       <r>  -33.0738    1.0000 </r>
       <r>  -33.0601    1.0000 </r>
       <r>  -33.0479    1.0000 </r>
       <r>  -33.0306    1.0000 </r>
       <r>  -33.0017    1.0000 </r>
       <r>  -14.5662    1.0000 </r>
       <r>  -14.5660    1.0000 </r>
       <r>  -14.5515    1.0000 </r>
       <r>  -14.5421    1.0000 </r>
       <r>  -14.5215    1.0000 </r>
       <r>   -7.7193    1.0000 </r>
       <r>   -7.2071    1.0000 </r>
       <r>   -6.2303    1.0000 </r>
       <r>   -6.1837    1.0000 </r>
       <r>   -5.9994    1.0000 </r>
       <r>   -5.0774    1.0000 </r>
       <r>   -4.4795    1.0000 </r>
       <r>   -4.3708    1.0000 </r>
       <r>   -4.2757    1.0000 </r>
       <r>   -3.5653    1.0000 </r>
       <r>   -2.7070    1.0000 </r>
       <r>   -2.1813    1.0000 </r>
       <r>   -1.7408    1.0000 </r>
       <r>   -1.7231    1.0000 </r>
       <r>   -1.6232    1.0000 </r>
       <r>   -1.2846    1.0000 </r>
       <r>   -1.2027    1.0000 </r>
       <r>   -1.1785    1.0000 </r>
       <r>   -1.1629    1.0000 </r>
       <r>   -1.0616    1.0000 </r>
       <r>   -0.8302    1.0000 </r>
       <r>   -0.6348    1.0000 </r>
       <r>   -0.4668    1.0007 </r>
       <r>   -0.4355    1.0028 </r>
       <r>   -0.3969    1.0107 </r>
       <r>   -0.3644    1.0239 </r>
       <r>   -0.2498    0.8328 </r>
       <r>   -0.2431    0.7895 </r>
       <r>   -0.1767    0.2613 </r>
       <r>   -0.1591    0.1461 </r>
       <r>    0.0531   -0.0008 </r>
       <r>    0.1479   -0.0000 </r>
       <r>    0.3708   -0.0000 </r>
       <r>    0.4058   -0.0000 </r>
       <r>    0.5103   -0.0000 </r>
       <r>    0.8487   -0.0000 </r>
       <r>    0.8962   -0.0000 </r>
       <r>    0.9619   -0.0000 </r>
       <r>    0.9835   -0.0000 </r>
       <r>    1.0871   -0.0000 </r>
       <r>    1.1049   -0.0000 </r>
       <r>    1.1474   -0.0000 </r>
       <r>    1.2957   -0.0000 </r>
       <r>    1.3007   -0.0000 </r>
       <r>    1.3035   -0.0000 </r>
       <r>    1.3315   -0.0000 </r>
       <r>    1.4610   -0.0000 </r>
       <r>    1.4694   -0.0000 </r>
       <r>    1.6877   -0.0000 </r>
       <r>    1.8465    0.0000 </r>
       <r>    1.8710    0.0000 </r>
       <r>    2.2995    0.0000 </r>
       <r>    2.4440    0.0000 </r>
       <r>    2.4787    0.0000 </r>
       <r>    2.8488    0.0000 </r>
       <r>    3.2400    0.0000 </r>
       <r>    3.5037    0.0000 </r>
       <r>    3.5080    0.0000 </r>
       <r>    3.6854    0.0000 </r>
       <r>    3.8964    0.0000 </r>
       <r>    4.0909    0.0000 </r>
       <r>    4.2658    0.0000 </r>
       <r>    4.4984    0.0000 </r>
       <r>    4.6530    0.0000 </r>
       <r>    4.8049    0.0000 </r>
       <r>    4.8642    0.0000 </r>
       <r>    4.8873    0.0000 </r>
       <r>    4.8974    0.0000 </r>
       <r>    5.0275    0.0000 </r>
       <r>    5.0457    0.0000 </r>
       <r>    5.1115    0.0000 </r>
       <r>    5.1593    0.0000 </r>
       <r>    5.4717    0.0000 </r>
       <r>    5.5052    0.0000 </r>
       <r>    5.6294    0.0000 </r>
       <r>    5.6668    0.0000 </r>
       <r>    5.6953    0.0000 </r>
       <r>    5.8284    0.0000 </r>
       <r>    5.9118    0.0000 </r>
       <r>    5.9434    0.0000 </r>
       <r>    5.9482    0.0000 </r>
       <r>    6.0263    0.0000 </r>
       <r>    6.3534    0.0000 </r>
       <r>    6.4377    0.0000 </r>
       <r>    6.6746    0.0000 </r>
       <r>    6.8118    0.0000 </r>
       <r>    6.8251    0.0000 </r>
       <r>    7.0573    0.0000 </r>
       <r>    7.1876    0.0000 </r>
       <r>    7.1930    0.0000 </r>
       <r>    7.2120    0.0000 </r>
       <r>    7.2406    0.0000 </r>
       <r>    7.3350    0.0000 </r>
       <r>    7.4759    0.0000 </r>
       <r>    7.5202    0.0000 </r>
      </set>
      <set comment="kpoint 4">
       <r>  -57.3272    1.0000 </r>
       <r>  -57.3249    1.0000 </r>
       <r>  -57.1574    1.0000 </r>
       <r>  -56.9417    1.0000 </r>
       <r>  -56.9186    1.0000 </r>
       <r>  -56.8439    1.0000 </r>
       <r>  -56.8256    1.0000 </r>
       <r>  -33.7602    1.0000 </r>
       <r>  -33.6784    1.0000 </r>
       <r>  -33.6528    1.0000 </r>
       <r>  -33.6457    1.0000 </r>
       <r>  -33.6052    1.0000 </r>
       <r>  -33.5730    1.0000 </r>
       <r>  -33.4947    1.0000 </r>
       <r>  -33.4563    1.0000 </r>
       <r>  -33.3017    1.0000 </r>
       <r>  -33.2918    1.0000 </r>
       <r>  -33.2911    1.0000 </r>
       <r>  -33.2717    1.0000 </r>
       <r>  -33.2713    1.0000 </r>
       <r>  -33.2326    1.0000 </r>
       <r>  -33.2015    1.0000 </r>
       <r>  -33.1673    1.0000 </r>
       <r>  -33.0777    1.0000 </r>
       <r>  -33.0770    1.0000 </r>
       <r>  -33.0446    1.0000 </r>
       <r>  -32.8062    1.0000 </r>
       <r>  -32.7833    1.0000 </r>
       <r>  -14.5691    1.0000 </r>
       <r>  -14.5661    1.0000 </r>
       <r>  -14.5527    1.0000 </r>
       <r>  -14.5511    1.0000 </r>
       <r>  -14.5227    1.0000 </r>
       <r>   -8.4280    1.0000 </r>
       <r>   -7.7041    1.0000 </r>
       <r>   -6.6094    1.0000 </r>
       <r>   -5.7414    1.0000 </r>
       <r>   -4.8563    1.0000 </r>
       <r>   -4.2447    1.0000 </r>
       <r>   -4.1350    1.0000 </r>
       <r>   -3.6939    1.0000 </r>
       <r>   -3.4711    1.0000 </r>
       <r>   -3.1220    1.0000 </r>
       <r>   -2.7729    1.0000 </r>
       <r>   -2.7217    1.0000 </r>
       <r>   -2.5892    1.0000 </r>
       <r>   -2.4564    1.0000 </r>
       <r>   -1.9778    1.0000 </r>
       <r>   -1.8813    1.0000 </r>
       <r>   -1.7612    1.0000 </r>
       <r>   -1.5870    1.0000 </r>
       <r>   -1.5020    1.0000 </r>
       <r>   -1.2399    1.0000 </r>
       <r>   -1.0716    1.0000 </r>
       <r>   -0.9174    1.0000 </r>
       <r>   -0.8427    1.0000 </r>
       <r>   -0.7038    1.0000 </r>
       <r>   -0.6298    1.0000 </r>
       <r>   -0.5192    1.0000 </r>
       <r>   -0.2985    1.0150 </r>
       <r>   -0.1612    0.1585 </r>
       <r>   -0.1176   -0.0090 </r>
       <r>    0.0167   -0.0036 </r>
       <r>    0.1801   -0.0000 </r>
       <r>    0.2784   -0.0000 </r>
       <r>    0.3854   -0.0000 </r>
       <r>    0.4600   -0.0000 </r>
       <r>    0.7451   -0.0000 </r>
       <r>    0.9419   -0.0000 </r>
       <r>    1.0495   -0.0000 </r>
       <r>    1.1254   -0.0000 </r>
       <r>    1.1897   -0.0000 </r>
       <r>    1.2656   -0.0000 </r>
       <r>    1.3722   -0.0000 </r>
       <r>    1.4625   -0.0000 </r>
       <r>    1.4882   -0.0000 </r>
       <r>    1.6453   -0.0000 </r>
       <r>    1.6850   -0.0000 </r>
       <r>    1.8096    0.0000 </r>
       <r>    1.8527    0.0000 </r>
       <r>    1.9156    0.0000 </r>
       <r>    1.9630    0.0000 </r>
       <r>    2.0046    0.0000 </r>
       <r>    2.1076    0.0000 </r>
       <r>    2.2232    0.0000 </r>
       <r>    2.3095    0.0000 </r>
       <r>    2.3138    0.0000 </r>
       <r>    2.5315    0.0000 </r>
       <r>    2.6563    0.0000 </r>
       <r>    2.9782    0.0000 </r>
       <r>    3.2355    0.0000 </r>
       <r>    3.4328    0.0000 </r>
       <r>    3.5904    0.0000 </r>
       <r>    3.6128    0.0000 </r>
       <r>    3.7880    0.0000 </r>
       <r>    3.9163    0.0000 </r>
       <r>    4.1124    0.0000 </r>
       <r>    4.1749    0.0000 </r>
       <r>    4.5869    0.0000 </r>
       <r>    4.6012    0.0000 </r>
       <r>    4.7045    0.0000 </r>
       <r>    4.8318    0.0000 </r>
       <r>    5.0585    0.0000 </r>
       <r>    5.0901    0.0000 </r>
       <r>    5.1391    0.0000 </r>
       <r>    5.3080    0.0000 </r>
       <r>    5.4133    0.0000 </r>
       <r>    5.4884    0.0000 </r>
       <r>    5.6325    0.0000 </r>
       <r>    5.9184    0.0000 </r>
       <r>    6.0337    0.0000 </r>
       <r>    6.1984    0.0000 </r>
       <r>    6.4481    0.0000 </r>
       <r>    6.5823    0.0000 </r>
       <r>    6.6433    0.0000 </r>
       <r>    6.7660    0.0000 </r>
       <r>    6.8086    0.0000 </r>
       <r>    6.8115    0.0000 </r>
       <r>    6.9976    0.0000 </r>
       <r>    7.0224    0.0000 </r>
       <r>    7.1559    0.0000 </r>
       <r>    7.4764    0.0000 </r>
       <r>    7.5033    0.0000 </r>
       <r>    7.5534    0.0000 </r>
       <r>    7.6901    0.0000 </r>
       <r>    7.8306    0.0000 </r>
       <r>    7.9848    0.0000 </r>
       <r>    8.0080    0.0000 </r>
      </set>
      <set comment="kpoint 5">
       <r>  -57.3272    1.0000 </r>
       <r>  -57.3223    1.0000 </r>
       <r>  -57.1602    1.0000 </r>
       <r>  -56.9368    1.0000 </r>
       <r>  -56.9135    1.0000 </r>
       <r>  -56.8489    1.0000 </r>
       <r>  -56.8309    1.0000 </r>
       <r>  -33.7576    1.0000 </r>
       <r>  -33.6784    1.0000 </r>
       <r>  -33.6508    1.0000 </r>
       <r>  -33.6456    1.0000 </r>
       <r>  -33.6079    1.0000 </r>
       <r>  -33.5067    1.0000 </r>
       <r>  -33.4950    1.0000 </r>
       <r>  -33.4584    1.0000 </r>
       <r>  -33.2966    1.0000 </r>
       <r>  -33.2836    1.0000 </r>
       <r>  -33.2698    1.0000 </r>
       <r>  -33.2413    1.0000 </r>
       <r>  -33.2226    1.0000 </r>
       <r>  -33.2064    1.0000 </r>
       <r>  -33.2032    1.0000 </r>
       <r>  -33.1635    1.0000 </r>
       <r>  -33.1470    1.0000 </r>
       <r>  -33.0813    1.0000 </r>
       <r>  -33.0462    1.0000 </r>
       <r>  -32.8783    1.0000 </r>
       <r>  -32.8554    1.0000 </r>
       <r>  -14.5673    1.0000 </r>
       <r>  -14.5661    1.0000 </r>
       <r>  -14.5521    1.0000 </r>
       <r>  -14.5469    1.0000 </r>
       <r>  -14.5221    1.0000 </r>
       <r>   -8.1512    1.0000 </r>
       <r>   -7.4379    1.0000 </r>
       <r>   -6.4660    1.0000 </r>
       <r>   -5.6539    1.0000 </r>
       <r>   -5.4952    1.0000 </r>
       <r>   -5.3170    1.0000 </r>
       <r>   -4.5617    1.0000 </r>
       <r>   -3.7334    1.0000 </r>
       <r>   -3.5164    1.0000 </r>
       <r>   -3.1944    1.0000 </r>
       <r>   -2.4532    1.0000 </r>
       <r>   -2.3892    1.0000 </r>
       <r>   -2.2381    1.0000 </r>
       <r>   -2.0682    1.0000 </r>
       <r>   -1.9584    1.0000 </r>
       <r>   -1.7615    1.0000 </r>
       <r>   -1.6656    1.0000 </r>
       <r>   -1.4036    1.0000 </r>
       <r>   -1.2070    1.0000 </r>
       <r>   -1.0551    1.0000 </r>
       <r>   -0.8331    1.0000 </r>
       <r>   -0.8015    1.0000 </r>
       <r>   -0.7526    1.0000 </r>
       <r>   -0.5651    1.0000 </r>
       <r>   -0.5022    1.0001 </r>
       <r>   -0.4448    1.0019 </r>
       <r>   -0.2737    0.9506 </r>
       <r>   -0.2116    0.5450 </r>
       <r>   -0.0971   -0.0322 </r>
       <r>   -0.0092   -0.0088 </r>
       <r>    0.0421   -0.0012 </r>
       <r>    0.1035   -0.0001 </r>
       <r>    0.2965   -0.0000 </r>
       <r>    0.3313   -0.0000 </r>
       <r>    0.4695   -0.0000 </r>
       <r>    0.7067   -0.0000 </r>
       <r>    0.7763   -0.0000 </r>
       <r>    0.9669   -0.0000 </r>
       <r>    1.1830   -0.0000 </r>
       <r>    1.2426   -0.0000 </r>
       <r>    1.2731   -0.0000 </r>
       <r>    1.3841   -0.0000 </r>
       <r>    1.4391   -0.0000 </r>
       <r>    1.5138   -0.0000 </r>
       <r>    1.5820   -0.0000 </r>
       <r>    1.6611   -0.0000 </r>
       <r>    1.7964    0.0000 </r>
       <r>    1.9280    0.0000 </r>
       <r>    1.9702    0.0000 </r>
       <r>    2.1291    0.0000 </r>
       <r>    2.1460    0.0000 </r>
       <r>    2.2608    0.0000 </r>
       <r>    2.3674    0.0000 </r>
       <r>    2.4850    0.0000 </r>
       <r>    2.8070    0.0000 </r>
       <r>    2.9072    0.0000 </r>
       <r>    3.0247    0.0000 </r>
       <r>    3.1612    0.0000 </r>
       <r>    3.4198    0.0000 </r>
       <r>    3.6005    0.0000 </r>
       <r>    3.7032    0.0000 </r>
       <r>    3.8140    0.0000 </r>
       <r>    3.8838    0.0000 </r>
       <r>    4.0820    0.0000 </r>
       <r>    4.1943    0.0000 </r>
       <r>    4.2636    0.0000 </r>
       <r>    4.4522    0.0000 </r>
       <r>    4.5561    0.0000 </r>
       <r>    4.8943    0.0000 </r>
       <r>    5.1859    0.0000 </r>
       <r>    5.2323    0.0000 </r>
       <r>    5.4221    0.0000 </r>
       <r>    5.4465    0.0000 </r>
       <r>    5.5860    0.0000 </r>
       <r>    5.7115    0.0000 </r>
       <r>    6.0941    0.0000 </r>
       <r>    6.1852    0.0000 </r>
       <r>    6.2426    0.0000 </r>
       <r>    6.3292    0.0000 </r>
       <r>    6.5229    0.0000 </r>
       <r>    6.5854    0.0000 </r>
       <r>    6.6596    0.0000 </r>
       <r>    6.7232    0.0000 </r>
       <r>    6.7530    0.0000 </r>
       <r>    6.8815    0.0000 </r>
       <r>    6.9705    0.0000 </r>
       <r>    7.0807    0.0000 </r>
       <r>    7.1327    0.0000 </r>
       <r>    7.2434    0.0000 </r>
       <r>    7.2874    0.0000 </r>
       <r>    7.3929    0.0000 </r>
       <r>    7.4704    0.0000 </r>
       <r>    7.5332    0.0000 </r>
       <r>    7.6514    0.0000 </r>
       <r>    7.7785    0.0000 </r>
      </set>
      <set comment="kpoint 6">
       <r>  -57.3272    1.0000 </r>
       <r>  -57.3195    1.0000 </r>
       <r>  -57.1631    1.0000 </r>
       <r>  -56.9313    1.0000 </r>
       <r>  -56.9075    1.0000 </r>
       <r>  -56.8545    1.0000 </r>
       <r>  -56.8370    1.0000 </r>
       <r>  -33.7548    1.0000 </r>
       <r>  -33.6784    1.0000 </r>
       <r>  -33.6488    1.0000 </r>
       <r>  -33.6455    1.0000 </r>
       <r>  -33.6108    1.0000 </r>
       <r>  -33.4953    1.0000 </r>
       <r>  -33.4604    1.0000 </r>
       <r>  -33.3858    1.0000 </r>
       <r>  -33.2909    1.0000 </r>
       <r>  -33.2718    1.0000 </r>
       <r>  -33.2682    1.0000 </r>
       <r>  -33.2664    1.0000 </r>
       <r>  -33.2588    1.0000 </r>
       <r>  -33.2119    1.0000 </r>
       <r>  -33.1584    1.0000 </r>
       <r>  -33.0861    1.0000 </r>
       <r>  -33.0738    1.0000 </r>
       <r>  -33.0601    1.0000 </r>
       <r>  -33.0479    1.0000 </r>
       <r>  -33.0306    1.0000 </r>
       <r>  -33.0017    1.0000 </r>
       <r>  -14.5662    1.0000 </r>
       <r>  -14.5660    1.0000 </r>
       <r>  -14.5515    1.0000 </r>
       <r>  -14.5421    1.0000 </r>
       <r>  -14.5215    1.0000 </r>
       <r>   -7.5874    1.0000 </r>
       <r>   -7.0125    1.0000 </r>
       <r>   -6.6877    1.0000 </r>
       <r>   -6.5241    1.0000 </r>
       <r>   -5.7210    1.0000 </r>
       <r>   -4.9357    1.0000 </r>
       <r>   -4.7461    1.0000 </r>
       <r>   -4.5869    1.0000 </r>
       <r>   -3.7941    1.0000 </r>
       <r>   -3.0507    1.0000 </r>
       <r>   -2.5704    1.0000 </r>
       <r>   -2.2145    1.0000 </r>
       <r>   -1.9878    1.0000 </r>
       <r>   -1.7041    1.0000 </r>
       <r>   -1.7004    1.0000 </r>
       <r>   -1.4927    1.0000 </r>
       <r>   -1.4170    1.0000 </r>
       <r>   -1.4136    1.0000 </r>
       <r>   -0.9454    1.0000 </r>
       <r>   -0.9115    1.0000 </r>
       <r>   -0.6941    1.0000 </r>
       <r>   -0.6635    1.0000 </r>
       <r>   -0.5337    1.0000 </r>
       <r>   -0.4077    1.0076 </r>
       <r>   -0.3835    1.0155 </r>
       <r>   -0.3683    1.0221 </r>
       <r>   -0.3090    1.0277 </r>
       <r>   -0.1747    0.2474 </r>
       <r>   -0.1300    0.0201 </r>
       <r>   -0.1293    0.0181 </r>
       <r>    0.0611   -0.0005 </r>
       <r>    0.1465   -0.0000 </r>
       <r>    0.2272   -0.0000 </r>
       <r>    0.3701   -0.0000 </r>
       <r>    0.4572   -0.0000 </r>
       <r>    0.4850   -0.0000 </r>
       <r>    0.5535   -0.0000 </r>
       <r>    0.6097   -0.0000 </r>
       <r>    0.9904   -0.0000 </r>
       <r>    1.0857   -0.0000 </r>
       <r>    1.1442   -0.0000 </r>
       <r>    1.1589   -0.0000 </r>
       <r>    1.2865   -0.0000 </r>
       <r>    1.4359   -0.0000 </r>
       <r>    1.4772   -0.0000 </r>
       <r>    1.5232   -0.0000 </r>
       <r>    1.7217   -0.0000 </r>
       <r>    1.9300    0.0000 </r>
       <r>    2.0098    0.0000 </r>
       <r>    2.0671    0.0000 </r>
       <r>    2.2799    0.0000 </r>
       <r>    2.3064    0.0000 </r>
       <r>    2.4085    0.0000 </r>
       <r>    2.5485    0.0000 </r>
       <r>    2.7450    0.0000 </r>
       <r>    2.7643    0.0000 </r>
       <r>    2.9272    0.0000 </r>
       <r>    3.4256    0.0000 </r>
       <r>    3.8311    0.0000 </r>
       <r>    3.8447    0.0000 </r>
       <r>    4.0042    0.0000 </r>
       <r>    4.1535    0.0000 </r>
       <r>    4.2701    0.0000 </r>
       <r>    4.3085    0.0000 </r>
       <r>    4.5223    0.0000 </r>
       <r>    4.6095    0.0000 </r>
       <r>    4.7283    0.0000 </r>
       <r>    4.9234    0.0000 </r>
       <r>    4.9936    0.0000 </r>
       <r>    5.0170    0.0000 </r>
       <r>    5.1306    0.0000 </r>
       <r>    5.1367    0.0000 </r>
       <r>    5.1634    0.0000 </r>
       <r>    5.4576    0.0000 </r>
       <r>    5.5320    0.0000 </r>
       <r>    5.5416    0.0000 </r>
       <r>    5.7478    0.0000 </r>
       <r>    5.8393    0.0000 </r>
       <r>    5.9619    0.0000 </r>
       <r>    6.1213    0.0000 </r>
       <r>    6.1812    0.0000 </r>
       <r>    6.3218    0.0000 </r>
       <r>    6.3230    0.0000 </r>
       <r>    6.4344    0.0000 </r>
       <r>    6.6506    0.0000 </r>
       <r>    6.7763    0.0000 </r>
       <r>    7.0611    0.0000 </r>
       <r>    7.0702    0.0000 </r>
       <r>    7.1868    0.0000 </r>
       <r>    7.3201    0.0000 </r>
       <r>    7.6067    0.0000 </r>
       <r>    7.6772    0.0000 </r>
       <r>    7.7251    0.0000 </r>
       <r>    7.7523    0.0000 </r>
       <r>    8.0441    0.0000 </r>
      </set>
     </set>
    </set>
   </array>
  </eigenvalues>
  <separator name="orbital magnetization" >
   <v name="MAGDIPOLOUT">      0.00000000      0.00000000      0.00000000</v>
  </separator>
  <dos>
   <i name="efermi">     -0.20624813 </i>
   <total>
    <array>
     <dimension dim="1">gridpoints</dimension>
     <dimension dim="2">spin</dimension>
     <field>energy</field>
     <field>total</field>
     <field>integrated</field>
     <set>
      <set comment="spin 1">
       <r>   -60.5991     0.0000     0.0000 </r>
       <r>   -60.3592     0.0000     0.0000 </r>
       <r>   -60.1193     0.0000     0.0000 </r>
       <r>   -59.8793     0.0000     0.0000 </r>
       <r>   -59.6394     0.0000     0.0000 </r>
       <r>   -59.3994     0.0000     0.0000 </r>
       <r>   -59.1595     0.0000     0.0000 </r>
       <r>   -58.9195     0.0000     0.0000 </r>
       <r>   -58.6796     0.0000     0.0000 </r>
       <r>   -58.4396     0.0000     0.0000 </r>
       <r>   -58.1997    -0.0000    -0.0000 </r>
       <r>   -57.9597    -0.0000    -0.0000 </r>
       <r>   -57.7198    -0.0000    -0.0000 </r>
       <r>   -57.4799    -0.4220    -0.1013 </r>
       <r>   -57.2399    17.1982     4.0253 </r>
       <r>   -57.0000     8.5509     6.0771 </r>
       <r>   -56.7600    33.1350    14.0277 </r>
       <r>   -56.5201    -0.1148    14.0001 </r>
       <r>   -56.2801    -0.0006    14.0000 </r>
       <r>   -56.0402    -0.0000    14.0000 </r>
       <r>   -55.8002     0.0000    14.0000 </r>
       <r>   -55.5603     0.0000    14.0000 </r>
       <r>   -55.3204     0.0000    14.0000 </r>
       <r>   -55.0804     0.0000    14.0000 </r>
       <r>   -54.8405     0.0000    14.0000 </r>
       <r>   -54.6005     0.0000    14.0000 </r>
       <r>   -54.3606     0.0000    14.0000 </r>
       <r>   -54.1206     0.0000    14.0000 </r>
       <r>   -53.8807     0.0000    14.0000 </r>
       <r>   -53.6407     0.0000    14.0000 </r>
       <r>   -53.4008     0.0000    14.0000 </r>
       <r>   -53.1609     0.0000    14.0000 </r>
       <r>   -52.9209     0.0000    14.0000 </r>
       <r>   -52.6810     0.0000    14.0000 </r>
       <r>   -52.4410     0.0000    14.0000 </r>
       <r>   -52.2011     0.0000    14.0000 </r>
       <r>   -51.9611     0.0000    14.0000 </r>
       <r>   -51.7212     0.0000    14.0000 </r>
       <r>   -51.4812     0.0000    14.0000 </r>
       <r>   -51.2413     0.0000    14.0000 </r>
       <r>   -51.0014     0.0000    14.0000 </r>
       <r>   -50.7614     0.0000    14.0000 </r>
       <r>   -50.5215     0.0000    14.0000 </r>
       <r>   -50.2815     0.0000    14.0000 </r>
       <r>   -50.0416     0.0000    14.0000 </r>
       <r>   -49.8016     0.0000    14.0000 </r>
       <r>   -49.5617     0.0000    14.0000 </r>
       <r>   -49.3217     0.0000    14.0000 </r>
       <r>   -49.0818     0.0000    14.0000 </r>
       <r>   -48.8418     0.0000    14.0000 </r>
       <r>   -48.6019     0.0000    14.0000 </r>
       <r>   -48.3620     0.0000    14.0000 </r>
       <r>   -48.1220     0.0000    14.0000 </r>
       <r>   -47.8821     0.0000    14.0000 </r>
       <r>   -47.6421     0.0000    14.0000 </r>
       <r>   -47.4022     0.0000    14.0000 </r>
       <r>   -47.1622     0.0000    14.0000 </r>
       <r>   -46.9223     0.0000    14.0000 </r>
       <r>   -46.6823     0.0000    14.0000 </r>
       <r>   -46.4424     0.0000    14.0000 </r>
       <r>   -46.2025     0.0000    14.0000 </r>
       <r>   -45.9625     0.0000    14.0000 </r>
       <r>   -45.7226     0.0000    14.0000 </r>
       <r>   -45.4826     0.0000    14.0000 </r>
       <r>   -45.2427     0.0000    14.0000 </r>
       <r>   -45.0027     0.0000    14.0000 </r>
       <r>   -44.7628     0.0000    14.0000 </r>
       <r>   -44.5228     0.0000    14.0000 </r>
       <r>   -44.2829     0.0000    14.0000 </r>
       <r>   -44.0430     0.0000    14.0000 </r>
       <r>   -43.8030     0.0000    14.0000 </r>
       <r>   -43.5631     0.0000    14.0000 </r>
       <r>   -43.3231     0.0000    14.0000 </r>
       <r>   -43.0832     0.0000    14.0000 </r>
       <r>   -42.8432     0.0000    14.0000 </r>
       <r>   -42.6033     0.0000    14.0000 </r>
       <r>   -42.3633     0.0000    14.0000 </r>
       <r>   -42.1234     0.0000    14.0000 </r>
       <r>   -41.8834     0.0000    14.0000 </r>
       <r>   -41.6435     0.0000    14.0000 </r>
       <r>   -41.4036     0.0000    14.0000 </r>
       <r>   -41.1636     0.0000    14.0000 </r>
       <r>   -40.9237     0.0000    14.0000 </r>
       <r>   -40.6837     0.0000    14.0000 </r>
       <r>   -40.4438     0.0000    14.0000 </r>
       <r>   -40.2038     0.0000    14.0000 </r>
       <r>   -39.9639     0.0000    14.0000 </r>
       <r>   -39.7239     0.0000    14.0000 </r>
       <r>   -39.4840     0.0000    14.0000 </r>
       <r>   -39.2441     0.0000    14.0000 </r>
       <r>   -39.0041     0.0000    14.0000 </r>
       <r>   -38.7642     0.0000    14.0000 </r>
       <r>   -38.5242     0.0000    14.0000 </r>
       <r>   -38.2843     0.0000    14.0000 </r>
       <r>   -38.0443     0.0000    14.0000 </r>
       <r>   -37.8044     0.0000    14.0000 </r>
       <r>   -37.5644     0.0000    14.0000 </r>
       <r>   -37.3245     0.0000    14.0000 </r>
       <r>   -37.0846     0.0000    14.0000 </r>
       <r>   -36.8446     0.0000    14.0000 </r>
       <r>   -36.6047     0.0000    14.0000 </r>
       <r>   -36.3647     0.0000    14.0000 </r>
       <r>   -36.1248     0.0000    14.0000 </r>
       <r>   -35.8848     0.0000    14.0000 </r>
       <r>   -35.6449     0.0000    14.0000 </r>
       <r>   -35.4049     0.0000    14.0000 </r>
       <r>   -35.1650     0.0000    14.0000 </r>
       <r>   -34.9251     0.0000    14.0000 </r>
       <r>   -34.6851    -0.0000    14.0000 </r>
       <r>   -34.4452    -0.0000    14.0000 </r>
       <r>   -34.2052    -0.0000    14.0000 </r>
       <r>   -33.9653    -0.0538    13.9871 </r>
       <r>   -33.7253     7.5050    15.7879 </r>
       <r>   -33.4854    46.7564    27.0068 </r>
       <r>   -33.2454    44.2409    37.6222 </r>
       <r>   -33.0055    60.4550    52.1281 </r>
       <r>   -32.7655    15.2114    55.7780 </r>
       <r>   -32.5256     0.9277    56.0006 </r>
       <r>   -32.2857    -0.0023    56.0000 </r>
       <r>   -32.0457    -0.0000    56.0000 </r>
       <r>   -31.8058     0.0000    56.0000 </r>
       <r>   -31.5658     0.0000    56.0000 </r>
       <r>   -31.3259     0.0000    56.0000 </r>
       <r>   -31.0859     0.0000    56.0000 </r>
       <r>   -30.8460     0.0000    56.0000 </r>
       <r>   -30.6060     0.0000    56.0000 </r>
       <r>   -30.3661     0.0000    56.0000 </r>
       <r>   -30.1262     0.0000    56.0000 </r>
       <r>   -29.8862     0.0000    56.0000 </r>
       <r>   -29.6463     0.0000    56.0000 </r>
       <r>   -29.4063     0.0000    56.0000 </r>
       <r>   -29.1664     0.0000    56.0000 </r>
       <r>   -28.9264     0.0000    56.0000 </r>
       <r>   -28.6865     0.0000    56.0000 </r>
       <r>   -28.4465     0.0000    56.0000 </r>
       <r>   -28.2066     0.0000    56.0000 </r>
       <r>   -27.9667     0.0000    56.0000 </r>
       <r>   -27.7267     0.0000    56.0000 </r>
       <r>   -27.4868     0.0000    56.0000 </r>
       <r>   -27.2468     0.0000    56.0000 </r>
       <r>   -27.0069     0.0000    56.0000 </r>
       <r>   -26.7669     0.0000    56.0000 </r>
       <r>   -26.5270     0.0000    56.0000 </r>
       <r>   -26.2870     0.0000    56.0000 </r>
       <r>   -26.0471     0.0000    56.0000 </r>
       <r>   -25.8071     0.0000    56.0000 </r>
       <r>   -25.5672     0.0000    56.0000 </r>
       <r>   -25.3273     0.0000    56.0000 </r>
       <r>   -25.0873     0.0000    56.0000 </r>
       <r>   -24.8474     0.0000    56.0000 </r>
       <r>   -24.6074     0.0000    56.0000 </r>
       <r>   -24.3675     0.0000    56.0000 </r>
       <r>   -24.1275     0.0000    56.0000 </r>
       <r>   -23.8876     0.0000    56.0000 </r>
       <r>   -23.6476     0.0000    56.0000 </r>
       <r>   -23.4077     0.0000    56.0000 </r>
       <r>   -23.1678     0.0000    56.0000 </r>
       <r>   -22.9278     0.0000    56.0000 </r>
       <r>   -22.6879     0.0000    56.0000 </r>
       <r>   -22.4479     0.0000    56.0000 </r>
       <r>   -22.2080     0.0000    56.0000 </r>
       <r>   -21.9680     0.0000    56.0000 </r>
       <r>   -21.7281     0.0000    56.0000 </r>
       <r>   -21.4881     0.0000    56.0000 </r>
       <r>   -21.2482     0.0000    56.0000 </r>
       <r>   -21.0083     0.0000    56.0000 </r>
       <r>   -20.7683     0.0000    56.0000 </r>
       <r>   -20.5284     0.0000    56.0000 </r>
       <r>   -20.2884     0.0000    56.0000 </r>
       <r>   -20.0485     0.0000    56.0000 </r>
       <r>   -19.8085     0.0000    56.0000 </r>
       <r>   -19.5686     0.0000    56.0000 </r>
       <r>   -19.3286     0.0000    56.0000 </r>
       <r>   -19.0887     0.0000    56.0000 </r>
       <r>   -18.8487     0.0000    56.0000 </r>
       <r>   -18.6088     0.0000    56.0000 </r>
       <r>   -18.3689     0.0000    56.0000 </r>
       <r>   -18.1289     0.0000    56.0000 </r>
       <r>   -17.8890     0.0000    56.0000 </r>
       <r>   -17.6490     0.0000    56.0000 </r>
       <r>   -17.4091     0.0000    56.0000 </r>
       <r>   -17.1691     0.0000    56.0000 </r>
       <r>   -16.9292     0.0000    56.0000 </r>
       <r>   -16.6892     0.0000    56.0000 </r>
       <r>   -16.4493     0.0000    56.0000 </r>
       <r>   -16.2094     0.0000    56.0000 </r>
       <r>   -15.9694     0.0000    56.0000 </r>
       <r>   -15.7295     0.0000    56.0000 </r>
       <r>   -15.4895    -0.0000    56.0000 </r>
       <r>   -15.2496    -0.0000    56.0000 </r>
       <r>   -15.0096    -0.0000    56.0000 </r>
       <r>   -14.7697    -0.1981    55.9525 </r>
       <r>   -14.5297    28.0587    62.6850 </r>
       <r>   -14.2898    13.8541    66.0092 </r>
       <r>   -14.0499    -0.0384    66.0000 </r>
       <r>   -13.8099    -0.0000    66.0000 </r>
       <r>   -13.5700     0.0000    66.0000 </r>
       <r>   -13.3300     0.0000    66.0000 </r>
       <r>   -13.0901     0.0000    66.0000 </r>
       <r>   -12.8501     0.0000    66.0000 </r>
       <r>   -12.6102     0.0000    66.0000 </r>
       <r>   -12.3702     0.0000    66.0000 </r>
       <r>   -12.1303     0.0000    66.0000 </r>
       <r>   -11.8904     0.0000    66.0000 </r>
       <r>   -11.6504     0.0000    66.0000 </r>
       <r>   -11.4105     0.0000    66.0000 </r>
       <r>   -11.1705     0.0000    66.0000 </r>
       <r>   -10.9306     0.0000    66.0000 </r>
       <r>   -10.6906     0.0000    66.0000 </r>
       <r>   -10.4507     0.0000    66.0000 </r>
       <r>   -10.2107     0.0000    66.0000 </r>
       <r>    -9.9708     0.0000    66.0000 </r>
       <r>    -9.7308     0.0000    66.0000 </r>
       <r>    -9.4909    -0.0000    66.0000 </r>
       <r>    -9.2510    -0.0000    66.0000 </r>
       <r>    -9.0110    -0.0000    66.0000 </r>
       <r>    -8.7711    -0.0224    65.9946 </r>
       <r>    -8.5311     0.6800    66.1578 </r>
       <r>    -8.2912     2.6109    66.7843 </r>
       <r>    -8.0512     3.0527    67.5167 </r>
       <r>    -7.8113    -0.1279    67.4860 </r>
       <r>    -7.5713     2.9962    68.2050 </r>
       <r>    -7.3314     3.3686    69.0133 </r>
       <r>    -7.0915     1.2475    69.3126 </r>
       <r>    -6.8515     3.0112    70.0351 </r>
       <r>    -6.6116     3.9086    70.9730 </r>
       <r>    -6.3716     5.0356    72.1812 </r>
       <r>    -6.1317     1.2388    72.4785 </r>
       <r>    -5.8917     0.7184    72.6508 </r>
       <r>    -5.6518     5.5953    73.9934 </r>
       <r>    -5.4118     4.7483    75.1327 </r>
       <r>    -5.1719     4.9366    76.3172 </r>
       <r>    -4.9320     4.3465    77.3602 </r>
       <r>    -4.6920     3.1012    78.1043 </r>
       <r>    -4.4521     5.0381    79.3131 </r>
       <r>    -4.2121     3.1701    80.0738 </r>
       <r>    -3.9722     3.9534    81.0224 </r>
       <r>    -3.7322     3.5360    81.8708 </r>
       <r>    -3.4923     6.5684    83.4468 </r>
       <r>    -3.2523     4.2863    84.4753 </r>
       <r>    -3.0124     5.4281    85.7778 </r>
       <r>    -2.7724     3.5611    86.6323 </r>
       <r>    -2.5325     6.2393    88.1293 </r>
       <r>    -2.2926     9.4575    90.3986 </r>
       <r>    -2.0526     6.8847    92.0506 </r>
       <r>    -1.8127    11.6033    94.8347 </r>
       <r>    -1.5727    15.4184    98.5343 </r>
       <r>    -1.3328    14.3208   101.9705 </r>
       <r>    -1.0928    13.3050   105.1629 </r>
       <r>    -0.8529    12.1284   108.0731 </r>
       <r>    -0.6129    18.2827   112.4599 </r>
       <r>    -0.3730    21.0204   117.5036 </r>
       <r>    -0.1331    21.9138   122.7617 </r>
       <r>     0.1069    21.6899   127.9661 </r>
       <r>     0.3468    18.2185   132.3376 </r>
       <r>     0.5868    16.5207   136.3016 </r>
       <r>     0.8267    10.0005   138.7012 </r>
       <r>     1.0667    13.5006   141.9406 </r>
       <r>     1.3066    26.4901   148.2967 </r>
       <r>     1.5466    29.2933   155.3255 </r>
       <r>     1.7865    17.4449   159.5113 </r>
       <r>     2.0264    21.2243   164.6040 </r>
       <r>     2.2664    18.7278   169.0977 </r>
       <r>     2.5063    18.2316   173.4722 </r>
       <r>     2.7463     8.8694   175.6004 </r>
       <r>     2.9862    10.4895   178.1173 </r>
       <r>     3.2262     8.3232   180.1144 </r>
       <r>     3.4661     9.0079   182.2758 </r>
       <r>     3.7061    15.5219   186.0002 </r>
       <r>     3.9460    14.7397   189.5369 </r>
       <r>     4.1859    16.4519   193.4845 </r>
       <r>     4.4259    10.6120   196.0308 </r>
       <r>     4.6658    13.6821   199.3137 </r>
       <r>     4.9058    12.4360   202.2976 </r>
       <r>     5.1457    17.1949   206.4235 </r>
       <r>     5.3857    13.9492   209.7705 </r>
       <r>     5.6256    21.1292   214.8403 </r>
       <r>     5.8656    14.1903   218.2452 </r>
       <r>     6.1055    16.0995   222.1082 </r>
       <r>     6.3455    19.8644   226.8746 </r>
       <r>     6.5854    17.0956   230.9766 </r>
       <r>     6.8253    24.6563   236.8927 </r>
       <r>     7.0653    15.5753   240.6299 </r>
       <r>     7.3052    19.9403   245.4145 </r>
       <r>     7.5452    18.0353   249.7420 </r>
       <r>     7.7851    14.2344   253.1575 </r>
       <r>     8.0251     8.2655   255.1407 </r>
       <r>     8.2650     3.6111   256.0072 </r>
       <r>     8.5050    -0.0300   256.0000 </r>
       <r>     8.7449    -0.0000   256.0000 </r>
       <r>     8.9848     0.0000   256.0000 </r>
       <r>     9.2248     0.0000   256.0000 </r>
       <r>     9.4647     0.0000   256.0000 </r>
       <r>     9.7047     0.0000   256.0000 </r>
       <r>     9.9446     0.0000   256.0000 </r>
       <r>    10.1846     0.0000   256.0000 </r>
       <r>    10.4245     0.0000   256.0000 </r>
       <r>    10.6645     0.0000   256.0000 </r>
       <r>    10.9044     0.0000   256.0000 </r>
       <r>    11.1443     0.0000   256.0000 </r>
       <r>    11.3843     0.0000   256.0000 </r>
      </set>
     </set>
    </array>
   </total>
  </dos>
 </calculation>
 <structure name="finalpos" >
  <crystal>
   <varray name="basis" >
    <v>       5.60695197       0.00000000       0.00000000 </v>
    <v>       0.00000000       8.24170653       0.00000000 </v>
    <v>       0.00000000       0.00000000      19.19990485 </v>
   </varray>
   <i name="volume">    887.24397461 </i>
   <varray name="rec_basis" >
    <v>       0.17835002      -0.00000000      -0.00000000 </v>
    <v>       0.00000000       0.12133409      -0.00000000 </v>
    <v>       0.00000000       0.00000000       0.05208359 </v>
   </varray>
  </crystal>
  <varray name="positions" >
   <v>       0.00000000       0.00000000       0.39062694 </v>
   <v>       0.00000000       0.50000000       0.39062694 </v>
   <v>       0.50000000       0.00000000       0.39062694 </v>
   <v>       0.50000000       0.50000000       0.39062694 </v>
   <v>       0.00000000       0.00000000       0.53664203 </v>
   <v>       0.00000000       0.50000000       0.53664203 </v>
   <v>       0.50000000       0.00000000       0.53664203 </v>
   <v>       0.50000000       0.50000000       0.53664203 </v>
   <v>       0.25094688       0.25207123       0.46391100 </v>
   <v>       0.25094688       0.74792877       0.46391100 </v>
   <v>       0.74905312       0.25207123       0.46391100 </v>
   <v>       0.74905312       0.74792877       0.46391100 </v>
   <v>       0.25094688       0.25207123       0.60937306 </v>
   <v>       0.25094688       0.74792877       0.60937306 </v>
   <v>       0.74905312       0.25207123       0.60937306 </v>
   <v>       0.74905312       0.74792877       0.60937306 </v>
  </varray>
 </structure>
</modeling>
