unknown system                          
           1
     5.606952    0.000000    0.000000
     0.000000    8.241707    0.000000
     0.000000    0.000000   19.199905
   Ga   Ti   Al
     1     7     8
Direct configuration=     1
   0.00000000  0.00000000  0.39062694
   0.00000000  0.50000000  0.39062694
   0.50000000  0.00000000  0.39062694
   0.50000000  0.50000000  0.39062694
   0.00000000  0.00000000  0.53664203
   0.00000000  0.50000000  0.53664203
   0.50000000  0.00000000  0.53664203
   0.50000000  0.50000000  0.53664203
   0.25094688  0.25207123  0.46391100
   0.25094688  0.74792877  0.46391100
   0.74905312  0.25207123  0.46391100
   0.74905312  0.74792877  0.46391100
   0.25094688  0.25207123  0.60937306
   0.25094688  0.74792877  0.60937306
   0.74905312  0.25207123  0.60937306
   0.74905312  0.74792877  0.60937306
